ITEM: TIMESTEP
0
ITEM: NUMBER OF ATOMS
10
ITEM: BOX BOUNDS pp pp pp
0.0000000000000000e+00 1.5000000000000000e+01
0.0000000000000000e+00 1.5000000000000000e+01
0.0000000000000000e+00 1.5000000000000000e+01
ITEM: ATOMS id type x y z
7 2 6.88902 7.27346 6.08143
9 2 6.26624 5.45744 7.8999
3 1 7.31237 7.40832 8.14497
4 1 6.69725 6.32832 8.61752
10 2 6.46957 6.03611 9.64316
6 2 9.12152 9.01612 7.18031
1 1 8.44164 8.63329 6.43464
2 1 7.55153 7.69883 6.78883
5 2 8.68464 8.86774 5.31987
8 2 7.67632 8.15658 8.84855
ITEM: TIMESTEP
100
ITEM: NUMBER OF ATOMS
10
ITEM: BOX BOUNDS pp pp pp
0.0000000000000000e+00 1.5000000000000000e+01
0.0000000000000000e+00 1.5000000000000000e+01
0.0000000000000000e+00 1.5000000000000000e+01
ITEM: ATOMS id type x y z
7 2 7.12629 7.2682 5.95653
9 2 5.9823 5.85453 7.65939
3 1 7.40208 7.2996 8.20473
4 1 6.5593 6.2381 8.46824
10 2 6.39559 5.8776 9.48756
6 2 9.05696 9.32032 7.24034
1 1 8.41352 8.779 6.4715
2 1 7.62613 7.71351 6.85558
5 2 8.59259 9.05593 5.48672
8 2 7.96413 7.66218 9.0582
ITEM: TIMESTEP
200
ITEM: NUMBER OF ATOMS
10
ITEM: BOX BOUNDS pp pp pp
0.0000000000000000e+00 1.5000000000000000e+01
0.0000000000000000e+00 1.5000000000000000e+01
0.0000000000000000e+00 1.5000000000000000e+01
ITEM: ATOMS id type x y z
7 2 7.21057 7.21967 6.01817
9 2 5.73708 5.84673 7.72994
3 1 7.43801 7.15009 8.11081
4 1 6.50337 6.24318 8.39455
10 2 6.34048 5.84325 9.3773
6 2 8.96646 9.38041 7.35688
1 1 8.4219 8.84864 6.6422
2 1 7.67751 7.78608 6.82882
5 2 8.52188 9.29752 5.59348
8 2 8.10277 7.46448 8.9549
ITEM: TIMESTEP
300
ITEM: NUMBER OF ATOMS
10
ITEM: BOX BOUNDS pp pp pp
0.0000000000000000e+00 1.5000000000000000e+01
0.0000000000000000e+00 1.5000000000000000e+01
0.0000000000000000e+00 1.5000000000000000e+01
ITEM: ATOMS id type x y z
7 2 7.0777 7.51399 5.98547
9 2 5.83317 5.74571 7.45774
3 1 7.4326 7.11706 8.09003
4 1 6.49819 6.16236 8.29837
10 2 6.4378 5.86365 9.36761
6 2 9.13974 9.19287 7.59763
1 1 8.48848 8.87081 6.70376
2 1 7.59831 7.8578 6.86918
5 2 8.51213 9.37267 5.79674
8 2 8.01803 7.48302 8.91576
ITEM: TIMESTEP
400
ITEM: NUMBER OF ATOMS
10
ITEM: BOX BOUNDS pp pp pp
0.0000000000000000e+00 1.5000000000000000e+01
0.0000000000000000e+00 1.5000000000000000e+01
0.0000000000000000e+00 1.5000000000000000e+01
ITEM: ATOMS id type x y z
7 2 6.84002 7.71638 6.10256
9 2 5.97192 5.82381 7.32124
3 1 7.35905 7.12548 8.16402
4 1 6.54746 6.07238 8.17243
10 2 6.40472 5.38236 8.99056
6 2 9.24926 9.10034 7.50475
1 1 8.55351 8.87118 6.759
2 1 7.53277 8.01262 6.9322
5 2 8.73533 9.36153 5.73159
8 2 7.96604 7.34561 9.07245
ITEM: TIMESTEP
500
ITEM: NUMBER OF ATOMS
10
ITEM: BOX BOUNDS pp pp pp
0.0000000000000000e+00 1.5000000000000000e+01
0.0000000000000000e+00 1.5000000000000000e+01
0.0000000000000000e+00 1.5000000000000000e+01
ITEM: ATOMS id type x y z
9 2 5.90529 5.86117 7.18378
8 2 8.10013 7.36488 8.8921
3 1 7.37938 7.05147 8.08293
4 1 6.53057 6.0344 8.08092
10 2 6.40302 5.40342 8.96486
7 2 6.77531 7.97616 6.14651
1 1 8.52354 8.92625 6.89784
2 1 7.55618 8.01194 6.90861
5 2 8.72349 9.65578 6.13615
6 2 9.27875 8.81425 7.74378
ITEM: TIMESTEP
600
ITEM: NUMBER OF ATOMS
10
ITEM: BOX BOUNDS pp pp pp
0.0000000000000000e+00 1.5000000000000000e+01
0.0000000000000000e+00 1.5000000000000000e+01
0.0000000000000000e+00 1.5000000000000000e+01
ITEM: ATOMS id type x y z
9 2 5.6712 6.34119 7.15125
8 2 8.29231 6.89257 8.6672
3 1 7.49229 6.93964 7.98356
4 1 6.42587 6.04906 7.94505
10 2 6.4033 5.19531 8.71034
7 2 6.86871 7.87607 6.17194
1 1 8.48509 9.03823 7.1233
2 1 7.63905 7.99019 6.93933
5 2 8.46623 9.78123 6.28203
6 2 9.16849 9.03096 7.95876
ITEM: TIMESTEP
700
ITEM: NUMBER OF ATOMS
10
ITEM: BOX BOUNDS pp pp pp
0.0000000000000000e+00 1.5000000000000000e+01
0.0000000000000000e+00 1.5000000000000000e+01
0.0000000000000000e+00 1.5000000000000000e+01
ITEM: ATOMS id type x y z
9 2 5.56776 6.15992 7.21775
8 2 8.36151 6.71624 8.64043
3 1 7.46609 6.83442 7.89262
4 1 6.4268 6.01897 7.80589
10 2 6.34187 5.07217 8.32661
7 2 6.92131 8.1635 6.20177
1 1 8.49991 9.06663 7.22964
2 1 7.63598 8.09221 7.04637
5 2 8.55078 9.95285 6.59659
6 2 9.20816 9.08197 8.05872
ITEM: TIMESTEP
800
ITEM: NUMBER OF ATOMS
10
ITEM: BOX BOUNDS pp pp pp
0.0000000000000000e+00 1.5000000000000000e+01
0.0000000000000000e+00 1.5000000000000000e+01
0.0000000000000000e+00 1.5000000000000000e+01
ITEM: ATOMS id type x y z
9 2 5.72466 6.08028 6.86975
8 2 8.07179 6.71409 8.65626
3 1 7.43026 6.86588 7.81209
4 1 6.48163 5.9533 7.68495
10 2 6.51814 5.11556 8.37196
7 2 6.7435 8.45987 6.40425
1 1 8.57379 9.01913 7.32451
2 1 7.53594 8.16923 7.12715
5 2 8.51236 10.0021 6.84506
6 2 9.42381 8.80279 8.04953
ITEM: TIMESTEP
900
ITEM: NUMBER OF ATOMS
10
ITEM: BOX BOUNDS pp pp pp
0.0000000000000000e+00 1.5000000000000000e+01
0.0000000000000000e+00 1.5000000000000000e+01
0.0000000000000000e+00 1.5000000000000000e+01
ITEM: ATOMS id type x y z
9 2 5.70817 6.10351 6.75975
8 2 8.20441 6.69089 8.63766
3 1 7.43309 6.87784 7.87437
4 1 6.48895 5.97573 7.48219
10 2 6.45661 4.9336 7.93733
7 2 6.69888 8.3797 6.63571
1 1 8.57752 9.01789 7.37594
2 1 7.5241 8.18539 7.2923
5 2 8.55099 9.90632 6.7207
6 2 9.36303 8.86491 8.04903
ITEM: TIMESTEP
1000
ITEM: NUMBER OF ATOMS
10
ITEM: BOX BOUNDS pp pp pp
0.0000000000000000e+00 1.5000000000000000e+01
0.0000000000000000e+00 1.5000000000000000e+01
0.0000000000000000e+00 1.5000000000000000e+01
ITEM: ATOMS id type x y z
9 2 5.7238 6.31321 6.75147
8 2 8.26308 6.46537 8.43293
3 1 7.45682 6.83399 7.75301
4 1 6.49927 5.93519 7.4472
10 2 6.42953 5.01116 7.90411
7 2 6.64121 8.59013 6.60169
1 1 8.51144 9.0428 7.53092
2 1 7.53541 8.19151 7.23287
5 2 8.67361 10.0323 7.1914
6 2 9.37512 8.78687 8.22342
ITEM: TIMESTEP
1100
ITEM: NUMBER OF ATOMS
10
ITEM: BOX BOUNDS pp pp pp
0.0000000000000000e+00 1.5000000000000000e+01
0.0000000000000000e+00 1.5000000000000000e+01
0.0000000000000000e+00 1.5000000000000000e+01
ITEM: ATOMS id type x y z
9 2 5.57847 6.32101 6.90791
8 2 8.39333 6.3593 8.06655
3 1 7.54283 6.80349 7.6155
4 1 6.49237 5.99616 7.37174
10 2 6.2915 4.91221 7.71578
7 2 6.84644 8.6576 6.62843
1 1 8.47338 9.05333 7.74548
2 1 7.55953 8.1881 7.20563
5 2 8.46592 10.1589 7.50803
6 2 9.13971 8.56447 8.43218
ITEM: TIMESTEP
1200
ITEM: NUMBER OF ATOMS
10
ITEM: BOX BOUNDS pp pp pp
0.0000000000000000e+00 1.5000000000000000e+01
0.0000000000000000e+00 1.5000000000000000e+01
0.0000000000000000e+00 1.5000000000000000e+01
ITEM: ATOMS id type x y z
9 2 5.58316 6.5498 6.81142
4 1 6.48832 6.01168 7.17897
10 2 6.5507 4.97946 7.17799
8 2 8.46569 6.37646 7.97785
3 1 7.508 6.79309 7.58161
7 2 6.66747 8.50773 6.72551
2 1 7.51794 8.16299 7.37561
6 2 9.32581 8.78216 8.51222
1 1 8.48908 9.02351 7.85052
5 2 8.51109 10.0768 7.76379
ITEM: TIMESTEP
1300
ITEM: NUMBER OF ATOMS
10
ITEM: BOX BOUNDS pp pp pp
0.0000000000000000e+00 1.5000000000000000e+01
0.0000000000000000e+00 1.5000000000000000e+01
0.0000000000000000e+00 1.5000000000000000e+01
ITEM: ATOMS id type x y z
9 2 5.7046 6.30976 6.39021
4 1 6.53679 6.00702 7.00262
10 2 6.5942 4.89025 7.06639
8 2 8.29412 6.30833 8.13401
3 1 7.48579 6.83092 7.5403
7 2 6.53841 8.83838 7.14508
2 1 7.49945 8.23796 7.5255
6 2 9.40259 8.45927 8.25422
1 1 8.51855 8.98436 7.90583
5 2 8.34659 10.0524 8.05354
ITEM: TIMESTEP
1400
ITEM: NUMBER OF ATOMS
10
ITEM: BOX BOUNDS pp pp pp
0.0000000000000000e+00 1.5000000000000000e+01
0.0000000000000000e+00 1.5000000000000000e+01
0.0000000000000000e+00 1.5000000000000000e+01
ITEM: ATOMS id type x y z
9 2 5.68495 6.5212 6.42771
4 1 6.54445 6.02641 6.89667
10 2 6.68199 4.95497 6.76896
8 2 8.29184 6.20968 7.90378
3 1 7.47902 6.75773 7.50993
7 2 6.66053 8.74596 7.21
2 1 7.45978 8.22178 7.59324
6 2 9.42947 8.69331 8.4761
1 1 8.4976 8.9933 8.01306
5 2 8.49004 10.0996 8.02505
ITEM: TIMESTEP
1500
ITEM: NUMBER OF ATOMS
10
ITEM: BOX BOUNDS pp pp pp
0.0000000000000000e+00 1.5000000000000000e+01
0.0000000000000000e+00 1.5000000000000000e+01
0.0000000000000000e+00 1.5000000000000000e+01
ITEM: ATOMS id type x y z
9 2 5.57625 6.49368 6.4504
4 1 6.53626 6.08633 6.85954
10 2 6.56846 5.00286 6.77323
8 2 8.51209 6.31642 7.69558
3 1 7.54091 6.78351 7.39059
7 2 6.61814 8.71318 7.1774
2 1 7.52596 8.21679 7.54893
6 2 9.32601 8.42895 8.65807
1 1 8.44381 8.95328 8.18964
5 2 8.24137 10.0255 8.20213
ITEM: TIMESTEP
1600
ITEM: NUMBER OF ATOMS
10
ITEM: BOX BOUNDS pp pp pp
0.0000000000000000e+00 1.5000000000000000e+01
0.0000000000000000e+00 1.5000000000000000e+01
0.0000000000000000e+00 1.5000000000000000e+01
ITEM: ATOMS id type x y z
9 2 5.69338 6.60559 6.52638
4 1 6.54463 6.07352 6.76827
10 2 6.71659 4.97458 6.7583
8 2 8.5305 6.37735 7.47422
3 1 7.5556 6.83687 7.26599
7 2 6.46965 8.78705 7.18043
2 1 7.50891 8.26217 7.54168
6 2 9.22718 8.35751 8.76369
1 1 8.40861 8.85848 8.35179
5 2 8.38019 9.93162 8.61956
ITEM: TIMESTEP
1700
ITEM: NUMBER OF ATOMS
10
ITEM: BOX BOUNDS pp pp pp
0.0000000000000000e+00 1.5000000000000000e+01
0.0000000000000000e+00 1.5000000000000000e+01
0.0000000000000000e+00 1.5000000000000000e+01
ITEM: ATOMS id type x y z
9 2 5.60212 6.67748 6.3505
4 1 6.62022 6.16742 6.57684
10 2 6.58456 5.19291 6.09087
8 2 8.57826 6.26257 7.47633
3 1 7.60382 6.76445 7.2887
7 2 6.57098 8.70219 7.47736
6 2 9.25676 8.26708 8.71733
1 1 8.37255 8.89358 8.40018
5 2 8.32276 9.91746 8.65134
2 1 7.43817 8.20794 7.75516
ITEM: TIMESTEP
1800
ITEM: NUMBER OF ATOMS
10
ITEM: BOX BOUNDS pp pp pp
0.0000000000000000e+00 1.5000000000000000e+01
0.0000000000000000e+00 1.5000000000000000e+01
0.0000000000000000e+00 1.5000000000000000e+01
ITEM: ATOMS id type x y z
9 2 5.83133 6.85145 6.08537
4 1 6.67337 6.25011 6.41056
10 2 6.92037 5.2248 6.02514
8 2 8.38823 6.27877 7.5849
3 1 7.54241 6.8395 7.23811
7 2 6.34627 8.51839 7.74753
6 2 9.40733 8.36532 8.52729
1 1 8.4174 8.79273 8.45204
5 2 8.2575 9.76247 9.06893
2 1 7.36231 8.15412 7.87427
ITEM: TIMESTEP
1900
ITEM: NUMBER OF ATOMS
10
ITEM: BOX BOUNDS pp pp pp
0.0000000000000000e+00 1.5000000000000000e+01
0.0000000000000000e+00 1.5000000000000000e+01
0.0000000000000000e+00 1.5000000000000000e+01
ITEM: ATOMS id type x y z
9 2 5.69011 6.71558 6.11045
4 1 6.66369 6.33219 6.33289
10 2 6.94809 5.48169 5.80561
8 2 8.59568 6.41673 7.37168
3 1 7.58063 6.85914 7.15321
6 2 9.31298 8.22298 8.77181
1 1 8.34879 8.73977 8.61879
5 2 8.09842 9.61353 9.09594
2 1 7.42682 8.09904 7.89318
7 2 6.35918 8.58871 7.74505
ITEM: TIMESTEP
2000
ITEM: NUMBER OF ATOMS
10
ITEM: BOX BOUNDS pp pp pp
0.0000000000000000e+00 1.5000000000000000e+01
0.0000000000000000e+00 1.5000000000000000e+01
0.0000000000000000e+00 1.5000000000000000e+01
ITEM: ATOMS id type x y z
9 2 5.61616 6.7741 6.28149
4 1 6.68779 6.35789 6.28382
10 2 6.90338 5.42205 5.65277
8 2 8.61101 6.40365 6.94046
3 1 7.63929 6.91574 7.02887
6 2 9.22876 8.20327 9.08175
1 1 8.27934 8.61637 8.79479
5 2 7.96333 9.56008 9.38364
2 1 7.44731 8.15089 7.85729
7 2 6.47894 8.61149 7.76029
ITEM: TIMESTEP
2100
ITEM: NUMBER OF ATOMS
10
ITEM: BOX BOUNDS pp pp pp
0.0000000000000000e+00 1.5000000000000000e+01
0.0000000000000000e+00 1.5000000000000000e+01
0.0000000000000000e+00 1.5000000000000000e+01
ITEM: ATOMS id type x y z
9 2 5.71729 6.74578 6.08501
4 1 6.71578 6.42056 6.18651
10 2 7.05509 5.5459 5.64865
8 2 8.65959 6.63002 7.07813
3 1 7.64483 6.99955 6.99955
6 2 9.23173 8.00554 8.94667
1 1 8.23877 8.51007 8.86151
5 2 8.04773 9.29943 9.54535
2 1 7.39935 8.14326 7.89835
7 2 6.42021 8.55267 7.90971
ITEM: TIMESTEP
2200
ITEM: NUMBER OF ATOMS
10
ITEM: BOX BOUNDS pp pp pp
0.0000000000000000e+00 1.5000000000000000e+01
0.0000000000000000e+00 1.5000000000000000e+01
0.0000000000000000e+00 1.5000000000000000e+01
ITEM: ATOMS id type x y z
9 2 5.77812 7.02925 6.06188
4 1 6.79839 6.57931 6.08594
10 2 7.03504 5.91915 5.29102
8 2 8.71678 6.50165 7.08988
3 1 7.64911 6.96202 7.03961
6 2 9.23542 8.07552 8.92537
1 1 8.24084 8.48867 8.87683
5 2 7.9513 9.35327 9.51149
2 1 7.3453 7.9779 8.01713
7 2 6.20544 8.29377 7.89222
ITEM: TIMESTEP
2300
ITEM: NUMBER OF ATOMS
10
ITEM: BOX BOUNDS pp pp pp
0.0000000000000000e+00 1.5000000000000000e+01
0.0000000000000000e+00 1.5000000000000000e+01
0.0000000000000000e+00 1.5000000000000000e+01
ITEM: ATOMS id type x y z
9 2 5.90986 7.22775 5.91
4 1 6.84806 6.67707 5.98679
10 2 7.11113 5.95165 5.13349
8 2 8.58381 6.46573 7.09657
3 1 7.68821 6.99216 6.97748
6 2 9.23791 8.19451 8.82858
1 1 8.18535 8.44717 8.9587
5 2 8.00114 9.06844 9.80287
2 1 7.28176 7.89861 8.06179
7 2 6.25987 8.22186 8.20891
ITEM: TIMESTEP
2400
ITEM: NUMBER OF ATOMS
10
ITEM: BOX BOUNDS pp pp pp
0.0000000000000000e+00 1.5000000000000000e+01
0.0000000000000000e+00 1.5000000000000000e+01
0.0000000000000000e+00 1.5000000000000000e+01
ITEM: ATOMS id type x y z
9 2 5.82436 6.96672 5.90747
4 1 6.90092 6.73604 5.92738
10 2 7.16271 6.20647 5.06728
8 2 8.75278 6.83685 6.86016
3 1 7.69093 7.14374 6.93953
6 2 9.19554 7.86948 8.99505
1 1 8.1469 8.23776 9.04528
5 2 7.79899 8.87508 9.92244
2 1 7.27874 7.91099 8.09774
7 2 6.28468 8.2942 8.07706
ITEM: TIMESTEP
2500
ITEM: NUMBER OF ATOMS
10
ITEM: BOX BOUNDS pp pp pp
0.0000000000000000e+00 1.5000000000000000e+01
0.0000000000000000e+00 1.5000000000000000e+01
0.0000000000000000e+00 1.5000000000000000e+01
ITEM: ATOMS id type x y z
9 2 5.81949 6.95193 6.03698
4 1 6.86046 6.83285 5.89332
10 2 7.34739 6.31259 5.02387
8 2 8.88219 7.15417 6.71205
3 1 7.73919 7.24167 6.84993
6 2 9.10962 7.81492 9.35725
1 1 8.06451 8.0725 9.15868
5 2 7.6412 8.57513 10.0058
2 1 7.35166 7.88026 8.04158
7 2 6.22919 8.2476 8.09199
ITEM: TIMESTEP
2600
ITEM: NUMBER OF ATOMS
10
ITEM: BOX BOUNDS pp pp pp
0.0000000000000000e+00 1.5000000000000000e+01
0.0000000000000000e+00 1.5000000000000000e+01
0.0000000000000000e+00 1.5000000000000000e+01
ITEM: ATOMS id type x y z
9 2 5.84481 7.07626 5.68862
4 1 6.97344 6.95654 5.80821
10 2 7.33561 6.42496 4.94087
8 2 8.75174 7.12074 6.73666
3 1 7.72635 7.27227 6.87151
6 2 9.12483 7.86058 9.12142
1 1 8.07037 8.01224 9.20487
5 2 7.61419 8.36523 10.1046
2 1 7.2681 7.82105 8.12207
7 2 6.22327 7.99958 8.25686
ITEM: TIMESTEP
2700
ITEM: NUMBER OF ATOMS
10
ITEM: BOX BOUNDS pp pp pp
0.0000000000000000e+00 1.5000000000000000e+01
0.0000000000000000e+00 1.5000000000000000e+01
0.0000000000000000e+00 1.5000000000000000e+01
ITEM: ATOMS id type x y z
9 2 5.94587 7.27651 5.82695
4 1 6.9939 7.11386 5.77544
10 2 7.49559 6.84561 4.82834
8 2 8.83688 7.03008 6.78048
3 1 7.73555 7.20877 6.85623
6 2 9.16109 7.90947 9.2123
1 1 8.00865 8.00357 9.18873
5 2 7.67501 8.46718 10.1708
2 1 7.2349 7.65025 8.14958
7 2 6.17158 7.83247 8.25023
ITEM: TIMESTEP
2800
ITEM: NUMBER OF ATOMS
10
ITEM: BOX BOUNDS pp pp pp
0.0000000000000000e+00 1.5000000000000000e+01
0.0000000000000000e+00 1.5000000000000000e+01
0.0000000000000000e+00 1.5000000000000000e+01
ITEM: ATOMS id type x y z
9 2 5.94137 7.42027 5.78616
4 1 7.00271 7.18291 5.7381
10 2 7.32534 6.92922 4.76877
8 2 8.89338 7.00741 6.87891
3 1 7.8149 7.30456 6.8804
6 2 9.03244 7.92401 9.1135
1 1 7.98485 7.91823 9.25293
5 2 7.45665 8.07751 10.1532
2 1 7.25753 7.62794 8.1402
7 2 6.11488 7.65975 8.11871
ITEM: TIMESTEP
2900
ITEM: NUMBER OF ATOMS
10
ITEM: BOX BOUNDS pp pp pp
0.0000000000000000e+00 1.5000000000000000e+01
0.0000000000000000e+00 1.5000000000000000e+01
0.0000000000000000e+00 1.5000000000000000e+01
ITEM: ATOMS id type x y z
9 2 6.00072 7.15595 5.8787
4 1 7.10627 7.21783 5.72009
10 2 7.68691 7.15384 4.69113
8 2 8.84185 7.43319 6.79831
3 1 7.77438 7.46824 6.82333
6 2 9.02016 7.60088 9.20938
1 1 7.92217 7.68462 9.25184
5 2 7.64585 7.82098 10.3039
2 1 7.16661 7.67204 8.16918
7 2 6.11195 7.79877 8.22099
ITEM: TIMESTEP
3000
ITEM: NUMBER OF ATOMS
10
ITEM: BOX BOUNDS pp pp pp
0.0000000000000000e+00 1.5000000000000000e+01
0.0000000000000000e+00 1.5000000000000000e+01
0.0000000000000000e+00 1.5000000000000000e+01
ITEM: ATOMS id type x y z
9 2 6.07651 7.09422 5.64291
4 1 7.12953 7.35123 5.67417
10 2 7.48187 7.35543 4.69862
8 2 8.928 7.73169 6.809
3 1 7.84323 7.56376 6.79888
6 2 9.00385 7.46588 9.26143
1 1 7.87085 7.51692 9.34609
5 2 7.28598 7.59891 10.2862
2 1 7.19743 7.61989 8.17327
7 2 6.10154 7.663 8.2364
ITEM: TIMESTEP
3100
ITEM: NUMBER OF ATOMS
10
ITEM: BOX BOUNDS pp pp pp
0.0000000000000000e+00 1.5000000000000000e+01
0.0000000000000000e+00 1.5000000000000000e+01
0.0000000000000000e+00 1.5000000000000000e+01
ITEM: ATOMS id type x y z
9 2 6.09663 7.49978 5.68747
4 1 7.16057 7.56193 5.6603
10 2 7.81702 7.4852 4.75391
6 2 8.90976 7.71972 9.46514
8 2 8.91991 7.6291 6.91945
3 1 7.79187 7.56117 6.82598
7 2 6.07272 7.2251 8.05932
1 1 7.87115 7.47351 9.31706
5 2 7.28968 7.32627 10.2506
2 1 7.17945 7.45919 8.15552
ITEM: TIMESTEP
3200
ITEM: NUMBER OF ATOMS
10
ITEM: BOX BOUNDS pp pp pp
0.0000000000000000e+00 1.5000000000000000e+01
0.0000000000000000e+00 1.5000000000000000e+01
0.0000000000000000e+00 1.5000000000000000e+01
ITEM: ATOMS id type x y z
9 2 6.05659 7.58246 5.47543
4 1 7.20079 7.7118 5.66601
10 2 7.79836 7.93751 4.77464
6 2 8.86162 7.63704 9.32049
8 2 8.90368 7.70542 6.9276
3 1 7.85232 7.54606 6.84146
7 2 6.13235 7.15361 8.16357
1 1 7.7949 7.42236 9.31939
5 2 7.16684 7.42788 10.2191
2 1 7.18609 7.28247 8.17452
ITEM: TIMESTEP
3300
ITEM: NUMBER OF ATOMS
10
ITEM: BOX BOUNDS pp pp pp
0.0000000000000000e+00 1.5000000000000000e+01
0.0000000000000000e+00 1.5000000000000000e+01
0.0000000000000000e+00 1.5000000000000000e+01
ITEM: ATOMS id type x y z
9 2 6.19403 7.62093 5.64534
4 1 7.23199 7.74322 5.66791
10 2 7.76542 7.88677 4.72414
6 2 8.78446 7.54476 9.58255
8 2 8.95038 7.84089 6.82554
3 1 7.86054 7.69559 6.85392
7 2 6.07368 7.15682 7.93502
1 1 7.75155 7.28959 9.34843
5 2 7.21096 7.01537 10.2607
2 1 7.18011 7.29734 8.11569
ITEM: TIMESTEP
3400
ITEM: NUMBER OF ATOMS
10
ITEM: BOX BOUNDS pp pp pp
0.0000000000000000e+00 1.5000000000000000e+01
0.0000000000000000e+00 1.5000000000000000e+01
0.0000000000000000e+00 1.5000000000000000e+01
ITEM: ATOMS id type x y z
9 2 6.26651 7.44153 5.48626
4 1 7.30314 7.77355 5.70787
10 2 7.9189 8.09146 4.86878
6 2 8.8104 7.37174 9.21809
8 2 8.91891 8.12463 7.11889
3 1 7.83346 7.81292 6.91278
7 2 6.04389 7.24014 8.04873
1 1 7.72815 7.1124 9.29008
5 2 7.14254 6.71521 10.1788
2 1 7.13906 7.34034 8.08417
ITEM: TIMESTEP
3500
ITEM: NUMBER OF ATOMS
10
ITEM: BOX BOUNDS pp pp pp
0.0000000000000000e+00 1.5000000000000000e+01
0.0000000000000000e+00 1.5000000000000000e+01
0.0000000000000000e+00 1.5000000000000000e+01
ITEM: ATOMS id type x y z
6 2 8.70676 7.204 9.4589
7 2 6.06694 7.12295 7.7757
2 1 7.07717 7.26013 8.06166
5 2 7.2647 6.58393 10.1149
1 1 7.68964 6.97306 9.24978
8 2 8.767 8.31082 7.16306
3 1 7.86253 7.81643 6.97939
9 2 6.42227 7.43831 5.46369
10 2 7.8623 8.50188 4.88
4 1 7.37634 7.96007 5.71463
ITEM: TIMESTEP
3600
ITEM: NUMBER OF ATOMS
10
ITEM: BOX BOUNDS pp pp pp
0.0000000000000000e+00 1.5000000000000000e+01
0.0000000000000000e+00 1.5000000000000000e+01
0.0000000000000000e+00 1.5000000000000000e+01
ITEM: ATOMS id type x y z
6 2 8.45862 7.45663 9.56431
7 2 6.19421 6.55271 7.76638
2 1 7.16507 7.15907 8.01029
5 2 7.1272 6.22706 10.0083
1 1 7.5824 6.89261 9.22088
8 2 8.92925 8.18045 7.23367
3 1 7.90309 7.8455 6.99117
9 2 6.36267 7.88979 5.4589
10 2 7.96797 8.65005 4.96515
4 1 7.36345 8.1467 5.7597
ITEM: TIMESTEP
3700
ITEM: NUMBER OF ATOMS
10
ITEM: BOX BOUNDS pp pp pp
0.0000000000000000e+00 1.5000000000000000e+01
0.0000000000000000e+00 1.5000000000000000e+01
0.0000000000000000e+00 1.5000000000000000e+01
ITEM: ATOMS id type x y z
6 2 8.4929 7.28161 9.67401
7 2 6.29422 6.58418 7.57866
2 1 7.18051 7.00714 7.91419
5 2 6.90333 6.30109 9.84804
1 1 7.57458 6.84851 9.22611
8 2 8.88005 8.30476 7.28281
3 1 7.85219 7.84224 7.00263
9 2 6.45921 7.91766 5.44137
10 2 7.9239 9.00562 5.2686
4 1 7.42112 8.27296 5.82298
ITEM: TIMESTEP
3800
ITEM: NUMBER OF ATOMS
10
ITEM: BOX BOUNDS pp pp pp
0.0000000000000000e+00 1.5000000000000000e+01
0.0000000000000000e+00 1.5000000000000000e+01
0.0000000000000000e+00 1.5000000000000000e+01
ITEM: ATOMS id type x y z
6 2 8.42039 7.01739 9.6853
7 2 6.23534 6.55461 7.58665
2 1 7.19352 7.05898 7.89691
5 2 6.94161 5.97134 9.7427
1 1 7.5495 6.69241 9.14916
8 2 8.69747 8.36383 7.54526
3 1 7.83954 8.03337 7.08805
9 2 6.56091 7.95243 5.31437
10 2 8.02718 9.02193 5.21464
4 1 7.45763 8.27166 5.83255
ITEM: TIMESTEP
3900
ITEM: NUMBER OF ATOMS
10
ITEM: BOX BOUNDS pp pp pp
0.0000000000000000e+00 1.5000000000000000e+01
0.0000000000000000e+00 1.5000000000000000e+01
0.0000000000000000e+00 1.5000000000000000e+01
ITEM: ATOMS id type x y z
6 2 8.46678 6.94131 9.5976
7 2 6.17971 6.55962 7.48053
2 1 7.11072 7.04015 7.90855
5 2 7.00739 5.77899 9.53563
1 1 7.5511 6.56097 9.07984
8 2 8.65463 8.66657 7.54322
3 1 7.75118 8.07284 7.17366
9 2 6.71624 7.85005 5.39924
10 2 8.11282 9.08706 5.24953
4 1 7.58473 8.38212 5.85183
ITEM: TIMESTEP
4000
ITEM: NUMBER OF ATOMS
10
ITEM: BOX BOUNDS pp pp pp
0.0000000000000000e+00 1.5000000000000000e+01
0.0000000000000000e+00 1.5000000000000000e+01
0.0000000000000000e+00 1.5000000000000000e+01
ITEM: ATOMS id type x y z
6 2 8.28052 6.90616 9.56616
7 2 6.38667 6.48852 7.3122
2 1 7.16205 6.97403 7.79233
5 2 6.94454 5.71855 9.63782
1 1 7.46707 6.5023 9.01727
8 2 8.55591 8.58515 7.9563
3 1 7.86956 8.0591 7.18894
9 2 6.81299 7.98644 5.31521
10 2 7.95703 9.37531 5.47652
4 1 7.53238 8.49122 5.93893
ITEM: TIMESTEP
4100
ITEM: NUMBER OF ATOMS
10
ITEM: BOX BOUNDS pp pp pp
0.0000000000000000e+00 1.5000000000000000e+01
0.0000000000000000e+00 1.5000000000000000e+01
0.0000000000000000e+00 1.5000000000000000e+01
ITEM: ATOMS id type x y z
7 2 6.78053 6.29204 6.82355
6 2 7.85487 7.13024 9.74455
1 1 7.36494 6.43641 8.98463
2 1 7.22246 6.8528 7.69026
5 2 7.0254 5.47793 9.26441
4 1 7.54252 8.67693 6.11207
3 1 7.90328 8.03403 7.21827
9 2 6.68294 8.26062 5.55171
10 2 8.00673 9.54353 5.64583
8 2 8.57431 8.51462 7.82766
ITEM: TIMESTEP
4200
ITEM: NUMBER OF ATOMS
10
ITEM: BOX BOUNDS pp pp pp
0.0000000000000000e+00 1.5000000000000000e+01
0.0000000000000000e+00 1.5000000000000000e+01
0.0000000000000000e+00 1.5000000000000000e+01
ITEM: ATOMS id type x y z
7 2 6.70911 6.24895 6.89194
6 2 7.83189 6.80192 9.64775
1 1 7.30243 6.261 8.88475
2 1 7.30183 6.84716 7.63895
5 2 6.86422 5.27824 9.18648
4 1 7.59043 8.77175 6.11865
3 1 7.8757 8.14874 7.29501
9 2 6.92352 8.27047 5.38723
10 2 7.93799 9.79844 6.00316
8 2 8.43491 8.65008 8.14828
ITEM: TIMESTEP
4300
ITEM: NUMBER OF ATOMS
10
ITEM: BOX BOUNDS pp pp pp
0.0000000000000000e+00 1.5000000000000000e+01
0.0000000000000000e+00 1.5000000000000000e+01
0.0000000000000000e+00 1.5000000000000000e+01
ITEM: ATOMS id type x y z
7 2 6.69201 6.4719 6.78286
6 2 7.93501 6.5548 9.64664
1 1 7.37245 6.17435 8.78673
2 1 7.20845 6.80212 7.65401
5 2 7.00632 5.15394 8.83426
4 1 7.73294 8.79333 6.18471
3 1 7.68804 8.22586 7.38388
9 2 7.26916 8.42612 5.27619
10 2 8.07475 9.85904 6.07495
8 2 8.13547 8.7802 8.21809
ITEM: TIMESTEP
4400
ITEM: NUMBER OF ATOMS
10
ITEM: BOX BOUNDS pp pp pp
0.0000000000000000e+00 1.5000000000000000e+01
0.0000000000000000e+00 1.5000000000000000e+01
0.0000000000000000e+00 1.5000000000000000e+01
ITEM: ATOMS id type x y z
7 2 6.76544 6.36939 6.70152
6 2 7.86268 6.49297 9.62824
1 1 7.37138 6.09956 8.70602
2 1 7.19794 6.83206 7.6091
5 2 7.06534 5.04733 8.68424
4 1 7.79914 8.87544 6.23725
3 1 7.62407 8.24792 7.41907
9 2 7.39784 8.42679 5.27834
10 2 8.14387 9.86098 6.41857
8 2 7.9336 8.6926 8.34945
ITEM: TIMESTEP
4500
ITEM: NUMBER OF ATOMS
10
ITEM: BOX BOUNDS pp pp pp
0.0000000000000000e+00 1.5000000000000000e+01
0.0000000000000000e+00 1.5000000000000000e+01
0.0000000000000000e+00 1.5000000000000000e+01
ITEM: ATOMS id type x y z
7 2 7.09902 6.3475 6.50973
6 2 7.54401 6.47841 9.58979
1 1 7.265 6.03886 8.65262
2 1 7.31583 6.78464 7.52835
5 2 6.85215 5.00919 8.57969
4 1 7.72008 8.95907 6.35647
3 1 7.74857 8.2185 7.46217
9 2 7.45591 8.60093 5.39255
10 2 7.90839 10.1028 6.33969
8 2 7.96762 8.67476 8.47997
ITEM: TIMESTEP
4600
ITEM: NUMBER OF ATOMS
10
ITEM: BOX BOUNDS pp pp pp
0.0000000000000000e+00 1.5000000000000000e+01
0.0000000000000000e+00 1.5000000000000000e+01
0.0000000000000000e+00 1.5000000000000000e+01
ITEM: ATOMS id type x y z
7 2 7.48378 6.3124 6.45593
6 2 7.12273 6.48808 9.54117
1 1 7.16878 6.01965 8.53352
2 1 7.38966 6.7532 7.42185
5 2 7.01095 4.9583 8.51067
4 1 7.69678 9.04438 6.48958
3 1 7.77899 8.22626 7.52059
9 2 7.31074 8.57239 5.51357
10 2 7.9529 10.0445 6.58675
8 2 8.03757 8.58339 8.4877
ITEM: TIMESTEP
4700
ITEM: NUMBER OF ATOMS
10
ITEM: BOX BOUNDS pp pp pp
0.0000000000000000e+00 1.5000000000000000e+01
0.0000000000000000e+00 1.5000000000000000e+01
0.0000000000000000e+00 1.5000000000000000e+01
ITEM: ATOMS id type x y z
7 2 7.39331 6.48382 6.36893
6 2 7.2576 6.38654 9.44041
1 1 7.17058 5.94336 8.39667
2 1 7.41865 6.80218 7.41566
5 2 6.98309 4.81961 8.18771
4 1 7.78706 9.0829 6.55707
3 1 7.6588 8.19591 7.62608
9 2 7.75577 8.71214 5.57397
10 2 7.87814 10.2136 6.6348
8 2 7.64556 8.45809 8.71029
ITEM: TIMESTEP
4800
ITEM: NUMBER OF ATOMS
10
ITEM: BOX BOUNDS pp pp pp
0.0000000000000000e+00 1.5000000000000000e+01
0.0000000000000000e+00 1.5000000000000000e+01
0.0000000000000000e+00 1.5000000000000000e+01
ITEM: ATOMS id type x y z
7 2 7.32452 6.4937 6.27271
2 1 7.36891 6.80743 7.34712
6 2 7.29497 5.94754 9.31498
1 1 7.21216 5.86383 8.28598
5 2 7.16311 4.86074 8.03492
4 1 7.92983 9.14456 6.74291
10 2 8.09144 10.1734 6.9006
9 2 8.12017 8.76026 5.71635
8 2 7.29835 8.64352 8.65625
3 1 7.461 8.24099 7.62285
ITEM: TIMESTEP
4900
ITEM: NUMBER OF ATOMS
10
ITEM: BOX BOUNDS pp pp pp
0.0000000000000000e+00 1.5000000000000000e+01
0.0000000000000000e+00 1.5000000000000000e+01
0.0000000000000000e+00 1.5000000000000000e+01
ITEM: ATOMS id type x y z
7 2 7.56642 6.40395 6.31069
2 1 7.42261 6.82311 7.2925
6 2 7.06751 6.06478 9.31792
1 1 7.1588 5.83847 8.1831
5 2 7.14529 4.77211 7.86688
4 1 7.92656 9.17381 6.84866
10 2 8.09689 10.227 7.24283
9 2 8.17964 9.08145 5.7615
8 2 7.23951 8.40815 8.64791
3 1 7.46348 8.20838 7.63262
ITEM: TIMESTEP
5000
ITEM: NUMBER OF ATOMS
10
ITEM: BOX BOUNDS pp pp pp
0.0000000000000000e+00 1.5000000000000000e+01
0.0000000000000000e+00 1.5000000000000000e+01
0.0000000000000000e+00 1.5000000000000000e+01
ITEM: ATOMS id type x y z
7 2 7.92613 6.65358 6.3023
2 1 7.54415 6.82694 7.30665
6 2 6.74022 5.86802 9.13541
1 1 7.04728 5.8131 8.08952
5 2 6.93486 4.81435 7.59646
4 1 7.85401 9.22962 6.90365
10 2 7.79112 10.2264 7.23411
9 2 8.13515 9.05643 5.9068
8 2 7.27416 8.41821 8.73334
3 1 7.60829 8.16085 7.69694
ITEM: TIMESTEP
5100
ITEM: NUMBER OF ATOMS
10
ITEM: BOX BOUNDS pp pp pp
0.0000000000000000e+00 1.5000000000000000e+01
0.0000000000000000e+00 1.5000000000000000e+01
0.0000000000000000e+00 1.5000000000000000e+01
ITEM: ATOMS id type x y z
7 2 8.13699 6.50691 6.38498
2 1 7.52049 6.83477 7.29706
6 2 6.45363 5.86655 8.81973
1 1 7.04339 5.77877 7.92118
5 2 7.14314 4.78453 7.62308
4 1 7.86144 9.24064 6.97557
10 2 7.88694 10.2773 7.38689
9 2 8.15879 9.1781 5.88404
8 2 7.30709 8.31879 8.8799
3 1 7.58092 8.19378 7.79125
ITEM: TIMESTEP
5200
ITEM: NUMBER OF ATOMS
10
ITEM: BOX BOUNDS pp pp pp
0.0000000000000000e+00 1.5000000000000000e+01
0.0000000000000000e+00 1.5000000000000000e+01
0.0000000000000000e+00 1.5000000000000000e+01
ITEM: ATOMS id type x y z
7 2 7.97921 6.77166 6.23879
2 1 7.53039 6.8077 7.1752
6 2 6.60994 5.88062 8.84585
1 1 7.06178 5.76476 7.86182
5 2 7.16245 4.69703 7.48249
4 1 7.95459 9.2836 7.18464
9 2 8.60081 9.13987 6.29873
8 2 6.97564 8.39278 8.65064
3 1 7.46097 8.14524 7.75543
10 2 7.74961 10.3302 7.50993
ITEM: TIMESTEP
5300
ITEM: NUMBER OF ATOMS
10
ITEM: BOX BOUNDS pp pp pp
0.0000000000000000e+00 1.5000000000000000e+01
0.0000000000000000e+00 1.5000000000000000e+01
0.0000000000000000e+00 1.5000000000000000e+01
ITEM: ATOMS id type x y z
7 2 7.96839 6.91077 6.19489
2 1 7.51101 6.90435 7.19576
6 2 6.61615 5.78505 8.70844
1 1 7.09652 5.68237 7.67438
5 2 7.34486 4.6747 7.29529
4 1 8.07583 9.24034 7.32669
9 2 8.879 9.12922 6.60953
8 2 6.55752 8.17176 8.60265
3 1 7.29848 8.23657 7.76199
10 2 7.86704 10.1668 7.7253
ITEM: TIMESTEP
5400
ITEM: NUMBER OF ATOMS
10
ITEM: BOX BOUNDS pp pp pp
0.0000000000000000e+00 1.5000000000000000e+01
0.0000000000000000e+00 1.5000000000000000e+01
0.0000000000000000e+00 1.5000000000000000e+01
ITEM: ATOMS id type x y z
7 2 8.5348 7.04761 6.3306
2 1 7.67079 6.82274 7.12809
6 2 6.25612 5.78071 8.30607
1 1 6.97344 5.73078 7.5234
5 2 7.26844 4.77473 7.10172
4 1 7.97982 9.28154 7.53352
9 2 8.73539 9.3345 6.71937
8 2 6.62831 8.20324 8.61184
3 1 7.33461 8.1432 7.74836
10 2 7.94902 10.2097 8.2192
ITEM: TIMESTEP
5500
ITEM: NUMBER OF ATOMS
10
ITEM: BOX BOUNDS pp pp pp
0.0000000000000000e+00 1.5000000000000000e+01
0.0000000000000000e+00 1.5000000000000000e+01
0.0000000000000000e+00 1.5000000000000000e+01
ITEM: ATOMS id type x y z
7 2 8.50272 6.77252 6.56368
2 1 7.71835 6.83216 7.22565
1 1 6.98314 5.73724 7.27565
5 2 7.00704 4.89747 6.60223
6 2 6.17134 5.74852 8.00942
9 2 8.85089 9.39267 6.91261
8 2 6.55187 8.00883 8.54279
3 1 7.39115 8.13256 7.92213
10 2 7.65057 10.186 8.16585
4 1 7.97229 9.3337 7.59197
ITEM: TIMESTEP
5600
ITEM: NUMBER OF ATOMS
10
ITEM: BOX BOUNDS pp pp pp
0.0000000000000000e+00 1.5000000000000000e+01
0.0000000000000000e+00 1.5000000000000000e+01
0.0000000000000000e+00 1.5000000000000000e+01
ITEM: ATOMS id type x y z
7 2 8.6823 7.02964 6.66414
2 1 7.67423 6.88528 7.14306
1 1 6.96079 5.74993 7.21797
5 2 7.41553 4.91993 6.56895
6 2 5.96252 5.53564 7.72249
9 2 8.83056 9.32916 7.06462
8 2 6.51345 8.12202 8.62197
3 1 7.34682 8.11413 7.87384
10 2 7.85538 10.1533 8.40386
4 1 7.99553 9.27237 7.73896
ITEM: TIMESTEP
5700
ITEM: NUMBER OF ATOMS
10
ITEM: BOX BOUNDS pp pp pp
0.0000000000000000e+00 1.5000000000000000e+01
0.0000000000000000e+00 1.5000000000000000e+01
0.0000000000000000e+00 1.5000000000000000e+01
ITEM: ATOMS id type x y z
7 2 8.55425 6.8212 6.43211
2 1 7.67404 6.93256 7.07789
1 1 6.99301 5.75771 7.1416
5 2 7.32554 4.92588 6.60952
6 2 6.12001 5.72466 7.73573
9 2 9.05972 9.39618 7.53112
8 2 6.35666 7.91061 8.36318
3 1 7.31049 8.13845 7.81623
10 2 7.58281 10.0219 8.49552
4 1 8.0433 9.24121 7.91791
ITEM: TIMESTEP
5800
ITEM: NUMBER OF ATOMS
10
ITEM: BOX BOUNDS pp pp pp
0.0000000000000000e+00 1.5000000000000000e+01
0.0000000000000000e+00 1.5000000000000000e+01
0.0000000000000000e+00 1.5000000000000000e+01
ITEM: ATOMS id type x y z
7 2 8.5971 7.11188 6.50243