10
 Atoms. Timestep: 0
C 8.44164 8.63329 6.43464
C 7.55153 7.69883 6.78883
C 7.31237 7.40832 8.14497
C 6.69725 6.32832 8.61752
H 8.68464 8.86774 5.31987
H 9.12152 9.01612 7.18031
H 6.88902 7.27346 6.08143
H 7.67632 8.15658 8.84855
H 6.26624 5.45744 7.8999
H 6.46957 6.03611 9.64316
10
 Atoms. Timestep: 20
C 8.47644 8.66054 6.39413
C 7.55534 7.74297 6.76414
C 7.30146 7.39461 8.21047
C 6.66746 6.24401 8.60199
H 8.65325 8.91537 5.36595
H 9.00992 9.05588 7.26275
H 6.97959 7.29061 5.93403
H 7.80878 8.03185 8.98293
H 6.23849 5.6199 7.86244
H 6.42983 6.05358 9.65655
10
 Atoms. Timestep: 40
C 8.48898 8.65265 6.4305
C 7.53358 7.77814 6.78597
C 7.3212 7.33655 8.20822
C 6.6326 6.25422 8.56082
H 8.68072 8.99229 5.45592
H 9.05725 9.31021 7.13968
H 7.01433 7.17288 5.99608
H 7.8159 7.90992 8.97677
H 6.18198 5.66299 7.79544
H 6.51564 6.04233 9.61203
10
 Atoms. Timestep: 60
C 8.47578 8.70153 6.48857
C 7.56302 7.76608 6.85452
C 7.36812 7.32058 8.14056
C 6.59142 6.28371 8.52051
H 8.6521 8.92697 5.33129
H 9.04623 9.35672 7.14182
H 7.02816 7.17846 6.14167
H 7.84035 7.88617 8.93948
H 5.99908 5.5507 7.74886
H 6.56808 5.88954 9.56094
10
 Atoms. Timestep: 80
C 8.43723 8.76348 6.47765
C 7.64815 7.77337 6.82289
C 7.36084 7.28009 8.21506
C 6.55725 6.25301 8.47678
H 8.57366 8.83785 5.39731
H 8.99825 9.26752 7.22858
H 7.05213 7.25991 6.0467
H 7.9531 7.84643 8.99017
H 5.98377 5.71139 7.78411
H 6.5423 5.8772 9.48789
10
 Atoms. Timestep: 100
C 8.41352 8.779 6.4715
C 7.62613 7.71351 6.85558
C 7.40208 7.2996 8.20473
C 6.5593 6.2381 8.46824
H 8.59259 9.05593 5.48672
H 9.05696 9.32032 7.24034
H 7.12629 7.2682 5.95653
H 7.96413 7.66218 9.0582
H 5.9823 5.85453 7.65939
H 6.39559 5.8776 9.48756
10
 Atoms. Timestep: 120
C 8.4245 8.76351 6.52125
C 7.63327 7.75335 6.8263
C 7.42368 7.22622 8.20086
C 6.56471 6.27171 8.46208
H 8.52265 9.25172 5.5049
H 8.99437 9.35303 7.2335
H 7.10495 7.12231 6.13382
H 8.01319 7.66084 8.99141
H 5.94949 5.87759 7.53921
H 6.26237 5.86576 9.42323
10
 Atoms. Timestep: 140
C 8.45012 8.81496 6.53973
C 7.64892 7.74434 6.84771
C 7.48252 7.19302 8.18874
C 6.49622 6.2662 8.41922
H 8.39345 9.22566 5.45673
H 8.91893 9.31117 7.36694
H 7.05815 7.15058 6.11661
H 8.09584 7.73466 8.96335
H 5.94367 5.82506 7.59823
H 6.24723 5.86171 9.41469
10
 Atoms. Timestep: 160
C 8.38222 8.81054 6.56016
C 7.69027 7.7197 6.86408
C 7.48348 7.18072 8.16471
C 6.4956 6.28056 8.39617
H 8.45755 9.1858 5.62017
H 8.94359 9.34458 7.35362
H 7.10757 7.3844 5.9934
H 8.05398 7.58613 9.00002
H 5.94074 5.84983 7.62169
H 6.31109 5.9202 9.3894
10
 Atoms. Timestep: 180
C 8.41478 8.88553 6.58441
C 7.7029 7.7397 6.8137
C 7.42762 7.13881 8.15914
C 6.49813 6.23392 8.43919
H 8.52581 9.26041 5.54222
H 9.03962 9.43262 7.3462
H 7.12111 7.32175 5.99058
H 8.02812 7.44259 9.00186
H 5.81934 5.86573 7.54764
H 6.32948 5.90921 9.48182
10
 Atoms. Timestep: 200
C 8.4219 8.84864 6.6422
C 7.67751 7.78608 6.82882
C 7.43801 7.15009 8.11081
C 6.50337 6.24318 8.39455
H 8.52188 9.29752 5.59348
H 8.96646 9.38041 7.35688
H 7.21057 7.21967 6.01817
H 8.10277 7.46448 8.9549
H 5.73708 5.84673 7.72994
H 6.34048 5.84325 9.3773
10
 Atoms. Timestep: 220
C 8.44667 8.8546 6.63793
C 7.62782 7.76624 6.853
C 7.46264 7.16198 8.11295
C 6.47413 6.23557 8.36356
H 8.54367 9.28877 5.65885
H 8.88832 9.32557 7.5512
H 7.24706 7.27831 5.92763
H 8.15759 7.52446 8.87661
H 5.74517 5.90721 7.68677
H 6.47466 5.78531 9.38332
10
 Atoms. Timestep: 240
C 8.43262 8.85234 6.65801
C 7.65531 7.7948 6.77425
C 7.42153 7.13412 8.13784
C 6.50207 6.22863 8.40178
H 8.653 9.3087 5.75189
H 8.8715 9.31466 7.58756
H 7.12144 7.36799 5.93418
H 8.11548 7.45201 8.89201
H 5.80274 5.99664 7.52729
H 6.49064 5.72057 9.36479
10
 Atoms. Timestep: 260
C 8.43914 8.87876 6.69679
C 7.63499 7.76439 6.80008
C 7.43091 7.16874 8.0777
C 6.51879 6.21022 8.39806
H 8.76496 9.41772 5.71639
H 8.93144 9.28382 7.54974
H 7.02408 7.4236 5.95327
H 8.10985 7.40436 8.94549
H 5.81367 5.8905 7.58551
H 6.33703 5.66729 9.3028
10
 Atoms. Timestep: 280
C 8.45605 8.86546 6.7072
C 7.63281 7.83951 6.83235
C 7.43517 7.12805 8.10839
C 6.49774 6.18484 8.31119
H 8.62829 9.38957 5.74966
H 8.99894 9.19754 7.57368
H 7.03983 7.43157 5.98332
H 8.1366 7.52608 8.85702
H 5.83561 5.78381 7.63304
H 6.35405 5.78427 9.33745
10
 Atoms. Timestep: 300
C 8.48848 8.87081 6.70376
C 7.59831 7.8578 6.86918
C 7.4326 7.11706 8.09003
C 6.49819 6.16236 8.29837
H 8.51213 9.37267 5.79674
H 9.13974 9.19287 7.59763
H 7.0777 7.51399 5.98547
H 8.01803 7.48302 8.91576
H 5.83317 5.74571 7.45774
H 6.4378 5.86365 9.36761
10
 Atoms. Timestep: 320
C 8.49492 8.85806 6.74017
C 7.61279 7.86044 6.86452
C 7.39799 7.13159 8.07335
C 6.53224 6.16105 8.30666
H 8.536 9.43619 5.79366
H 9.20799 9.22691 7.45667
H 6.9815 7.62627 6.00984
H 7.9067 7.38856 9.02778
H 5.90323 5.77345 7.46602
H 6.36093 5.70182 9.22682
10
 Atoms. Timestep: 340
C 8.51345 8.88338 6.72872
C 7.63848 7.88045 6.85907
C 7.37866 7.14686 8.14754
C 6.50156 6.10596 8.25628
H 8.5941 9.4675 5.7347
H 9.21575 9.16444 7.48085
H 6.86125 7.69781 6.06947
H 8.01617 7.51485 8.98519
H 5.91243 5.76849 7.46262
H 6.33135 5.507 9.2065
10
 Atoms. Timestep: 360
C 8.50043 8.84564 6.71533
C 7.57474 7.88659 6.93596
C 7.3859 7.17048 8.15924
C 6.54246 6.13711 8.19137
H 8.61802 9.38552 5.84057
H 9.2052 9.06534 7.57652
H 6.90182 7.68669 6.10492
H 8.02122 7.5109 8.93699
H 5.92629 5.82658 7.31457
H 6.4303 5.50602 9.10403
10
 Atoms. Timestep: 380
C 8.53523 8.84068 6.73879
C 7.51815 7.96573 6.93419
C 7.39022 7.1666 8.14074
C 6.54072 6.09368 8.19489
H 8.64453 9.35849 5.79871
H 9.22213 9.05473 7.58067
H 6.89305 7.59835 6.13415
H 7.98068 7.38036 9.06878
H 6.00335 5.9376 7.20988
H 6.47437 5.4903 9.04517
10
 Atoms. Timestep: 400
C 8.55351 8.87118 6.759
C 7.53277 8.01262 6.9322
C 7.35905 7.12548 8.16402
C 6.54746 6.07238 8.17243
H 8.73533 9.36153 5.73159
H 9.24926 9.10034 7.50475
H 6.84002 7.71638 6.10256
H 7.96604 7.34561 9.07245
H 5.97192 5.82381 7.32124
H 6.40472 5.38236 8.99056
10
 Atoms. Timestep: 420
C 8.52525 8.86397 6.76449
C 7.56328 7.96636 6.99332
C 7.3555 7.15912 8.13449
C 6.54964 6.0626 8.11846
H 8.72538 9.35443 5.82668
H 9.31234 9.12845 7.51837
H 6.86685 7.9741 6.15318
H 7.95958 7.38788 8.9757
H 5.88439 5.71203 7.30695
H 6.41343 5.35079 9.0436
10
 Atoms. Timestep: 440
C 8.57163 8.87514 6.80796
C 7.56576 7.98895 6.96474
C 7.32546 7.11527 8.10469
C 6.53782 6.04799 8.11426
H 8.5297 9.40339 5.88938
H 9.3713 9.05303 7.59861
H 6.78106 7.9208 6.21184
H 7.95241 7.37929 8.99338
H 5.94037 5.7814 7.20688
H 6.5451 5.51798 9.03907
10
 Atoms. Timestep: 460
C 8.57928 8.86119 6.85239
C 7.53545 8.01166 6.94622
C 7.36758 7.12027 8.07089
C 6.53611 6.05606 8.11629
H 8.52583 9.59973 6.00273
H 9.3465 8.95377 7.55092
H 6.78511 7.84503 6.15459
H 7.89156 7.28336 9.04271
H 5.98907 5.77753 7.23681
H 6.47538 5.46549 8.98649
10
 Atoms. Timestep: 480
C 8.53009 8.90255 6.8377
C 7.53253 7.99666 6.9539
C 7.39832 7.09732 8.09002
C 6.53497 6.05679 8.09856
H 8.74416 9.74187 6.14546
H 9.3294 8.84104 7.59893
H 6.86111 7.94753 6.0849
H 7.96432 7.34242 8.94985
H 5.92713 5.72674 7.25086
H 6.32248 5.30047 8.97789
10
 Atoms. Timestep: 500
C 8.52354 8.92625 6.89784
C 7.55618 8.01194 6.90861
C 7.37938 7.05147 8.08293
C 6.53057 6.0344 8.08092
H 8.72349 9.65578 6.13615
H 9.27875 8.81425 7.74378
H 6.77531 7.97616 6.14651
H 8.10013 7.36488 8.8921
H 5.90529 5.86117 7.18378
H 6.40302 5.40342 8.96486
10
 Atoms. Timestep: 520
C 8.55491 8.9107 6.99399
C 7.52766 7.98421 6.92647
C 7.40833 7.10081 7.98
C 6.52686 6.03367 8.06521
H 8.63049 9.54257 6.10457
H 9.21385 8.99351 7.81717
H 6.73015 7.96851 6.17614
H 8.08685 7.13371 8.89399
H 5.86633 5.95327 7.20047
H 6.4898 5.4521 8.90266
10
 Atoms. Timestep: 540
C 8.55227 8.94147 6.9794
C 7.56302 8.0533 6.96831
C 7.3987 6.98721 8.0036
C 6.49269 6.05278 8.02441
H 8.69511 9.64326 6.13743
H 9.1805 9.13577 7.84536
H 6.89072 7.99267 6.10088
H 8.10859 7.08277 8.75394
H 5.70111 5.84404 7.30148
H 6.50788 5.31292 8.89562
10
 Atoms. Timestep: 560
C 8.522 8.99514 6.9726
C 7.58625 8.0546 7.00053
C 7.42274 6.97343 7.9931
C 6.43774 6.02652 8.00542
H 8.73181 9.7423 6.19973
H 9.22337 9.1545 7.88537
H 7.0625 7.99997 6.0406
H 8.22618 6.98035 8.78432
H 5.5711 5.85866 7.32794
H 6.49669 5.18614 8.82107
10
 Atoms. Timestep: 580
C 8.49301 9.0007 7.08697
C 7.58957 7.98828 6.97029
C 7.4319 6.99726 7.9574
C 6.49118 6.07221 7.98766
H 8.57074 9.66666 6.25408
H 9.20128 9.07998 7.86208
H 6.97359 7.89224 6.06988
H 8.20027 6.78368 8.76125
H 5.67362 6.13066 7.30226
H 6.47057 5.31612 8.62552
10
 Atoms. Timestep: 600
C 8.48509 9.03823 7.1233
C 7.63905 7.99019 6.93933
C 7.49229 6.93964 7.98356
C 6.42587 6.04906 7.94505
H 8.46623 9.78123 6.28203
H 9.16849 9.03096 7.95876
H 6.86871 7.87607 6.17194
H 8.29231 6.89257 8.6672
H 5.6712 6.34119 7.15125
H 6.4033 5.19531 8.71034
10
 Atoms. Timestep: 620
C 8.44115 9.03014 7.07703
C 7.64976 7.96962 7.01463
C 7.5276 6.85807 7.94957
C 6.44747 6.10597 7.91507
H 8.52873 9.97035 6.52816
H 9.12392 9.10248 7.99192
H 6.92813 8.04661 6.17286
H 8.35024 6.90233 8.69323
H 5.6508 6.18897 7.1862
H 6.14626 5.22646 8.5788
10
 Atoms. Timestep: 640
C 8.49273 9.07337 7.13092
C 7.62601 8.01285 7.01752
C 7.55492 6.84561 7.89434
C 6.40882 6.05526 7.90585
H 8.40238 9.99375 6.52854
H 9.16988 9.1345 7.97762
H 6.92396 8.0108 6.17562
H 8.27878 6.65359 8.79355
H 5.69708 6.19776 7.11043
H 6.15707 5.30699 8.61151
10
 Atoms. Timestep: 660
C 8.48142 9.07189 7.22314
C 7.65208 8.04572 7.0107
C 7.49998 6.83071 7.89465
C 6.43888 6.06525 7.85648
H 8.31714 9.81692 6.47871
H 9.24234 9.11105 7.95416
H 6.90047 7.98618 6.24384
H 8.20575 6.59961 8.61331
H 5.69759 6.26716 7.04504
H 6.32654 5.35763 8.64408
10
 Atoms. Timestep: 680
C 8.44826 9.0693 7.23814
C 7.66068 7.98503 7.07189
C 7.50201 6.88981 7.87977
C 6.41934 6.05365 7.79703
H 8.46256 9.89853 6.48156
H 9.30753 9.10592 7.99927
H 6.93795 8.16759 6.22867
H 8.3371 6.69448 8.57111
H 5.54575 6.18179 7.12133
H 6.35138 5.18491 8.56611
10
 Atoms. Timestep: 700
C 8.49991 9.06663 7.22964
C 7.63598 8.09221 7.04637
C 7.46609 6.83442 7.89262
C 6.4268 6.01897 7.80589
H 8.55078 9.95285 6.59659
H 9.20816 9.08197 8.05872
H 6.92131 8.1635 6.20177
H 8.36151 6.71624 8.64043
H 5.56776 6.15992 7.21775
H 6.34187 5.07217 8.32661
10
 Atoms. Timestep: 720
C 8.54376 9.03933 7.25901
C 7.54756 8.09698 7.04244
C 7.49022 6.89624 7.87071
C 6.46171 6.00004 7.81206
H 8.57321 9.94027 6.66374
H 9.15276 8.99448 8.13031
H 6.88777 8.13753 6.20378
H 8.19464 6.60719 8.59814
H 5.61161 6.30733 7.12276
H 6.44453 5.03764 8.26496
10
 Atoms. Timestep: 740
C 8.49949 9.00536 7.28166
C 7.55833 8.09889 7.08146
C 7.46576 6.90581 7.86804
C 6.47412 6.02392 7.75193
H 8.63777 9.89909 6.68933
H 9.1803 8.85375 8.16102
H 6.83565 8.20214 6.24549
H 8.31203 6.71433 8.52195
H 5.65147 6.2531 7.05021
H 6.52059 5.09369 8.32236
10
 Atoms. Timestep: 760
C 8.52528 9.0572 7.31972
C 7.56892 8.12484 7.08648
C 7.43991 6.87789 7.86881
C 6.4488 5.97574 7.70791
H 8.69799 9.95166 6.66209
H 9.27833 8.80032 8.09252
H 6.77416 8.31076 6.31442
H 8.41014 6.81672 8.50844
H 5.64014 6.05518 7.02715
H 6.42575 5.07136 8.38684
10
 Atoms. Timestep: 780
C 8.53906 9.01819 7.34026
C 7.53939 8.15369 7.09554
C 7.45392 6.91159 7.80944
C 6.4947 5.9615 7.72302
H 8.64968 9.9251 6.79284
H 9.35096 8.88428 7.98996
H 6.79062 8.40224 6.38999
H 8.13859 6.6476 8.59659
H 5.67381 5.99002 6.97537
H 6.35797 5.10092 8.33469
10
 Atoms. Timestep: 800
C 8.57379 9.01913 7.32451
C 7.53594 8.16923 7.12715
C 7.43026 6.86588 7.81209
C 6.48163 5.9533 7.68495
H 8.51236 10.0021 6.84506
H 9.42381 8.80279 8.04953
H 6.7435 8.45987 6.40425
H 8.07179 6.71409 8.65626
H 5.72466 6.08028 6.86975
H 6.51814 5.11556 8.37196
10
 Atoms. Timestep: 820
C 8.54914 8.99493 7.31888
C 7.56112 8.14849 7.16339
C 7.42404 6.899 7.85756
C 6.47136 5.97 7.60761
H 8.52581 10.0192 6.9081
H 9.37118 8.73078 8.00435
H 6.71642 8.44848 6.48992
H 8.23137 6.85184 8.67117
H 5.71366 6.027 6.86075
H 6.53153 5.0682 8.27013
10
 Atoms. Timestep: 840
C 8.56821 9.02273 7.34811
C 7.51286 8.14613 7.15329
C 7.41809 6.93065 7.89733
C 6.51804 5.96283 7.60068
H 8.64186 10.0021 6.87575
H 9.38198 8.74525 7.95562
H 6.67475 8.38921 6.53875
H 8.19691 6.68552 8.61651
H 5.73258 6.04897 6.84566
H 6.3928 4.97487 8.06021
10
 Atoms. Timestep: 860
C 8.5526 9.03816 7.34842
C 7.51152 8.2286 7.18174
C 7.41166 6.86224 7.90998
C 6.5096 5.92295 7.59132
H 8.69289 9.94637 6.78532
H 9.42129 8.74407 7.99554
H 6.67078 8.40285 6.50017
H 8.14733 6.58971 8.63268
H 5.80672 6.2791 6.77385
H 6.47276 4.94619 8.01264
10
 Atoms. Timestep: 880
C 8.54045 9.01465 7.34014
C 7.49532 8.16563 7.28642
C 7.4388 6.87331 7.87401
C 6.50314 5.97606 7.53068
H 8.65387 9.90837 6.71867
H 9.36382 8.76355 8.0576
H 6.74406 8.49514 6.48977
H 8.19496 6.66977 8.69735
H 5.78024 6.22743 6.77399
H 6.52075 4.97788 7.96416
10
 Atoms. Timestep: 900
C 8.57752 9.01789 7.37594
C 7.5241 8.18539 7.2923
C 7.43309 6.87784 7.87437
C 6.48895 5.97573 7.48219
H 8.55099 9.90632 6.7207
H 9.36303 8.86491 8.04903
H 6.69888 8.3797 6.63571
H 8.20441 6.69089 8.63766
H 5.70817 6.10351 6.75975
H 6.45661 4.9336 7.93733
10
 Atoms. Timestep: 920
C 8.57925 9.05062 7.39991
C 7.54513 8.19966 7.25165
C 7.39272 6.84794 7.87901
C 6.50509 5.93922 7.48952
H 8.55252 9.99048 6.84349
H 9.48397 8.9338 8.03947
H 6.66371 8.41447 6.67385
H 8.12875 6.51385 8.56752
H 5.72142 6.17407 6.70631
H 6.44054 4.96876 7.93782
10
 Atoms. Timestep: 940
C 8.52248 9.04651 7.40965
C 7.54676 8.14136 7.263
C 7.42653 6.86439 7.85753
C 6.50055 5.95736 7.47884
H 8.54701 10.0492 7.01936
H 9.47358 8.80699 7.98347
H 6.73297 8.61337 6.58704
H 8.14251 6.43915 8.62331
H 5.79259 6.24988 6.6945
H 6.45741 5.0037 7.92724
10
 Atoms. Timestep: 960
C 8.55228 9.04413 7.46249
C 7.54206 8.1953 7.25006
C 7.46759 6.81152 7.8267
C 6.47385 5.98516 7.45725
H 8.43676 10.0774 7.08216
H 9.37321 8.65512 7.98622
H 6.6948 8.43668 6.6063
H 8.21946 6.68272 8.64174
H 5.77482 6.21846 6.69489
H 6.41024 4.93297 7.89867
10
 Atoms. Timestep: 980
C 8.54718 9.02997 7.50913
C 7.50901 8.17594 7.23707
C 7.48491 6.85492 7.77022
C 6.49984 5.97451 7.46604
H 8.55271 10.0821 7.1534
H 9.42089 8.71117 8.10201
H 6.64511 8.353 6.65931
H 8.19756 6.67402 8.5307
H 5.73169 6.24047 6.69827
H 6.33042 4.94721 7.85052
10
 Atoms. Timestep: 1000
C 8.51144 9.0428 7.53092
C 7.53541 8.19151 7.23287
C 7.45682 6.83399 7.75301
C 6.49927 5.93519 7.4472
H 8.67361 10.0323 7.1914
H 9.37512 8.78687 8.22342
H 6.64121 8.59013 6.60169
H 8.26308 6.46537 8.43293
H 5.7238 6.31321 6.75147
H 6.42953 5.01116 7.90411
10
 Atoms. Timestep: 1020
C 8.54038 9.07012 7.58338
C 7.54254 8.22671 7.23804
C 7.44844 6.78837 7.74409
C 6.47339 5.95104 7.41544
H 8.57058 10.0675 7.1044
H 9.23147 8.69121 8.30152
H 6.80464 8.67565 6.55523
H 8.33932 6.4197 8.31113
H 5.62193 6.20555 6.81731
H 6.52752 4.94293 7.9137
10
 Atoms. Timestep: 1040
C 8.51765 9.01166 7.63581
C 7.54191 8.19749 7.26011
C 7.48127 6.87462 7.6681
C 6.47154 5.98952 7.42917
H 8.54691 10.0344 7.20183
H 9.27172 8.75913 8.3591
H 6.86711 8.47759 6.52419
H 8.29946 6.50188 8.23562
H 5.52873 6.12126 6.88955
H 6.53586 4.88606 7.71962
10
 Atoms. Timestep: 1060
C 8.5287 9.05196 7.68886
C 7.54491 8.2095 7.23567
C 7.44986 6.8046 7.63021
C 6.45939 5.9528 7.43042
H 8.60914 10.0815 7.35549
H 9.3692 8.80789 8.42639
H 6.74424 8.43404 6.39792
H 8.34919 6.52179 8.2226
H 5.52033 6.31367 6.9273
H 6.63476 4.94798 7.64833
10
 Atoms. Timestep: 1080
C 8.46939 9.0554 7.70313
C 7.57563 8.22039 7.20488
C 7.49876 6.7901 7.64988
C 6.4582 5.95648 7.3961
H 8.574 10.0842 7.45584
H 9.19636 8.65513 8.3841
H 6.83949 8.69096 6.53147
H 8.39802 6.37075 8.16184
H 5.56731 6.3806 6.95495
H 6.53694 4.90417 7.6769
10
 Atoms. Timestep: 1100
C 8.47338 9.05333 7.74548
C 7.55953 8.1881 7.20563
C 7.54283 6.80349 7.6155
C 6.49237 5.99616 7.37174
H 8.46592 10.1589 7.50803
H 9.13971 8.56447 8.43218
H 6.84644 8.6576 6.62843
H 8.39333 6.3593 8.06655
H 5.57847 6.32101 6.90791
H 6.2915 4.91221 7.71578
10
 Atoms. Timestep: 1120
C 8.48868 9.04302 7.78383
C 7.58444 8.22406 7.26182
C 7.52873 6.7562 7.53047
C 6.44415 5.98303 7.35171
H 8.44046 10.1255 7.62374
H 9.29379 8.75449 8.52477
H 6.64289 8.43317 6.5498
H 8.47174 6.45273 8.07934
H 5.59525 6.42695 6.76876
H 6.40388 4.98928 7.77566
10
 Atoms. Timestep: 1140
C 8.47295 9.05638 7.82207
C 7.5721 8.15901 7.29675
C 7.54491 6.7698 7.4944
C 6.4397 6.00626 7.32545
H 8.41562 10.0955 7.65755
H 9.32656 8.81639 8.45151
H 6.76023 8.57999 6.62925
H 8.38688 6.34983 8.0833
H 5.59724 6.39859 6.74061
H 6.45953 5.03103 7.69476
10
 Atoms. Timestep: 1160
C 8.46019 9.07429 7.84724
C 7.60196 8.2181 7.3045
C 7.54684 6.74203 7.54512
C 6.4565 6.00805 7.26412
H 8.29649 10.1412 7.57577
H 9.28583 8.67346 8.39199
H 6.89173 8.7022 6.78194
H 8.31915 6.22156 8.0326
H 5.54017 6.32912 6.81101
H 6.39766 4.89773 7.52983
10
 Atoms. Timestep: 1180
C 8.47355 9.0603 7.85592
C 7.60544 8.21345 7.32855
C 7.50391 6.75179 7.58374
C 6.47156 5.99476 7.2089
H 8.37939 10.1601 7.6523
H 9.34943 8.71956 8.46822
H 6.65686 8.66861 6.71138
H 8.42681 6.23345 8.00623
H 5.52546 6.43296 6.85221
H 6.45937 4.88347 7.33597
10
 Atoms. Timestep: 1200
C 8.48908 9.02351 7.85052
C 7.51794 8.16299 7.37561
C 7.508 6.79309 7.58161
C 6.48832 6.01168 7.17897
H 8.51109 10.0768 7.76379
H 9.32581 8.78216 8.51222
H 6.66747 8.50773 6.72551
H 8.46569 6.37646 7.97785
H 5.58316 6.5498 6.81142
H 6.5507 4.97946 7.17799
10
 Atoms. Timestep: 1220
C 8.50174 9.0341 7.86496
C 7.49067 8.24911 7.43899
C 7.54503 6.75135 7.57278
C 6.47957 6.00208 7.14439
H 8.44537 10.1025 7.65879
H 9.24378 8.53461 8.47744
H 6.7494 8.58611 6.84252
H 8.43123 6.37922 7.99543
H 5.62289 6.49851 6.71021
H 6.52927 4.89917 7.0779
10
 Atoms. Timestep: 1240
C 8.47751 9.02704 7.89884
C 7.50538 8.23885 7.47677
C 7.51187 6.76991 7.55125
C 6.53354 6.00472 7.10255
H 8.51718 10.1085 7.64485
H 9.31125 8.50703 8.39622
H 6.60561 8.82139 6.90007
H 8.39223 6.24131 8.02836
H 5.65745 6.41674 6.63315
H 6.47048 4.8819 7.10989
10
 Atoms. Timestep: 1260
C 8.49427 8.99911 7.92913
C 7.48782 8.22477 7.46561
C 7.47719 6.8069 7.54696
C 6.53111 5.98279 7.03409
H 8.58712 10.0855 7.80212
H 9.46572 8.68489 8.33804
H 6.55715 8.70947 7.07533
H 8.34749 6.29682 8.04681
H 5.63559 6.44093 6.53262
H 6.58854 4.92097 7.23939
10
 Atoms. Timestep: 1280
C 8.54097 8.99816 7.92648
C 7.48494 8.25351 7.48972
C 7.46091 6.78287 7.53991
C 6.52641 6.00142 7.00434
H 8.38745 10.0624 7.94019
H 9.47199 8.56856 8.29912
H 6.60074 8.63906 7.15488
H 8.28676 6.43007 8.07307
H 5.65927 6.33921 6.44515
H 6.63837 4.96498 7.21391
10
 Atoms. Timestep: 1300
C 8.51855 8.98436 7.90583
C 7.49945 8.23796 7.5255
C 7.48579 6.83092 7.5403
C 6.53679 6.00702 7.00262
H 8.34659 10.0524 8.05354
H 9.40259 8.45927 8.25422
H 6.53841 8.83838 7.14508
H 8.29412 6.30833 8.13401
H 5.7046 6.30976 6.39021
H 6.5942 4.89025 7.06639
10
 Atoms. Timestep: 1320
C 8.50685 8.9913 7.93773
C 7.45118 8.26591 7.51815
C 7.4634 6.77217 7.53614
C 6.56248 5.99522 6.98796
H 8.55681 10.107 8.06648
H 9.44828 8.50712 8.25989
H 6.53252 8.82272 7.18695
H 8.30263 6.28005 8.10231
H 5.74789 6.46128 6.39262
H 6.63239 4.8943 7.00086
10
 Atoms. Timestep: 1340
C 8.50294 8.98204 7.98212
C 7.43694 8.26745 7.53434
C 7.47638 6.78674 7.5623
C 6.55885 5.99388 6.92956
H 8.60604 10.0529 7.93029
H 9.43232 8.50018 8.27432
H 6.54955 8.66947 7.21259
H 8.32373 6.37695 8.03265
H 5.7249 6.5115 6.42671
H 6.63679 4.92838 6.96251
10
 Atoms. Timestep: 1360
C 8.50778 8.97744 7.99023
C 7.46153 8.21652 7.59118
C 7.47945 6.81766 7.55112
C 6.57388 6.04471 6.9068
H 8.47423 10.0246 7.82326
H 9.36327 8.40689 8.34621
H 6.47423 8.70176 7.14677
H 8.38134 6.36273 8.01534
H 5.68862 6.41648 6.44245
H 6.60648 4.96953 6.87901
10
 Atoms. Timestep: 1380
C 8.49937 8.98248 7.98595
C 7.46039 8.2469 7.62397
C 7.48014 6.76287 7.51836
C 6.55092 6.03652 6.89806
H 8.4655 10.1062 7.88201
H 9.39625 8.52319 8.45773
H 6.59956 8.77529 7.15455
H 8.36943 6.23698 7.98672
H 5.64476 6.4848 6.4247
H 6.70364 4.92096 6.82522
10
 Atoms. Timestep: 1400
C 8.4976 8.9933 8.01306
C 7.45978 8.22178 7.59324
C 7.47902 6.75773 7.50993
C 6.54445 6.02641 6.89667
H 8.49004 10.0996 8.02505
H 9.42947 8.69331 8.4761
H 6.66053 8.74596 7.21
H 8.29184 6.20968 7.90378
H 5.68495 6.5212 6.42771
H 6.68199 4.95497 6.76896
10
 Atoms. Timestep: 1420
C 8.48643 8.99283 8.06443
C 7.51944 8.20037 7.56178
C 7.49535 6.78107 7.51399
C 6.54044 6.05353 6.87828
H 8.31334 10.0274 8.06371
H 9.42418 8.57134 8.41474
H 6.50549 8.6855 7.19875
H 8.37837 6.26887 7.9165
H 5.68532 6.49441 6.41844
H 6.5673 5.00567 6.76603
10
 Atoms. Timestep: 1440
C 8.45494 8.9745 8.09573
C 7.51565 8.21694 7.54625
C 7.53577 6.75464 7.47927
C 6.53972 6.08482 6.86574
H 8.24744 10.0712 8.15766
H 9.41182 8.47002 8.37864
H 6.54987 8.63703 7.20134
H 8.44572 6.28655 7.96622
H 5.65789 6.60479 6.41649
H 6.53476 4.96504 6.84676
10
 Atoms. Timestep: 1460
C 8.43608 8.97829 8.10969
C 7.46536 8.19604 7.54636
C 7.56422 6.75268 7.41385
C 6.5545 6.07499 6.8764
H 8.42184 10.0839 8.32362
H 9.38216 8.58621 8.46264
H 6.62395 8.68369 7.18452
H 8.3469 6.20935 7.89961
H 5.74153 6.68163 6.46301
H 6.48667 4.96325 6.8778
10
 Atoms. Timestep: 1480
C 8.44964 8.98903 8.14858
C 7.5066 8.23151 7.57639
C 7.5687 6.76471 7.3813
C 6.53042 6.0387 6.86383
H 8.35751 10.0275 8.29057
H 9.33598 8.54543 8.56129
H 6.53421 8.73074 7.11756
H 8.39802 6.19803 7.8138
H 5.71344 6.58856 6.45932
H 6.45264 4.98607 6.82587
10
 Atoms. Timestep: 1500
C 8.44381 8.95328 8.18964
C 7.52596 8.21679 7.54893
C 7.54091 6.78351 7.39059
C 6.53626 6.08633 6.85954
H 8.24137 10.0255 8.20213
H 9.32601 8.42895 8.65807
H 6.61814 8.71318 7.1774
H 8.51209 6.31642 7.69558
H 5.57625 6.49368 6.4504
H 6.56846 5.00286 6.77323
10
 Atoms. Timestep: 1520
C 8.42518 8.90871 8.21867
C 7.51279 8.21279 7.53172
C 7.52785 6.80424 7.38494
C 6.52693 6.08784 6.8425
H 8.35375 10.0472 8.27008
H 9.30826 8.52317 8.73299
H 6.70477 8.72912 7.15901
H 8.47578 6.32247 7.59558
H 5.54135 6.53416 6.55874
H 6.7836 4.98236 6.70561
10
 Atoms. Timestep: 1540
C 8.44478 8.94097 8.25888
C 7.50127 8.2586 7.57036
C 7.52128 6.78556 7.33077
C 6.54121 6.04136 6.83218
H 8.4331 10.0085 8.37982
H 9.27016 8.48843 8.75146
H 6.62707 8.85147 6.98962
H 8.42627 6.24017 7.58327
H 5.61061 6.4638 6.65116
H 6.7056 5.00869 6.58051
10
 Atoms. Timestep: 1560
C 8.41224 8.9199 8.26927
C 7.48269 8.26297 7.57418
C 7.57397 6.83426 7.31455
C 6.55955 6.04504 6.82459
H 8.40158 9.96763 8.42834
H 9.22035 8.28405 8.73788
H 6.72382 8.84803 7.05016
H 8.50899 6.29722 7.6035
H 5.51868 6.4318 6.6203
H 6.57988 5.01824 6.55334
10
 Atoms. Timestep: 1580
C 8.40011 8.86661 8.30833
C 7.47146 8.24873 7.53443
C 7.56799 6.81629 7.29474
C 6.56355 6.09882 6.80953
H 8.38264 9.97444 8.50032
H 9.20913 8.24183 8.74374
H 6.67922 8.78101 7.14123
H 8.574 6.48059 7.55636
H 5.56574 6.57883 6.58316
H 6.69465 4.98063 6.68207
10
 Atoms. Timestep: 1600
C 8.40861 8.85848 8.35179
C 7.50891 8.26217 7.54168
C 7.5556 6.83687 7.26599
C 6.54463 6.07352 6.76827
H 8.38019 9.93162 8.61956
H 9.22718 8.35751 8.76369
H 6.46965 8.78705 7.18043
H 8.5305 6.37735 7.47422
H 5.69338 6.60559 6.52638
H 6.71659 4.97458 6.7583
10
 Atoms. Timestep: 1620
C 8.39832 8.88829 8.36667
C 7.50281 8.25873 7.58717
C 7.57512 6.85163 7.2222
C 6.5801 6.07631 6.76241
H 8.27763 9.88247 8.69885
H 9.31251 8.34745 8.75097
H 6.61954 8.82805 7.2789
H 8.431 6.22747 7.48359
H 5.58003 6.4534 6.39517
H 6.56519 5.03134 6.65081
10
 Atoms. Timestep: 1640
C 8.40124 8.88535 8.38217
C 7.49992 8.23721 7.62856
C 7.58356 6.81635 7.20777
C 6.55185 6.11931 6.71897
H 8.17078 9.90006 8.72597
H 9.34666 8.3583 8.70688
H 6.69847 8.80921 7.32409
H 8.49649 6.31234 7.58076
H 5.50988 6.47511 6.38079
H 6.68235 5.0157 6.54574
10
 Atoms. Timestep: 1660
C 8.39665 8.82675 8.39052
C 7.50416 8.18517 7.63734
C 7.55862 6.83312 7.26394
C 6.55459 6.15131 6.66408
H 8.22043 9.88545 8.69973
H 9.31055 8.46911 8.72204
H 6.4873 8.77189 7.28393
H 8.52427 6.36666 7.51027
H 5.67668 6.65419 6.4911
H 6.82064 5.09458 6.44669
10
 Atoms. Timestep: 1680
C 8.39665 8.85389 8.41395
C 7.45051 8.20908 7.66328
C 7.5625 6.807 7.30628
C 6.62005 6.14969 6.61819
H 8.26623 9.9108 8.64578
H 9.35013 8.36762 8.75426
H 6.50066 8.66462 7.37137
H 8.50633 6.29473 7.40107
H 5.66705 6.71646 6.47098
H 6.65534 5.14784 6.23535
10
 Atoms. Timestep: 1700
C 8.37255 8.89358 8.40018
C 7.43817 8.20794 7.75516
C 7.60382 6.76445 7.2887
C 6.62022 6.16742 6.57684
H 8.32276 9.91746 8.65134
H 9.25676 8.26708 8.71733
H 6.57098 8.70219 7.47736
H 8.57826 6.26257 7.47633
H 5.60212 6.67748 6.3505
H 6.58456 5.19291 6.09087
10
 Atoms. Timestep: 1720
C 8.38605 8.85875 8.4004
C 7.42819 8.10771 7.79308
C 7.58735 6.79693 7.26007
C 6.60314 6.22108 6.54266
H 8.33654 9.92772 8.69751
H 9.28486 8.38553 8.7013
H 6.42783 8.7494 7.47411
H 8.52078 6.29652 7.56991
H 5.73764 6.74231 6.35079
H 6.78798 5.21175 6.11812
10
 Atoms. Timestep: 1740
C 8.41098 8.80166 8.43273
C 7.42322 8.16086 7.80728
C 7.54435 6.82674 7.27328
C 6.63546 6.22345 6.49275
H 8.17206 9.86906 8.69382
H 9.42391 8.46266 8.65796
H 6.43516 8.52426 7.56993
H 8.43359 6.2753 7.52491
H 5.72399 6.80646 6.26742
H 6.85129 5.20595 6.13872
10
 Atoms. Timestep: 1760
C 8.40242 8.8321 8.47894
C 7.42594 8.16569 7.80142
C 7.53365 6.8076 7.29024
C 6.66721 6.2296 6.45347
H 8.14255 9.8064 8.81333
H 9.46434 8.42792 8.54032
H 6.48241 8.63593 7.7599
H 8.45591 6.23742 7.49382
H 5.66475 6.67414 6.05303
H 6.73876 5.22829 6.08408
10
 Atoms. Timestep: 1780
C 8.36987 8.8275 8.45787
C 7.43704 8.139 7.83361
C 7.54286 6.80062 7.266
C 6.64868 6.24229 6.41681
H 8.27022 9.76297 8.99675
H 9.36672 8.44898 8.51887
H 6.43303 8.78448 7.86921
H 8.46463 6.24965 7.56016
H 5.7895 6.69938 6.03843
H 6.80924 5.21804 6.05988
10
 Atoms. Timestep: 1800
C 8.4174 8.79273 8.45204
C 7.36231 8.15412 7.87427
C 7.54241 6.8395 7.23811
C 6.67337 6.25011 6.41056
H 8.2575 9.76247 9.06893
H 9.40733 8.36532 8.52729
H 6.34627 8.51839 7.74753
H 8.38823 6.27877 7.5849
H 5.83133 6.85145 6.08537
H 6.92037 5.2248 6.02514
10
 Atoms. Timestep: 1820
C 8.39529 8.76172 8.48623
C 7.34259 8.14454 7.87808
C 7.55331 6.87438 7.26116
C 6.72032 6.27776 6.39765
H 8.26724 9.7077 8.94298
H 9.38938 8.24309 8.47713
H 6.34345 8.4764 7.77358
H 8.44688 6.30205 7.5602
H 5.75048 6.8227 6.05457
H 6.85743 5.31755 5.94185
10
 Atoms. Timestep: 1840
C 8.35683 8.77705 8.552
C 7.38329 8.1368 7.88897
C 7.55533 6.8168 7.25312
C 6.68893 6.27897 6.32666
H 8.34816 9.75993 8.91565
H 9.31865 8.24934 8.50318
H 6.35259 8.71959 7.90817
H 8.55966 6.37359 7.48884
H 5.75596 6.72883 6.08048
H 6.88271 5.33101 5.86819
10
 Atoms. Timestep: 1860
C 8.36753 8.73855 8.55576
C 7.36145 8.13444 7.91306
C 7.5314 6.82078 7.21524
C 6.70451 6.29354 6.33381
H 8.3133 9.81335 8.98053
H 9.35923 8.33899 8.68546
H 6.44006 8.69375 7.83961
H 8.4839 6.36158 7.34306
H 5.76206 6.73829 6.13077
H 6.97617 5.35019 5.80234
10
 Atoms. Timestep: 1880
C 8.39493 8.7157 8.55508
C 7.36674 8.10607 7.91495
C 7.54572 6.90149 7.21091
C 6.70101 6.30498 6.34717
H 8.10657 9.68602 9.02385
H 9.3838 8.30406 8.81073
H 6.4271 8.55157 7.71194
H 8.489 6.33553 7.31333
H 5.65267 6.76251 6.10657
H 7.01446 5.41095 5.75397
10
 Atoms. Timestep: 1900
C 8.34879 8.73977 8.61879
C 7.42682 8.09904 7.89318
C 7.58063 6.85914 7.15321
C 6.66369 6.33219 6.33289
H 8.09842 9.61353 9.09594
H 9.31298 8.22298 8.77181
H 6.35918 8.58871 7.74505
H 8.59568 6.41673 7.37168
H 5.69011 6.71558 6.11045
H 6.94809 5.48169 5.80561
10
 Atoms. Timestep: 1920
C 8.28661 8.70647 8.6765
C 7.41015 8.11541 7.83616
C 7.63909 6.85857 7.14307
C 6.67358 6.33792 6.31355
H 8.18777 9.6754 9.25123
H 9.28871 8.28012 8.75499
H 6.46343 8.61442 7.84986
H 8.58021 6.36246 7.23497
H 5.71987 6.80966 6.199
H 6.82747 5.36772 5.78326
10
 Atoms. Timestep: 1940
C 8.29279 8.65021 8.70355
C 7.39314 8.15101 7.84824
C 7.63728 6.88261 7.08989
C 6.72591 6.34075 6.33312
H 8.07866 9.60341 9.2871
H 9.30535 8.30194 8.79932
H 6.39932 8.53995 7.71581
H 8.58137 6.33795 7.15165
H 5.75734 6.93745 6.29164
H 6.70731 5.35182 5.79467
10
 Atoms. Timestep: 1960
C 8.29696 8.66309 8.73059
C 7.42651 8.1 7.85827
C 7.66982 6.92882 7.06175
C 6.6606 6.34875 6.32128
H 7.95365 9.47306 9.30062
H 9.30262 8.19965 8.86148
H 6.36053 8.53947 7.60061
H 8.70119 6.45444 7.23185
H 5.72371 6.89981 6.24859
H 6.75899 5.40958 5.81454
10
 Atoms. Timestep: 1980
C 8.25956 8.65374 8.73725
C 7.44853 8.07243 7.83426
C 7.67531 6.91785 7.03583
C 6.65458 6.38323 6.32837
H 7.97359 9.46575 9.37715
H 9.22102 8.18341 8.98319
H 6.53419 8.60148 7.75381
H 8.65026 6.52858 7.15365
H 5.67985 6.78716 6.20795
H 6.83722 5.49014 5.79893
10
 Atoms. Timestep: 2000
C 8.27934 8.61637 8.79479
C 7.44731 8.15089 7.85729
C 7.63929 6.91574 7.02887
C 6.68779 6.35789 6.28382
H 7.96333 9.56008 9.38364
H 9.22876 8.20327 9.08175
H 6.47894 8.61149 7.76029
H 8.61101 6.40365 6.94046
H 5.61616 6.7741 6.28149
H 6.90338 5.42205 5.65277
10
 Atoms. Timestep: 2020
C 8.26164 8.57121 8.81731
C 7.44212 8.14086 7.85985
C 7.62654 6.95716 7.03887
C 6.71154 6.37295 6.28499
H 8.01373 9.49004 9.31542
H 9.24251 8.15393 9.06725
H 6.39634 8.64552 7.66244
H 8.64492 6.44527 6.91009
H 5.68387 6.69467 6.30543
H 6.89156 5.53748 5.62229
10
 Atoms. Timestep: 2040
C 8.24305 8.57061 8.82209
C 7.40254 8.08461 7.85741
C 7.68182 6.97132 7.0215
C 6.67169 6.38609 6.27159
H 8.05529 9.44811 9.38858
H 9.20201 8.0038 8.97056
H 6.54919 8.68433 7.66686
H 8.7093 6.70757 7.10719
H 5.65553 6.70663 6.2948
H 6.95808 5.59374 5.62543
10
 Atoms. Timestep: 2060
C 8.25546 8.54419 8.81367
C 7.36968 8.12783 7.90411
C 7.66558 6.97227 6.99603
C 6.72593 6.38529 6.25258
H 8.0802 9.39809 9.49268
H 9.14216 7.96792 8.97092
H 6.4837 8.68349 7.68312
H 8.71591 6.67646 7.06649
H 5.66069 6.78188 6.30398
H 6.94146 5.53466 5.57348
10
 Atoms. Timestep: 2080
C 8.26699 8.51769 8.8378
C 7.36832 8.15049 7.88644
C 7.62902 7.01977 7.02643
C 6.77767 6.38794 6.22138
H 8.08701 9.36493 9.55761
H 9.19634 7.9759 9.0103
H 6.29206 8.65173 7.78347
H 8.6476 6.49473 6.8996
H 5.7556 6.77466 6.23651
H 6.89339 5.50269 5.5692
10
 Atoms. Timestep: 2100
C 8.23877 8.51007 8.86151
C 7.39935 8.14326 7.89835
C 7.64483 6.99955 6.99955
C 6.71578 6.42056 6.18651
H 8.04773 9.29943 9.54535
H 9.23173 8.00554 8.94667
H 6.42021 8.55267 7.90971
H 8.65959 6.63002 7.07813
H 5.71729 6.74578 6.08501
H 7.05509 5.5459 5.64865
10
 Atoms. Timestep: 2120
C 8.25688 8.49598 8.87277
C 7.3864 8.07825 7.90666
C 7.64122 7.01687 6.99095