LAMMPS (2 Aug 2023 - Update 2)
#13 Butadiene
units           metal
boundary        p p p
atom_style      atomic

neighbor        2.0 bin
neigh_modify    delay 0 every 1 check yes

read_data       restart.lmp
Reading data file ...
  orthogonal box = (0 0 0) to (15 15 15)
  1 by 2 by 2 MPI processor grid
  reading atoms ...
  10 atoms
  reading velocities ...
  10 velocities
  read_data CPU = 0.004 seconds
mass            1 12.0
mass            2 2

variable        sysvol          equal vol
variable        sysmass         equal mass(all)/6.0221367e+23
variable        sysdensity      equal v_sysmass/v_sysvol/1.0e-24
variable	out_freq 	equal 100

pair_style      deepmd ../files/frozen_model_1_compressed.pb ../files/frozen_model_2_compressed.pb ../files/frozen_model_3_compressed.pb ../files/frozen_model_3_compressed.pb out_file md.out out_freq 10 atomic relative 1.0
Summary of lammps deepmd module ...
  >>> Info of deepmd-kit:
  installed to:       /rs1/researchers/w/wjpfaend/rahul/MLP/DeePMD-kit/deepmd_cpu
  source:             v2.2.8-dirty
  source branch:      master
  source commit:      b875ea8
  source commit at:   2024-01-22 22:28:58 -0500
  support model ver.: 1.1 
  build variant:      cpu
  build with tf inc:  /rs1/researchers/w/wjpfaend/rahul/MLP/DeePMD-kit/tensorflow/lib/python3.11/site-packages/tensorflow/include;/rs1/researchers/w/wjpfaend/rahul/MLP/DeePMD-kit/tensorflow/lib/python3.11/site-packages/tensorflow/include
  build with tf lib:  /rs1/researchers/w/wjpfaend/rahul/MLP/DeePMD-kit/tensorflow/lib/python3.11/site-packages/tensorflow/libtensorflow_cc.so.2
  set tf intra_op_parallelism_threads: 0
  set tf inter_op_parallelism_threads: 0
  >>> Info of lammps module:
  use deepmd-kit at:  /rs1/researchers/w/wjpfaend/rahul/MLP/DeePMD-kit/deepmd_cpu
  source:             v2.2.8-dirty
  source branch:      master
  source commit:      b875ea8
  source commit at:   2024-01-22 22:28:58 -0500
  build float prec:   double
  build with tf inc:  /rs1/researchers/w/wjpfaend/rahul/MLP/DeePMD-kit/tensorflow/lib/python3.11/site-packages/tensorflow/include;/rs1/researchers/w/wjpfaend/rahul/MLP/DeePMD-kit/tensorflow/lib/python3.11/site-packages/tensorflow/include
  build with tf lib:  /rs1/researchers/w/wjpfaend/rahul/MLP/DeePMD-kit/tensorflow/lib/python3.11/site-packages/tensorflow/libtensorflow_cc.so.2
pair_coeff	* *

#
velocity        all create 300.0 2345678 rot no dist gaussian
fix             1 all nvt temp 300.0 300.0 0.05
fix             2 all plumed plumedfile plumed.dat outfile PLUMED.log

timestep        0.0005
thermo_style    custom step pe ke etotal v_sysdensity temp press vol
thermo          10

dump            10 all custom 100 btd.dump id type x y z
dump		101 all xyz 20 btd.xyz
dump_modify	101 element C H

fix		extra all print 20 "$(step), $(ke), $(pe), $(etotal), $(temp), $(press), $(vol)" file logfile screen no

restart	        20000 dump.restart

run             50000

CITE-CITE-CITE-CITE-CITE-CITE-CITE-CITE-CITE-CITE-CITE-CITE-CITE

Your simulation uses code contributions which should be cited:

- USER-DEEPMD package:

@article{Wang_ComputPhysCommun_2018_v228_p178,
  author = {Wang, Han and Zhang, Linfeng and Han, Jiequn and E, Weinan},
  doi = {10.1016/j.cpc.2018.03.016},
  url = {https://doi.org/10.1016/j.cpc.2018.03.016},
  year = 2018,
  month = {jul},
  publisher = {Elsevier {BV}},
  volume = 228,
  journal = {Comput. Phys. Commun.},
  title = {{DeePMD-kit: A deep learning package for many-body potential energy representation and molecular dynamics}},
  pages = {178--184}
}
@misc{Zeng_JChemPhys_2023_v159_p054801,
  title  = {{DeePMD-kit v2: A software package for deep potential models}},
  author =   {Jinzhe Zeng and Duo Zhang and Denghui Lu and Pinghui Mo and Zeyu Li
         and Yixiao Chen and Mari{\'a}n Rynik and Li'ang Huang and Ziyao Li and 
         Shaochen Shi and Yingze Wang and Haotian Ye and Ping Tuo and Jiabin
         Yang and Ye Ding and Yifan Li and Davide Tisi and Qiyu Zeng and Han 
         Bao and Yu Xia and Jiameng Huang and Koki Muraoka and Yibo Wang and 
         Junhan Chang and Fengbo Yuan and Sigbj{\o}rn L{\o}land Bore and Chun
         Cai and Yinnian Lin and Bo Wang and Jiayan Xu and Jia-Xin Zhu and 
         Chenxing Luo and Yuzhi Zhang and Rhys E A Goodall and Wenshuo Liang
         and Anurag Kumar Singh and Sikai Yao and Jingchao Zhang and Renata
         Wentzcovitch and Jiequn Han and Jie Liu and Weile Jia and Darrin M
         York and Weinan E and Roberto Car and Linfeng Zhang and Han Wang},
  journal =  {J. Chem. Phys.},
  volume =   159,
  issue =    5,  
  year =    2023,
  pages  =   054801,
  doi =      {10.1063/5.0155600},
}

CITE-CITE-CITE-CITE-CITE-CITE-CITE-CITE-CITE-CITE-CITE-CITE-CITE

Generated 0 of 1 mixed pair_coeff terms from geometric mixing rule
Neighbor list info ...
  update: every = 1 steps, delay = 0 steps, check = yes
  max neighbors/atom: 2000, page size: 100000
  master list distance cutoff = 8
  ghost atom cutoff = 8
  binsize = 4, bins = 4 4 4
  1 neighbor lists, perpetual/occasional/extra = 1 0 0
  (1) pair deepmd, perpetual
      attributes: full, newton on
      pair build: full/bin/atomonly
      stencil: full/bin/3d
      bin: standard
Per MPI rank memory allocation (min/avg/max) = 3.09 | 3.09 | 3.09 Mbytes
   Step         PotEng         KinEng         TotEng      v_sysdensity       Temp          Press          Volume    
         0  -56.504744      0.34900239    -56.155741      0.029520714    300            1995.6507      3375         
        10  -56.643461      0.62231324    -56.021148      0.029520714    534.93608      2032.4712      3375         
        20  -56.685597      0.63435038    -56.051246      0.029520714    545.28313     -1425.8683      3375         
        30  -56.336823      0.28647034    -56.050352      0.029520714    246.24788     -2155.7572      3375         
        40  -56.753161      0.68235682    -56.070804      0.029520714    586.54912      154.78212      3375         
        50  -56.735999      0.64292943    -56.093069      0.029520714    552.65762      1622.5801      3375         
        60  -56.399268      0.29585699    -56.103411      0.029520714    254.31659      219.97377      3375         
        70  -56.70418       0.55640038    -56.14778       0.029520714    478.27786     -1100.5095      3375         
        80  -56.679709      0.52133284    -56.158376      0.029520714    448.13404      232.53678      3375         
        90  -56.564543      0.37462348    -56.189919      0.029520714    322.0237       543.00142      3375         
       100  -56.658756      0.42669854    -56.232058      0.029520714    366.78706     -797.9029       3375         
       110  -56.736519      0.47977105    -56.256748      0.029520714    412.40782     -31.90818       3375         
       120  -56.628683      0.34741636    -56.281267      0.029520714    298.63666      1051.8671      3375         
       130  -56.631313      0.31567996    -56.315633      0.029520714    271.35627     -466.69623      3375         
       140  -56.666541      0.34375583    -56.322785      0.029520714    295.49009     -1495.8319      3375         
       150  -56.719227      0.36924343    -56.349984      0.029520714    317.39905      609.91787      3375         
       160  -56.649309      0.29568638    -56.353623      0.029520714    254.16993      2436.2611      3375         
       170  -56.762383      0.39762209    -56.364761      0.029520714    341.79315      311.57465      3375         
       180  -56.637047      0.24868827    -56.388358      0.029520714    213.77069     -2459.1507      3375         
       190  -56.705972      0.33905228    -56.36692       0.029520714    291.44695     -1268.4935      3375         
       200  -56.732984      0.34368671    -56.389297      0.029520714    295.43068      1154.2944      3375         
       210  -56.685529      0.30000784    -56.385521      0.029520714    257.88462      733.8783       3375         
       220  -56.712696      0.3215228     -56.391173      0.029520714    276.37873     -274.76793      3375         
       230  -56.713536      0.32032049    -56.393216      0.029520714    275.34524      354.11581      3375         
       240  -56.669386      0.27748969    -56.391896      0.029520714    238.52819      423.14911      3375         
       250  -56.729504      0.33624534    -56.393259      0.029520714    289.03413     -742.14937      3375         
       260  -56.627483      0.23633494    -56.391148      0.029520714    203.15185     -727.66974      3375         
       270  -56.720047      0.33015351    -56.389894      0.029520714    283.79764      754.51132      3375         
       280  -56.784831      0.39980782    -56.385023      0.029520714    343.67199      737.17446      3375         
       290  -56.679573      0.29174041    -56.387832      0.029520714    250.778       -1229.9642      3375         
       300  -56.670535      0.29339661    -56.377138      0.029520714    252.20166     -611.51771      3375         
       310  -56.700861      0.31828466    -56.382577      0.029520714    273.59525      2061.8131      3375         
       320  -56.751314      0.3811913     -56.370123      0.029520714    327.66936      1189.181       3375         
       330  -56.696295      0.31759944    -56.378696      0.029520714    273.00624     -1905.0662      3375         
       340  -56.641208      0.28295855    -56.35825       0.029520714    243.22918     -2135.7127      3375         
       350  -56.753425      0.39323223    -56.360193      0.029520714    338.01965      317.51003      3375         
       360  -56.737295      0.37707539    -56.36022       0.029520714    324.13135      1605.8112      3375         
       370  -56.626051      0.28199053    -56.34406       0.029520714    242.39708      702.20322      3375         
       380  -56.727343      0.38192933    -56.345414      0.029520714    328.30377     -37.190964      3375         
       390  -56.605447      0.26567666    -56.33977       0.029520714    228.37379      727.82604      3375         
       400  -56.708303      0.37064014    -56.337663      0.029520714    318.59965     -782.15108      3375         
       410  -56.698346      0.38050892    -56.317837      0.029520714    327.08279     -2166.6245      3375         
       420  -56.599431      0.28171002    -56.317721      0.029520714    242.15595      380.40773      3375         
       430  -56.671785      0.37100766    -56.300778      0.029520714    318.91557      1930.2503      3375         
       440  -56.737501      0.44464139    -56.29286       0.029520714    382.21061     -280.91869      3375         
       450  -56.524526      0.24748965    -56.277036      0.029520714    212.74036     -1317.9537      3375         
       460  -56.740489      0.47707326    -56.263415      0.029520714    410.08882      617.97625      3375         
       470  -56.676479      0.43032327    -56.246156      0.029520714    369.90285      1678.4986      3375         
       480  -56.584403      0.36225809    -56.222145      0.029520714    311.3945      -460.52333      3375         
       490  -56.507112      0.29349598    -56.213616      0.029520714    252.28708     -2631.698       3375         
       500  -56.726901      0.54936929    -56.177532      0.029520714    472.23398     -453.71177      3375         
       510  -56.633856      0.47855251    -56.155303      0.029520714    411.36037      2313.9745      3375         
       520  -56.448644      0.32767553    -56.120969      0.029520714    281.66758      948.37287      3375         
       530  -56.657102      0.55124883    -56.105853      0.029520714    473.84961     -165.73828      3375         
       540  -56.733952      0.6624948     -56.071457      0.029520714    569.47587      680.29212      3375         
       550  -56.357732      0.29053646    -56.067196      0.029520714    249.7431      -1018.9663      3375         
       560  -56.454945      0.43255437    -56.022391      0.029520714    371.82069     -2880.5624      3375         
       570  -56.667657      0.65256557    -56.015092      0.029520714    560.94078     -302.0751       3375         
       580  -56.491051      0.4837086     -56.007342      0.029520714    415.79251      2710.4283      3375         
       590  -56.515828      0.52874522    -55.987083      0.029520714    454.50567      1514.9163      3375         
       600  -56.493143      0.49520848    -55.997935      0.029520714    425.67773     -1479.8779      3375         
       610  -56.622963      0.63871194    -55.984251      0.029520714    549.03229     -1081.0969      3375         
       620  -56.429851      0.40817694    -56.021674      0.029520714    350.86602      1458.4204      3375         
       630  -56.473747      0.46617822    -56.007569      0.029520714    400.72352      860.65504      3375         
       640  -56.603174      0.56389316    -56.039281      0.029520714    484.71859     -2003.4876      3375         
       650  -56.490168      0.4237675     -56.066401      0.029520714    364.26756     -1191.2947      3375         
       660  -56.490119      0.39533828    -56.094781      0.029520714    339.83         1544.9054      3375         
       670  -56.678632      0.54348459    -56.135148      0.029520714    467.17553      1009.5482      3375         
       680  -56.538821      0.36770324    -56.171117      0.029520714    316.07512     -25.384655      3375         
       690  -56.661312      0.44195007    -56.219361      0.029520714    379.89717      159.34074      3375         
       700  -56.657752      0.40006867    -56.257684      0.029520714    343.89621     -704.64007      3375         
       710  -56.714338      0.41794145    -56.296396      0.029520714    359.25953     -1753.9842      3375         
       720  -56.618005      0.2986402     -56.319365      0.029520714    256.70902     -581.99843      3375         
       730  -56.65037       0.28551888    -56.364851      0.029520714    245.43002      1841.4801      3375         
       740  -56.793003      0.44809541    -56.344907      0.029520714    385.17966      2065.6563      3375         
       750  -56.693313      0.30614603    -56.387167      0.029520714    263.16097     -564.79415      3375         
       760  -56.63431       0.25002717    -56.384283      0.029520714    214.9216      -1882.3417      3375         
       770  -56.836997      0.43692924    -56.400068      0.029520714    375.5813       122.36621      3375         
       780  -56.705273      0.2975931     -56.40768       0.029520714    255.80893      1086.454       3375         
       790  -56.659303      0.24580254    -56.4135        0.029520714    211.29013     -632.81398      3375         
       800  -56.764986      0.34461287    -56.420373      0.029520714    296.2268      -874.19319      3375         
       810  -56.700523      0.28271493    -56.417808      0.029520714    243.01977      558.21098      3375         
       820  -56.72574       0.30169671    -56.424043      0.029520714    259.33637      498.49056      3375         
       830  -56.722655      0.29950493    -56.42315       0.029520714    257.45233      167.22858      3375         
       840  -56.773609      0.34858125    -56.425027      0.029520714    299.63799      380.13279      3375         
       850  -56.728179      0.30456803    -56.423611      0.029520714    261.80453     -239.24007      3375         
       860  -56.665486      0.23742029    -56.428066      0.029520714    204.08481     -1135.239       3375         
       870  -56.750758      0.33299531    -56.417762      0.029520714    286.24043     -709.66523      3375         
       880  -56.748984      0.32413367    -56.424851      0.029520714    278.62302      737.53279      3375         
       890  -56.652678      0.23912368    -56.413554      0.029520714    205.54903      2041.0526      3375         
       900  -56.741938      0.3336341     -56.408304      0.029520714    286.78953      451.48425      3375         
       910  -56.665061      0.25366663    -56.411394      0.029520714    218.05005     -2107.3106      3375         
       920  -56.745469      0.3542739     -56.391195      0.029520714    304.53135     -921.16895      3375         
       930  -56.708778      0.31981117    -56.388967      0.029520714    274.90743      851.36135      3375         
       940  -56.628096      0.24941566    -56.378681      0.029520714    214.39595      205.82322      3375         
       950  -56.812258      0.44367528    -56.368583      0.029520714    381.38015      162.28084      3375         
       960  -56.687332      0.33310779    -56.354224      0.029520714    286.33711     -38.353221      3375         
       970  -56.563573      0.22086184    -56.342712      0.029520714    189.85129     -560.65749      3375         
       980  -56.733142      0.40122408    -56.331918      0.029520714    344.88939      558.97538      3375         
       990  -56.701751      0.39060038    -56.31115       0.029520714    335.75734      776.26666      3375         
      1000  -56.684039      0.38995997    -56.294079      0.029520714    335.20685     -64.572533      3375         
      1010  -56.651063      0.37468126    -56.276382      0.029520714    322.07337     -245.06582      3375         
      1020  -56.661305      0.39469152    -56.266614      0.029520714    339.27405     -1434.8629      3375         
      1030  -56.660599      0.42372338    -56.236876      0.029520714    364.22963     -564.53963      3375         
      1040  -56.60121       0.37272891    -56.228481      0.029520714    320.39515      2102.369       3375         
      1050  -56.696119      0.48781115    -56.208308      0.029520714    419.31903      970.58021      3375         
      1060  -56.507468      0.30978496    -56.197683      0.029520714    266.28897     -1482.1308      3375         
      1070  -56.588719      0.40961189    -56.179108      0.029520714    352.0995      -939.37588      3375         
      1080  -56.795395      0.63053706    -56.164858      0.029520714    542.00522      37.991016      3375         
      1090  -56.478043      0.31964452    -56.158399      0.029520714    274.76418      665.40679      3375         
      1100  -56.461901      0.32614681    -56.135754      0.029520714    280.3535       1119.2139      3375         
      1110  -56.818603      0.68492203    -56.133681      0.029520714    588.75415     -694.85612      3375         
      1120  -56.491187      0.37097215    -56.120215      0.029520714    318.88505     -1091.1006      3375         
      1130  -56.381149      0.26632496    -56.114824      0.029520714    228.93107      702.30388      3375         
      1140  -56.697673      0.58741189    -56.110261      0.029520714    504.93512      464.46094      3375         
      1150  -56.571816      0.46550617    -56.10631       0.029520714    400.14583      139.85088      3375         
      1160  -56.478696      0.37482645    -56.10387       0.029520714    322.19818      645.69208      3375         
      1170  -56.572047      0.46637086    -56.105676      0.029520714    400.88911     -1446.7296      3375         
      1180  -56.627737      0.52649037    -56.101247      0.029520714    452.56742     -1518.8189      3375         
      1190  -56.567559      0.44999888    -56.11756       0.029520714    386.81587      1076.1528      3375         
      1200  -56.564134      0.43056494    -56.133569      0.029520714    370.11059      1045.0858      3375         
      1210  -56.552832      0.4092294     -56.143603      0.029520714    351.77071      289.15269      3375         
      1220  -56.609634      0.42914639    -56.180488      0.029520714    368.89122      35.500813      3375         
      1230  -56.666346      0.46276869    -56.203577      0.029520714    397.79271     -877.874        3375         
      1240  -56.582015      0.3475176     -56.234498      0.029520714    298.72369     -29.641733      3375         
      1250  -56.68727       0.40674548    -56.280524      0.029520714    349.63555      830.25096      3375         
      1260  -56.787829      0.46953846    -56.318291      0.029520714    403.61195     -480.59625      3375         
      1270  -56.624388      0.2777936     -56.346595      0.029520714    238.78943     -533.97161      3375         
      1280  -56.662201      0.28295932    -56.379242      0.029520714    243.22984      452.28005      3375         
      1290  -56.81679       0.41299618    -56.403793      0.029520714    355.00861     -176.1129       3375         
      1300  -56.610147      0.19340758    -56.416739      0.029520714    166.25179      130.56029      3375         
      1310  -56.685861      0.25273312    -56.433128      0.029520714    217.24761      1069.6579      3375         
      1320  -56.813866      0.36609906    -56.447767      0.029520714    314.69618     -496.41782      3375         
      1330  -56.674663      0.21561669    -56.459047      0.029520714    185.34259     -1642.0172      3375         
      1340  -56.738875      0.28028361    -56.458591      0.029520714    240.92982     -15.148641      3375         
      1350  -56.813059      0.33513636    -56.477923      0.029520714    288.08086      1059.3325      3375         
      1360  -56.664708      0.19652144    -56.468187      0.029520714    168.92844      817.26965      3375         
      1370  -56.744272      0.26743676    -56.476835      0.029520714    229.88675      356.27751      3375         
      1380  -56.814604      0.33564964    -56.478954      0.029520714    288.52207     -637.51403      3375         
      1390  -56.680154      0.19656917    -56.483584      0.029520714    168.96947     -688.86056      3375         
      1400  -56.722155      0.24791697    -56.474238      0.029520714    213.10768      10.82028       3375         
      1410  -56.806927      0.33110153    -56.475825      0.029520714    284.61255     -446.80273      3375         
      1420  -56.756683      0.28473932    -56.471943      0.029520714    244.75992     -17.505031      3375         
      1430  -56.711356      0.24203291    -56.469323      0.029520714    208.04978      1002.68        3375         
      1440  -56.786017      0.32630166    -56.459715      0.029520714    280.48661     -116.31543      3375         
      1450  -56.727199      0.27333669    -56.453863      0.029520714    234.95829     -383.34024      3375         
      1460  -56.709525      0.25981179    -56.449713      0.029520714    223.33239      893.07149      3375         
      1470  -56.748445      0.31504043    -56.433404      0.029520714    270.80654      116.09129      3375         
      1480  -56.701133      0.27186549    -56.429268      0.029520714    233.69366     -1137.566       3375         
      1490  -56.741541      0.33666973    -56.404872      0.029520714    289.39893     -700.47528      3375         
      1500  -56.832503      0.4379109     -56.394592      0.029520714    376.42513      151.91366      3375         
      1510  -56.629397      0.25053741    -56.378859      0.029520714    215.36019      1290.3577      3375         
      1520  -56.664383      0.30513416    -56.359249      0.029520714    262.29118      1099.5454      3375         
      1530  -56.811117      0.46097205    -56.350145      0.029520714    396.24833     -881.63576      3375         
      1540  -56.584826      0.26707235    -56.317753      0.029520714    229.57352     -1064.9169      3375         
      1550  -56.632931      0.3279698     -56.304961      0.029520714    281.92053     -182.91817      3375         
      1560  -56.732777      0.44328522    -56.289492      0.029520714    381.04486     -514.93467      3375         
      1570  -56.594073      0.32342038    -56.270652      0.029520714    278.00988      378.50763      3375         
      1580  -56.663511      0.41614127    -56.24737       0.029520714    357.7121       1241.3829      3375         
      1590  -56.654612      0.42485076    -56.229762      0.029520714    365.19872      238.21494      3375         
      1600  -56.48863       0.27332567    -56.215304      0.029520714    234.94882     -385.55016      3375         
      1610  -56.695218      0.49467015    -56.200548      0.029520714    425.21498      44.028619      3375         
      1620  -56.708401      0.51830721    -56.190094      0.029520714    445.53323     -45.098721      3375         
      1630  -56.377842      0.20129242    -56.176549      0.029520714    173.02955     -496.49525      3375         
      1640  -56.655031      0.48391792    -56.171114      0.029520714    415.97244     -777.79726      3375         
      1650  -56.772815      0.61090073    -56.161915      0.029520714    525.12597     -441.02747      3375         
      1660  -56.446031      0.28589084    -56.16014       0.029520714    245.74975      992.99158      3375         
      1670  -56.630105      0.47498617    -56.155118      0.029520714    408.29477      1531.5587      3375         
      1680  -56.833797      0.67357346    -56.160224      0.029520714    578.99901     -40.826774      3375         
      1690  -56.441572      0.27847466    -56.163097      0.029520714    239.37486     -1251.4201      3375         
      1700  -56.577322      0.40720723    -56.170115      0.029520714    350.03247     -772.46583      3375         
      1710  -56.781406      0.60212023    -56.179286      0.029520714    517.57831      193.38515      3375         
      1720  -56.508103      0.32461022    -56.183493      0.029520714    279.03267      229.49612      3375         
      1730  -56.649903      0.45248407    -56.197419      0.029520714    388.95213      350.66759      3375         
      1740  -56.759114      0.54987891    -56.209235      0.029520714    472.67204      810.26011      3375         
      1750  -56.573216      0.35441802    -56.218798      0.029520714    304.65523      124.9166       3375         
      1760  -56.67572       0.44278382    -56.232936      0.029520714    380.61386     -690.4721       3375         
      1770  -56.660347      0.41593626    -56.24441       0.029520714    357.53588     -497.52114      3375         
      1780  -56.582486      0.32963563    -56.25285       0.029520714    283.35247     -200.30763      3375         
      1790  -56.691328      0.43021261    -56.261115      0.029520714    369.80774      52.998873      3375         
      1800  -56.706505      0.43399029    -56.272515      0.029520714    373.055       -237.915        3375         
      1810  -56.555752      0.27738885    -56.278364      0.029520714    238.4415      -255.58483      3375         
      1820  -56.684751      0.39101469    -56.293736      0.029520714    336.11348      1313.7246      3375         
      1830  -56.742008      0.46559791    -56.27641       0.029520714    400.22469      1422.4877      3375         
      1840  -56.600327      0.29776611    -56.302561      0.029520714    255.95765     -1320.865       3375         
      1850  -56.627174      0.33659064    -56.290583      0.029520714    289.33095     -1384.0686      3375         
      1860  -56.755675      0.4556964     -56.299979      0.029520714    391.71342      295.26848      3375         
      1870  -56.63505       0.33252203    -56.302528      0.029520714    285.8336       22.559767      3375         
      1880  -56.6389        0.3300593     -56.308841      0.029520714    283.71666      281.97269      3375         
      1890  -56.738007      0.43099853    -56.307009      0.029520714    370.48331      704.76328      3375         
      1900  -56.613968      0.30470561    -56.309262      0.029520714    261.9228      -54.345566      3375         
      1910  -56.746587      0.43225601    -56.314331      0.029520714    371.56422     -254.18134      3375         
      1920  -56.772395      0.45242276    -56.319972      0.029520714    388.89942     -486.27955      3375         
      1930  -56.599761      0.28202542    -56.317735      0.029520714    242.42707     -336.37445      3375         
      1940  -56.654505      0.32682256    -56.327683      0.029520714    280.93437      824.96468      3375         
      1950  -56.756841      0.42541843    -56.331423      0.029520714    365.68669     -174.13999      3375         
      1960  -56.644486      0.3176138     -56.326872      0.029520714    273.01859     -1107.4258      3375         
      1970  -56.668721      0.32524052    -56.34348       0.029520714    279.57446      1175.6041      3375         
      1980  -56.696893      0.3644447     -56.332448      0.029520714    313.2741       1754.283       3375         
      1990  -56.756257      0.41369165    -56.342565      0.029520714    355.60643     -884.11375      3375         
      2000  -56.685355      0.33817827    -56.347176      0.029520714    290.69566     -1532.5195      3375         
      2010  -56.61429       0.26792379    -56.346366      0.029520714    230.3054      -453.63627      3375         
      2020  -56.699694      0.34999666    -56.349697      0.029520714    300.85467      236.01016      3375         
      2030  -56.800924      0.45261257    -56.348312      0.029520714    389.06258      598.50948      3375         
      2040  -56.643567      0.28953964    -56.354027      0.029520714    248.88624      296.76784      3375         
      2050  -56.573072      0.2147819     -56.35829       0.029520714    184.62501      105.8852       3375         
      2060  -56.815768      0.46311382    -56.352654      0.029520714    398.08938      338.69329      3375         
      2070  -56.729537      0.37183979    -56.357698      0.029520714    319.63086     -510.66849      3375         
      2080  -56.525309      0.16612421    -56.359184      0.029520714    142.7992      -615.08976      3375         
      2090  -56.812         0.45584714    -56.356152      0.029520714    391.843        764.09289      3375         
      2100  -56.820649      0.46139259    -56.359256      0.029520714    396.60982      115.46876      3375         
      2110  -56.50399       0.14751396    -56.356476      0.029520714    126.80196     -1325.1568      3375         
      2120  -56.738207      0.38014529    -56.358062      0.029520714    326.77022      471.28402      3375         
      2130  -56.833644      0.47523488    -56.35841       0.029520714    408.50856      1593.9543      3375         
      2140  -56.574636      0.22396763    -56.350668      0.029520714    192.521       -236.85402      3375         
      2150  -56.694091      0.33507564    -56.359015      0.029520714    288.02867     -1148.1365      3375         
      2160  -56.85063       0.50738977    -56.34324       0.029520714    436.14868     -616.07421      3375         
      2170  -56.652625      0.30702056    -56.345604      0.029520714    263.91271     -125.43167      3375         
      2180  -56.628255      0.28512086    -56.343134      0.029520714    245.08789      746.93783      3375         
      2190  -56.763808      0.42021884    -56.343589      0.029520714    361.21716      732.18034      3375         
      2200  -56.673369      0.34275427    -56.330615      0.029520714    294.62916      150.762        3375         
      2210  -56.637626      0.30692537    -56.330701      0.029520714    263.83089      302.05413      3375         
      2220  -56.750064      0.42502943    -56.325034      0.029520714    365.35231     -784.77693      3375         
      2230  -56.635114      0.31705981    -56.318055      0.029520714    272.54238     -1148.925       3375         
      2240  -56.651761      0.34170848    -56.310052      0.029520714    293.7302       923.79586      3375         
      2250  -56.709594      0.40616459    -56.303429      0.029520714    349.13622      565.64317      3375         
      2260  -56.618456      0.31980819    -56.298648      0.029520714    274.90487     -1247.5687      3375         
      2270  -56.675366      0.39272638    -56.282639      0.029520714    337.58484      78.593741      3375         
      2280  -56.656688      0.37686323    -56.279825      0.029520714    323.94898      1133.7968      3375         
      2290  -56.618232      0.3534009     -56.264831      0.029520714    303.78093      103.27009      3375         
      2300  -56.689169      0.43429905    -56.25487       0.029520714    373.32041     -276.46035      3375         
      2310  -56.608528      0.3629662     -56.245562      0.029520714    312.00319     -527.23733      3375         
      2320  -56.570301      0.33506719    -56.235234      0.029520714    288.0214      -626.0585       3375         
      2330  -56.798173      0.57471369    -56.223459      0.029520714    494.01984      509.51687      3375         
      2340  -56.642271      0.43325921    -56.209011      0.029520714    372.42657      395.60341      3375         
      2350  -56.538454      0.33546385    -56.202991      0.029520714    288.36236      176.66952      3375         
      2360  -56.684162      0.4896294     -56.194533      0.029520714    420.88199      963.1499       3375         
      2370  -56.686714      0.49350768    -56.193206      0.029520714    424.21573     -752.48497      3375         
      2380  -56.505545      0.32829726    -56.177247      0.029520714    282.20202     -1965.3883      3375         
      2390  -56.619426      0.43847183    -56.180954      0.029520714    376.9073       767.24767      3375         
      2400  -56.790448      0.61792612    -56.172522      0.029520714    531.16494      932.57823      3375         
      2410  -56.60364       0.42688735    -56.176753      0.029520714    366.94936     -676.60463      3375         
      2420  -56.530689      0.34822017    -56.182469      0.029520714    299.32761      276.71348      3375         
      2430  -56.696647      0.51028554    -56.186361      0.029520714    438.63786      583.71213      3375         
      2440  -56.627605      0.43178212    -56.195823      0.029520714    371.15687      105.81611      3375         
      2450  -56.575082      0.37028912    -56.204793      0.029520714    318.29792      109.61473      3375         
      2460  -56.668417      0.44503335    -56.223383      0.029520714    382.54754     -883.2821       3375         
      2470  -56.610704      0.37920087    -56.231503      0.029520714    325.9584      -430.88932      3375         
      2480  -56.631955      0.38186162    -56.250094      0.029520714    328.24556      706.32625      3375         
      2490  -56.638119      0.36775859    -56.27036       0.029520714    316.1227      -381.84258      3375         
      2500  -56.616178      0.32856419    -56.287614      0.029520714    282.43147     -79.099028      3375         
      2510  -56.700059      0.3926392     -56.30742       0.029520714    337.50989      1293.6071      3375         
      2520  -56.696624      0.36504052    -56.331583      0.029520714    313.78627     -273.36769      3375         
      2530  -56.609821      0.26182485    -56.347996      0.029520714    225.0628      -1539.7134      3375         
      2540  -56.724135      0.35554712    -56.368588      0.029520714    305.6258       31.296254      3375         
      2550  -56.72108       0.33253123    -56.388549      0.029520714    285.8415       927.27536      3375         
      2560  -56.64088       0.24207568    -56.398805      0.029520714    208.08655      347.96095      3375         
      2570  -56.776278      0.35654116    -56.419737      0.029520714    306.48027     -330.68054      3375         
      2580  -56.817197      0.38349319    -56.433704      0.029520714    329.64805     -110.56488      3375         
      2590  -56.695572      0.24871172    -56.446861      0.029520714    213.79084      454.61898      3375         
      2600  -56.755048      0.29288276    -56.462166      0.029520714    251.75996      125.24746      3375         
      2610  -56.77223       0.30500899    -56.467221      0.029520714    262.18358     -894.13996      3375         
      2620  -56.736754      0.26104779    -56.475706      0.029520714    224.39484     -430.75114      3375         
      2630  -56.733934      0.25256097    -56.481373      0.029520714    217.09963      638.52453      3375         
      2640  -56.822014      0.3344613     -56.487553      0.029520714    287.50058     -72.334801      3375         
      2650  -56.767339      0.27722766    -56.490111      0.029520714    238.30294     -322.01723      3375         
      2660  -56.74051       0.24695566    -56.493555      0.029520714    212.28135      993.05141      3375         
      2670  -56.768135      0.27622946    -56.491906      0.029520714    237.4449       596.89635      3375         
      2680  -56.802864      0.30474339    -56.498121      0.029520714    261.95528     -1168.6888      3375         
      2690  -56.715582      0.22999565    -56.485586      0.029520714    197.70264     -780.03188      3375         
      2700  -56.749778      0.25832615    -56.491452      0.029520714    222.05534      611.52114      3375         
      2710  -56.821928      0.33915196    -56.482776      0.029520714    291.53264      684.46068      3375         
      2720  -56.722455      0.24465058    -56.477804      0.029520714    210.29992     -71.07709       3375         
      2730  -56.676464      0.2038565     -56.472607      0.029520714    175.23361     -660.64091      3375         
      2740  -56.801552      0.33813716    -56.463415      0.029520714    290.66032      158.26427      3375         
      2750  -56.812855      0.36188568    -56.450969      0.029520714    311.07439      646.56486      3375         
      2760  -56.626423      0.18955201    -56.436871      0.029520714    162.93758     -688.01556      3375         
      2770  -56.721371      0.29600004    -56.425371      0.029520714    254.43955     -704.1624       3375         
      2780  -56.755076      0.34619556    -56.40888       0.029520714    297.58726      838.04041      3375         
      2790  -56.668337      0.28752484    -56.380812      0.029520714    247.15433      135.08167      3375         
      2800  -56.627446      0.26403116    -56.363415      0.029520714    226.95933     -584.33941      3375         
      2810  -56.752445      0.40907429    -56.343371      0.029520714    351.63738      862.94939      3375         
      2820  -56.770734      0.48347937    -56.287255      0.029520714    415.59546      1075.5045      3375         
      2830  -56.626833      0.35238539    -56.274447      0.029520714    302.908       -944.60971      3375         
      2840  -56.610551      0.38292171    -56.227629      0.029520714    329.1568      -1622.8194      3375         
      2850  -56.74078       0.53263374    -56.208146      0.029520714    457.84821     -206.31576      3375         
      2860  -56.54468       0.36085775    -56.183822      0.029520714    310.19078      1289.3778      3375         
      2870  -56.567801      0.40192612    -56.165875      0.029520714    345.49286      851.36343      3375         
      2880  -56.735593      0.57627054    -56.159322      0.029520714    495.3581      -1050.383       3375         
      2890  -56.539544      0.40009451    -56.139449      0.029520714    343.91843     -654.60441      3375         
      2900  -56.55747       0.40769271    -56.149777      0.029520714    350.44978      1231.2001      3375         
      2910  -56.692208      0.55102873    -56.141179      0.029520714    473.66042      271.60851      3375         
      2920  -56.558879      0.41423779    -56.144641      0.029520714    356.07589     -649.99381      3375         
      2930  -56.550462      0.40057653    -56.149885      0.029520714    344.33277      103.75094      3375         
      2940  -56.627863      0.47023973    -56.157623      0.029520714    404.21477     -320.7625       3375         
      2950  -56.64127       0.48418561    -56.157084      0.029520714    416.20254     -830.4111       3375         
      2960  -56.42993       0.25930565    -56.170624      0.029520714    222.89731      766.60883      3375         
      2970  -56.627668      0.45689875    -56.170769      0.029520714    392.74695      1506.2176      3375         
      2980  -56.709955      0.52614743    -56.183808      0.029520714    452.27263      250.43767      3375         
      2990  -56.497063      0.29627413    -56.200789      0.029520714    254.67516     -1808.1081      3375         
      3000  -56.618314      0.42156112    -56.196752      0.029520714    362.37097     -1704.1571      3375         
      3010  -56.754327      0.52792906    -56.226398      0.029520714    453.8041       960.5344       3375         
      3020  -56.494963      0.26941041    -56.225553      0.029520714    231.5833       1635.0365      3375         
      3030  -56.601247      0.35941883    -56.241828      0.029520714    308.95389      86.474004      3375         
      3040  -56.707572      0.45213156    -56.255441      0.029520714    388.64911     -483.22527      3375         
      3050  -56.585616      0.3148256     -56.27079       0.029520714    270.62187      73.373823      3375         
      3060  -56.739016      0.45171754    -56.287299      0.029520714    388.29322     -157.69968      3375         
      3070  -56.66985       0.36879663    -56.301053      0.029520714    317.01499     -307.32664      3375         
      3080  -56.705171      0.38629016    -56.318881      0.029520714    332.05231      207.00938      3375         
      3090  -56.694426      0.35510724    -56.339319      0.029520714    305.24768     -7.5724287      3375         
      3100  -56.689278      0.34068886    -56.348589      0.029520714    292.85375     -875.97243      3375         
      3110  -56.677096      0.3142445     -56.362851      0.029520714    270.12236      24.690268      3375         
      3120  -56.750088      0.36532304    -56.384765      0.029520714    314.02911      1358.882       3375         
      3130  -56.711522      0.3246344     -56.386887      0.029520714    279.05345      906.1454       3375         
      3140  -56.701279      0.29601793    -56.405261      0.029520714    254.45493     -759.84669      3375         
      3150  -56.705825      0.29134167    -56.414483      0.029520714    250.43525     -1670.9401      3375         
      3160  -56.776545      0.35708911    -56.419456      0.029520714    306.95128     -576.73504      3375         
      3170  -56.740652      0.30233941    -56.438313      0.029520714    259.88883      1355.1657      3375         
      3180  -56.674486      0.24045706    -56.434029      0.029520714    206.6952       1170.7608      3375         
      3190  -56.765157      0.31886552    -56.446292      0.029520714    274.09456     -85.30483       3375         
      3200  -56.65743       0.20815716    -56.449273      0.029520714    178.93043     -291.99496      3375         
      3210  -56.778843      0.32311135    -56.455732      0.029520714    277.74424     -864.18316      3375         
      3220  -56.733593      0.28170883    -56.451884      0.029520714    242.15493     -777.32471      3375         
      3230  -56.701108      0.24181966    -56.459288      0.029520714    207.86648      683.6397       3375         
      3240  -56.825251      0.37125346    -56.453998      0.029520714    319.12686      706.60757      3375         
      3250  -56.750761      0.2935249     -56.457236      0.029520714    252.31194     -519.5346       3375         
      3260  -56.622854      0.16660424    -56.45625       0.029520714    143.21183     -297.07506      3375         
      3270  -56.778369      0.32560235    -56.452767      0.029520714    279.88549      676.62895      3375         
      3280  -56.773736      0.32527323    -56.448462      0.029520714    279.60258      755.19776      3375         
      3290  -56.687197      0.24743352    -56.439763      0.029520714    212.69211     -15.829724      3375         
      3300  -56.765733      0.32591629    -56.439816      0.029520714    280.15535     -1282.3257      3375         
      3310  -56.706265      0.29131969    -56.414945      0.029520714    250.41635     -1027.4224      3375         
      3320  -56.772519      0.36448566    -56.408034      0.029520714    313.30931      544.45747      3375         
      3330  -56.666789      0.28177074    -56.385018      0.029520714    242.20814      1097.9157      3375         
      3340  -56.745893      0.37528033    -56.370613      0.029520714    322.58833      786.84786      3375         
      3350  -56.688782      0.35200266    -56.33678       0.029520714    302.57901      286.31848      3375         
      3360  -56.621688      0.3046995     -56.316988      0.029520714    261.91755     -1531.5672      3375         
      3370  -56.678813      0.41032821    -56.268485      0.029520714    352.71524     -1653.7187      3375         
      3380  -56.608891      0.36109269    -56.247799      0.029520714    310.39274      803.409        3375         
      3390  -56.601448      0.3967931     -56.204655      0.029520714    341.08056      1530.3321      3375         
      3400  -56.65391       0.48008863    -56.173822      0.029520714    412.68081      450.28768      3375         
      3410  -56.596777      0.45013425    -56.146642      0.029520714    386.93224     -323.06823      3375         
      3420  -56.560098      0.4418438     -56.118254      0.029520714    379.80582     -589.70446      3375         
      3430  -56.605877      0.49964051    -56.106236      0.029520714    429.48746     -12.534771      3375         
      3440  -56.395861      0.3061961     -56.089665      0.029520714    263.20401      401.74742      3375         
      3450  -56.566109      0.48386153    -56.082247      0.029520714    415.92396     -716.95888      3375         
      3460  -56.578199      0.50476085    -56.073438      0.029520714    433.88887     -495.97553      3375         
      3470  -56.545836      0.4717502     -56.074086      0.029520714    405.51315      92.891301      3375         
      3480  -56.617797      0.54772226    -56.070075      0.029520714    470.8182       157.15688      3375         
      3490  -56.548804      0.46463228    -56.084172      0.029520714    399.39464      1187.3536      3375         
      3500  -56.591074      0.51130475    -56.079769      0.029520714    439.51397      988.31824      3375         
      3510  -56.513232      0.41655311    -56.096679      0.029520714    358.06612     -1217.9705      3375         
      3520  -56.517401      0.4121483     -56.105253      0.029520714    354.27978     -1677.8693      3375         
      3530  -56.685875      0.56384315    -56.122031      0.029520714    484.67561     -57.960019      3375         
      3540  -56.648552      0.50038905    -56.148163      0.029520714    430.13091      1220.365       3375         
      3550  -56.524703      0.378792      -56.145911      0.029520714    325.60694      1125.6373      3375         
      3560  -56.706567      0.52026961    -56.186298      0.029520714    447.2201      -131.96445      3375         
      3570  -56.611546      0.41517546    -56.19637       0.029520714    356.8819      -940.89458      3375         
      3580  -56.626265      0.4074695     -56.218795      0.029520714    350.25791     -445.34447      3375         
      3590  -56.663949      0.42274829    -56.241201      0.029520714    363.39146      145.58837      3375         
      3600  -56.624319      0.36199627    -56.262323      0.029520714    311.16945     -42.18515       3375         
      3610  -56.632621      0.35819302    -56.274428      0.029520714    307.9002       59.790249      3375         
      3620  -56.67633       0.38465105    -56.291679      0.029520714    330.64333      277.53697      3375         
      3630  -56.675329      0.36692309    -56.308406      0.029520714    315.40451     -133.20948      3375         
      3640  -56.615783      0.30038138    -56.315402      0.029520714    258.20572      266.46774      3375         
      3650  -56.781356      0.45286848    -56.328488      0.029520714    389.28256      946.31999      3375         
      3660  -56.717075      0.37891004    -56.338165      0.029520714    325.7084      -385.25751      3375         
      3670  -56.608189      0.25377244    -56.354416      0.029520714    218.14101     -1353.4101      3375         
      3680  -56.650476      0.30379775    -56.346679      0.029520714    261.1424      -343.90267      3375         
      3690  -56.707676      0.34857691    -56.359099      0.029520714    299.63426      562.34026      3375         
      3700  -56.66412       0.30470548    -56.359414      0.029520714    261.92269      879.25885      3375         
      3710  -56.710296      0.34578464    -56.364511      0.029520714    297.23404      286.74247      3375         
      3720  -56.723623      0.35635924    -56.367264      0.029520714    306.32389     -822.0583       3375         
      3730  -56.676683      0.30822557    -56.368457      0.029520714    264.94853     -294.32378      3375         
      3740  -56.725547      0.35244077    -56.373106      0.029520714    302.95561      170.6819       3375         
      3750  -56.675218      0.30342858    -56.37179       0.029520714    260.82507     -156.62085      3375         
      3760  -56.700475      0.32711105    -56.373364      0.029520714    281.18236      568.82966      3375         
      3770  -56.649771      0.27619889    -56.373572      0.029520714    237.41862      509.76168      3375         
      3780  -56.763251      0.38693457    -56.376316      0.029520714    332.60623     -1018.1717      3375         
      3790  -56.731216      0.36109223    -56.370124      0.029520714    310.39234     -88.375121      3375         
      3800  -56.631335      0.2567393     -56.374596      0.029520714    220.6913       1173.2957      3375         
      3810  -56.734461      0.36138298    -56.373078      0.029520714    310.64227     -30.98496       3375         
      3820  -56.703272      0.33040015    -56.372872      0.029520714    284.00965     -1194.9241      3375         
      3830  -56.706522      0.3405782     -56.365944      0.029520714    292.75862     -676.70449      3375         
      3840  -56.679363      0.30959106    -56.369772      0.029520714    266.1223       515.25797      3375         
      3850  -56.65836       0.28951606    -56.368844      0.029520714    248.86597      1273.9002      3375         
      3860  -56.712858      0.35205915    -56.360799      0.029520714    302.62757      114.86969      3375         
      3870  -56.667682      0.30547687    -56.362205      0.029520714    262.58577     -1107.0231      3375         
      3880  -56.625042      0.26786286    -56.357179      0.029520714    230.25303      114.15572      3375         
      3890  -56.782286      0.43167281    -56.350614      0.029520714    371.06291      428.39201      3375         
      3900  -56.640426      0.29421705    -56.346209      0.029520714    252.9069      -279.91007      3375         
      3910  -56.609449      0.26794331    -56.341506      0.029520714    230.32219      554.77605      3375         
      3920  -56.719435      0.38707331    -56.332362      0.029520714    332.7255       173.14457      3375         
      3930  -56.643065      0.31861453    -56.324451      0.029520714    273.87881     -1456.9078      3375         
      3940  -56.550577      0.23844109    -56.312136      0.029520714    204.96228     -286.1976       3375         
      3950  -56.693588      0.39646314    -56.297125      0.029520714    340.79692      1340.9131      3375         
      3960  -56.825823      0.55415512    -56.271668      0.029520714    476.34784      800.86991      3375         
      3970  -56.527421      0.27772931    -56.249692      0.029520714    238.73416     -591.80022      3375         
      3980  -56.514865      0.2924808     -56.222385      0.029520714    251.41444     -1284.8208      3375         
      3990  -56.757215      0.56621144    -56.191004      0.029520714    486.71137      110.35129      3375         
      4000  -56.606039      0.46101855    -56.14502       0.029520714    396.2883       1123.0047      3375         
      4010  -56.362246      0.2533995     -56.108846      0.029520714    217.82042      73.924921      3375         
      4020  -56.716597      0.64587204    -56.070724      0.029520714    555.18706     -206.98237      3375         
      4030  -56.563792      0.52870425    -56.035088      0.029520714    454.47045      428.57084      3375         
      4040  -56.419193      0.41859101    -56.000602      0.029520714    359.81789     -605.82483      3375         
      4050  -56.507709      0.53282095    -55.974888      0.029520714    458.00914     -937.68509      3375         
      4060  -56.552229      0.59228305    -55.959946      0.029520714    509.12234      1034.8087      3375         
      4070  -56.544091      0.59840278    -55.945688      0.029520714    514.38282      914.45097      3375         
      4080  -56.40176       0.45346811    -55.948292      0.029520714    389.798       -1590.066       3375         
      4090  -56.489378      0.55037409    -55.939004      0.029520714    473.0977      -1724.8728      3375         
      4100  -56.523073      0.54717328    -55.9759        0.029520714    470.3463       1693.7059      3375         
      4110  -56.293877      0.34830541    -55.945572      0.029520714    299.40088      2696.937       3375         
      4120  -56.62184       0.64287537    -55.978964      0.029520714    552.61114     -246.62269      3375         
      4130  -56.54825       0.54553611    -56.002714      0.029520714    468.939       -2131.4561      3375         
      4140  -56.408288      0.38042489    -56.027863      0.029520714    327.01056     -721.09996      3375         
      4150  -56.593399      0.5402941     -56.053105      0.029520714    464.43301      427.74987      3375         
      4160  -56.545681      0.45310244    -56.092579      0.029520714    389.48367      76.579531      3375         
      4170  -56.571837      0.45456474    -56.117272      0.029520714    390.74065      367.63462      3375         
      4180  -56.524911      0.37683261    -56.148078      0.029520714    323.92266      1273.6771      3375         
      4190  -56.588721      0.41453173    -56.174189      0.029520714    356.32856     -595.70276      3375         
      4200  -56.704844      0.4995402     -56.205304      0.029520714    429.40125     -2084.4425      3375         
      4210  -56.633137      0.40369857    -56.229439      0.029520714    347.01645      604.12644      3375         
      4220  -56.525752      0.28147472    -56.244277      0.029520714    241.95369      2100.3869      3375         
      4230  -56.795301      0.52779776    -56.267503      0.029520714    453.69124     -446.82431      3375         
      4240  -56.587885      0.31104639    -56.276839      0.029520714    267.37329     -1990.584       3375         
      4250  -56.691648      0.39511902    -56.296529      0.029520714    339.64153      221.91604      3375         
      4260  -56.648003      0.34464912    -56.303354      0.029520714    296.25796      2134.1309      3375         
      4270  -56.704361      0.38974959    -56.314611      0.029520714    335.02601      723.35701      3375         
      4280  -56.703013      0.37262927    -56.330384      0.029520714    320.3095      -1556.4604      3375         
      4290  -56.61787       0.28914932    -56.328721      0.029520714    248.55072     -1186.4573      3375         
      4300  -56.703243      0.36740294    -56.33584       0.029520714    315.81698      154.57114      3375         
      4310  -56.770718      0.42522466    -56.345493      0.029520714    365.52012     -308.33411      3375         
      4320  -56.586449      0.23548463    -56.350965      0.029520714    202.42093      434.90691      3375         
      4330  -56.757752      0.39474884    -56.363003      0.029520714    339.32332      2035.8379      3375         
      4340  -56.713808      0.35882198    -56.354986      0.029520714    308.44085      317.25466      3375         
      4350  -56.537349      0.16866863    -56.36868       0.029520714    144.98637     -2365.9165      3375         
      4360  -56.712272      0.34974499    -56.362527      0.029520714    300.63833     -1000.7643      3375         
      4370  -56.751479      0.3821228     -56.369356      0.029520714    328.47007      1665.7722      3375         
      4380  -56.728763      0.36147733    -56.367285      0.029520714    310.72337      1259.2264      3375         
      4390  -56.623876      0.249737      -56.374139      0.029520714    214.67217     -1077.9045      3375         
      4400  -56.672885      0.30189567    -56.370989      0.029520714    259.50739     -1086.1081      3375         
      4410  -56.763991      0.39213674    -56.371854      0.029520714    337.07798      850.36737      3375         
      4420  -56.627418      0.2583884     -56.369029      0.029520714    222.10885      784.93441      3375         
      4430  -56.641629      0.2690257     -56.372603      0.029520714    231.2526      -752.11213      3375         
      4440  -56.8597        0.49499114    -56.364709      0.029520714    425.4909      -538.51613      3375         
      4450  -56.618717      0.25385966    -56.364857      0.029520714    218.21598      287.64993      3375         
      4460  -56.652036      0.28865535    -56.363381      0.029520714    248.12611     -531.31089      3375         
      4470  -56.765288      0.40172838    -56.36356       0.029520714    345.32289      60.522593      3375         
      4480  -56.695486      0.34001409    -56.355472      0.029520714    292.27372      1778.3364      3375         
      4490  -56.689649      0.34193566    -56.347714      0.029520714    293.92548      1057.9945      3375         
      4500  -56.722658      0.36867274    -56.353986      0.029520714    316.90849     -1722.1069      3375         
      4510  -56.710166      0.36964621    -56.34052       0.029520714    317.74528     -2166.855       3375         
      4520  -56.671301      0.33794477    -56.333356      0.029520714    290.49495      474.21428      3375         
      4530  -56.591992      0.2574052     -56.334586      0.029520714    221.2637       2022.4175      3375         
      4540  -56.793597      0.47328228    -56.320315      0.029520714    406.83011      360.1988       3375         
      4550  -56.651706      0.33591449    -56.315792      0.029520714    288.74973     -1404.4117      3375         
      4560  -56.571829      0.26548454    -56.306344      0.029520714    228.20865     -233.17846      3375         
      4570  -56.793596      0.50037541    -56.293221      0.029520714    430.11918      653.02742      3375         
      4580  -56.643143      0.36258053    -56.280562      0.029520714    311.67167     -183.40092      3375         
      4590  -56.510494      0.23930893    -56.271185      0.029520714    205.70827     -59.533437      3375         
      4600  -56.652384      0.3990927     -56.253291      0.029520714    343.05728      553.52436      3375         
      4610  -56.664515      0.43184744    -56.232668      0.029520714    371.21302     -185.13518      3375         
      4620  -56.595083      0.37800075    -56.217082      0.029520714    324.92679     -1019.9359      3375         
      4630  -56.556968      0.36169587    -56.195272      0.029520714    310.91122      599.42994      3375         
      4640  -56.658568      0.48838004    -56.170188      0.029520714    419.80804      1832.8753      3375         
      4650  -56.657441      0.49609745    -56.161344      0.029520714    426.44187     -541.58415      3375         
      4660  -56.404024      0.28078668    -56.123237      0.029520714    241.36225     -2677.0981      3375         
      4670  -56.66627       0.55464594    -56.111624      0.029520714    476.76974     -634.08748      3375         
      4680  -56.626289      0.5327341     -56.093555      0.029520714    457.93449      1949.8194      3375         
      4690  -56.479014      0.39858056    -56.080433      0.029520714    342.61705      1594.5478      3375         
      4700  -56.631932      0.56765419    -56.064278      0.029520714    487.95155     -365.95937      3375         
      4710  -56.591941      0.53128163    -56.06066       0.029520714    456.68595     -1186.3053      3375         
      4720  -56.460997      0.40229088    -56.058707      0.029520714    345.80641      162.96572      3375         
      4730  -56.623284      0.56905629    -56.054227      0.029520714    489.15678     -5.3963152      3375         
      4740  -56.574481      0.51134919    -56.063131      0.029520714    439.55216     -651.90427      3375         
      4750  -56.592033      0.50909989    -56.082933      0.029520714    437.61868      901.66016      3375         
      4760  -56.508244      0.41608388    -56.09216       0.029520714    357.66277      744.85705      3375         
      4770  -56.541489      0.43186949    -56.109619      0.029520714    371.23198     -1120.154       3375         
      4780  -56.587288      0.45052117    -56.136767      0.029520714    387.26483     -543.95085      3375         
      4790  -56.580643      0.41992633    -56.160717      0.029520714    360.96572      913.10625      3375         
      4800  -56.656475      0.46690375    -56.189571      0.029520714    401.34718      778.0867       3375         
      4810  -56.587115      0.3579426     -56.229173      0.029520714    307.68494     -903.35124      3375         
      4820  -56.606381      0.34699237    -56.259389      0.029520714    298.2722      -1644.1363      3375         
      4830  -56.686657      0.40173839    -56.284919      0.029520714    345.33149      694.06904      3375         
      4840  -56.573945      0.26104941    -56.312895      0.029520714    224.39624      1884.6723      3375         
      4850  -56.644811      0.31605564    -56.328756      0.029520714    271.6792       193.1255       3375         
      4860  -56.696912      0.35036258    -56.34655       0.029520714    301.16921     -980.33166      3375         
      4870  -56.703832      0.33705197    -56.36678       0.029520714    289.7275      -202.34961      3375         
      4880  -56.729774      0.34183656    -56.387937      0.029520714    293.8403      -265.98656      3375         
      4890  -56.675771      0.28884854    -56.386922      0.029520714    248.29217     -527.06924      3375         
      4900  -56.678578      0.27817716    -56.400401      0.029520714    239.11913      576.74714      3375         
      4910  -56.780124      0.37292279    -56.407201      0.029520714    320.5618       705.30895      3375         
      4920  -56.672256      0.25979916    -56.412457      0.029520714    223.32153     -484.10999      3375         
      4930  -56.678457      0.26292131    -56.415536      0.029520714    226.00531     -547.1574       3375         
      4940  -56.788168      0.37016635    -56.418002      0.029520714    318.19239      445.03093      3375         
      4950  -56.691453      0.26945082    -56.422002      0.029520714    231.61803      871.65348      3375         
      4960  -56.75741       0.33717615    -56.420234      0.029520714    289.83424     -163.45453      3375         
      4970  -56.733446      0.31200631    -56.421439      0.029520714    268.19843     -1172.9496      3375         
      4980  -56.741826      0.32073984    -56.421086      0.029520714    275.70571     -312.24821      3375         
      4990  -56.738985      0.32073604    -56.418249      0.029520714    275.70244      1161.4669      3375         
      5000  -56.731266      0.31185346    -56.419412      0.029520714    268.06704      388.2446       3375         
      5010  -56.70896       0.29210881    -56.416851      0.029520714    251.09467     -434.97385      3375         
      5020  -56.694481      0.27966472    -56.414817      0.029520714    240.39782      107.09013      3375         
      5030  -56.707571      0.29777159    -56.409799      0.029520714    255.96237     -516.60325      3375         
      5040  -56.703107      0.29710592    -56.406001      0.029520714    255.39016     -936.17795      3375         
      5050  -56.742661      0.34200814    -56.400653      0.029520714    293.98779      603.06424      3375         
      5060  -56.703272      0.31025564    -56.393016      0.029520714    266.69356      1177.3677      3375         
      5070  -56.687109      0.30154546    -56.385563      0.029520714    259.20636     -146.24198      3375         
      5080  -56.643338      0.26378195    -56.379556      0.029520714    226.74511     -568.05817      3375         
      5090  -56.69347       0.32386609    -56.369604      0.029520714    278.39302     -53.048032      3375         
      5100  -56.627411      0.26868481    -56.358726      0.029520714    230.95958      407.2054       3375         
      5110  -56.728241      0.38032931    -56.347912      0.029520714    326.9284       244.12083      3375         
      5120  -56.719394      0.38816841    -56.331226      0.029520714    333.66683     -828.52641      3375         
      5130  -56.607104      0.29178794    -56.315316      0.029520714    250.81886     -696.66003      3375         
      5140  -56.715997      0.4147001     -56.301297      0.029520714    356.47329      663.58386      3375         
      5150  -56.681997      0.39881924    -56.283178      0.029520714    342.82222      472.18317      3375         
      5160  -56.620408      0.35647577    -56.263932      0.029520714    306.42406     -179.60524      3375         
      5170  -56.623103      0.37648767    -56.246616      0.029520714    323.62615      742.66849      3375         
      5180  -56.679242      0.44937903    -56.229863      0.029520714    386.28306     -205.46909      3375         
      5190  -56.522705      0.31548783    -56.207218      0.029520714    271.19112     -1533.2023      3375         
      5200  -56.642353      0.45431994    -56.188033      0.029520714    390.53022      408.52083      3375         
      5210  -56.702538      0.5367569     -56.165781      0.029520714    461.39246      1182.2845      3375         
      5220  -56.535704      0.39180919    -56.143895      0.029520714    336.79643     -35.079785      3375         
      5230  -56.547942      0.42424859    -56.123693      0.029520714    364.6811      -329.98184      3375         
      5240  -56.669663      0.56043466    -56.109229      0.029520714    481.74569     -599.55273      3375         
      5250  -56.555406      0.47063277    -56.084773      0.029520714    404.55262     -9.5874787      3375         
      5260  -56.376374      0.30688185    -56.069492      0.029520714    263.79347      1094.5721      3375         
      5270  -56.567755      0.50962683    -56.058128      0.029520714    438.07164     -567.47357      3375         
      5280  -56.550799      0.51449325    -56.036305      0.029520714    442.25478     -772.99232      3375         
      5290  -56.559507      0.548452      -56.011055      0.029520714    471.44548      514.87868      3375         
      5300  -56.496844      0.50041901    -55.996425      0.029520714    430.15666     -386.18496      3375         
      5310  -56.439024      0.45528455    -55.98374       0.029520714    391.3594       131.51998      3375         
      5320  -56.526441      0.56629704    -55.960144      0.029520714    486.78495      1842.1285      3375         
      5330  -56.524653      0.57354444    -55.951108      0.029520714    493.01476     -103.35027      3375         
      5340  -56.3252        0.38835894    -55.936841      0.029520714    333.83061     -1860.605       3375         
      5350  -56.587236      0.65867345    -55.928562      0.029520714    566.19106     -652.11131      3375         
      5360  -56.603481      0.68131868    -55.922163      0.029520714    585.65674      384.77434      3375         
      5370  -56.363427      0.43577948    -55.927647      0.029520714    374.59298      709.01238      3375         
      5380  -56.719172      0.77654787    -55.942624      0.029520714    667.51509      610.14313      3375         
      5390  -56.481036      0.51410301    -55.966933      0.029520714    441.91933     -394.80045      3375         
      5400  -56.406191      0.41263531    -55.993556      0.029520714    354.69841     -591.40057      3375         
      5410  -56.648041      0.61671034    -56.031331      0.029520714    530.11987      299.97929      3375         
      5420  -56.637469      0.55814938    -56.07932       0.029520714    479.78128      203.58173      3375         
      5430  -56.390737      0.27626032    -56.114476      0.029520714    237.47142      259.02329      3375         
      5440  -56.62205       0.46686095    -56.155189      0.029520714    401.31038      136.38268      3375         
      5450  -56.74707       0.55326713    -56.193803      0.029520714    475.58453     -1060.1533      3375         
      5460  -56.588567      0.35471174    -56.233855      0.029520714    304.90772     -380.49248      3375         
      5470  -56.567164      0.30368385    -56.26348       0.029520714    261.0445       1491.8964      3375         
      5480  -56.76925       0.48156214    -56.287688      0.029520714    413.94743      512.85677      3375         
      5490  -56.680777      0.36173221    -56.319045      0.029520714    310.94246     -1000.5253      3375         
      5500  -56.503502      0.17579803    -56.327704      0.029520714    151.11475     -583.53227      3375         
      5510  -56.737079      0.39302399    -56.344055      0.029520714    337.84066     -224.21917      3375         
      5520  -56.7139        0.3566337     -56.357266      0.029520714    306.55982      289.15768      3375         
      5530  -56.635013      0.26465502    -56.370358      0.029520714    227.49559      808.54254      3375         
      5540  -56.730175      0.35138071    -56.378794      0.029520714    302.04439      204.697        3375         
      5550  -56.77763       0.38490895    -56.392721      0.029520714    330.86503     -234.43316      3375         
      5560  -56.651818      0.25445011    -56.397368      0.029520714    218.72352     -194.89815      3375         
      5570  -56.6195        0.21423457    -56.405265      0.029520714    184.15453     -314.35196      3375         
      5580  -56.770082      0.35907941    -56.411002      0.029520714    308.66213      231.36482      3375         
      5590  -56.741008      0.32487974    -56.416128      0.029520714    279.26434      409.85481      3375         
      5600  -56.638013      0.21766921    -56.420344      0.029520714    187.10692     -915.66915      3375         
      5610  -56.736805      0.31507365    -56.421732      0.029520714    270.83509     -588.48984      3375         
      5620  -56.854757      0.42620825    -56.428549      0.029520714    366.36561      1099.1753      3375         
      5630  -56.640814      0.21860187    -56.422212      0.029520714    187.90863      778.2641       3375         
      5640  -56.71095       0.28115741    -56.429793      0.029520714    241.68093     -367.99058      3375         
      5650  -56.823432      0.39450511    -56.428927      0.029520714    339.11381     -349.73322      3375         
      5660  -56.681235      0.25230352    -56.428932      0.029520714    216.87833     -474.11936      3375         
      5670  -56.652874      0.22529891    -56.427575      0.029520714    193.66535     -303.66787      3375         
      5680  -56.778785      0.34980866    -56.428976      0.029520714    300.69306      691.85161      3375         
      5690  -56.780483      0.35970001    -56.420783      0.029520714    309.1956       538.82521      3375         
      5700  -56.666456      0.24680166    -56.419654      0.029520714    212.14897      91.798409      3375         
      5710  -56.720111      0.30594439    -56.414166      0.029520714    262.98765     -313.60879      3375         
      5720  -56.769451      0.35917728    -56.410274      0.029520714    308.74626     -1017.1702      3375         
      5730  -56.667702      0.26856809    -56.399134      0.029520714    230.85924      100.22934      3375         
      5740  -56.651888      0.25916525    -56.392723      0.029520714    222.77663      915.56556      3375         
      5750  -56.73243       0.34877194    -56.383658      0.029520714    299.80191     -611.17296      3375         
      5760  -56.639605      0.27239872    -56.367206      0.029520714    234.15202     -389.39526      3375         
      5770  -56.660949      0.30090481    -56.360044      0.029520714    258.65566      945.10463      3375         
      5780  -56.759998      0.42964467    -56.330354      0.029520714    369.31954      496.26452      3375         
      5790  -56.69672       0.38365122    -56.313069      0.029520714    329.78389     -113.94093      3375         
      5800  -56.570755      0.2745279     -56.296228      0.029520714    235.98225     -370.30461      3375         
      5810  -56.640165      0.36145424    -56.278711      0.029520714    310.70352     -779.70484      3375         
      5820  -56.687193      0.43878606    -56.248407      0.029520714    377.17741     -155.87688      3375         
      5830  -56.543785      0.31557154    -56.228213      0.029520714    271.26307      280.42292      3375         
      5840  -56.597322      0.38752031    -56.209802      0.029520714    333.10973      352.8682       3375         
      5850  -56.586358      0.39799394    -56.188364      0.029520714    342.11279      732.76044      3375         
      5860  -56.608689      0.44405635    -56.164633      0.029520714    381.70771     -52.497971      3375         
      5870  -56.62523       0.48104787    -56.144182      0.029520714    413.50537     -1058.4644      3375         
      5880  -56.602086      0.47172734    -56.130359      0.029520714    405.4935      -122.18359      3375         
      5890  -56.502382      0.38777683    -56.114605      0.029520714    333.33023      630.98669      3375         
      5900  -56.618395      0.51024977    -56.108145      0.029520714    438.60711     -95.076184      3375         
      5910  -56.533478      0.43181096    -56.101667      0.029520714    371.18166     -397.99234      3375         
      5920  -56.513704      0.41651666    -56.097187      0.029520714    358.03479      663.8138       3375         
      5930  -56.601937      0.5022797     -56.099658      0.029520714    431.75609      828.27403      3375         
      5940  -56.588864      0.48586476    -56.102999      0.029520714    417.64593     -212.98167      3375         
      5950  -56.524769      0.41554461    -56.109225      0.029520714    357.19923     -949.11431      3375         
      5960  -56.578579      0.45900884    -56.11957       0.029520714    394.56077     -863.83568      3375         
      5970  -56.611255      0.47652993    -56.134726      0.029520714    409.62178      20.610008      3375         
      5980  -56.458094      0.30787608    -56.150218      0.029520714    264.64812      648.72434      3375         
      5990  -56.592946      0.4207689     -56.172177      0.029520714    361.68998      500.96232      3375         
      6000  -56.624762      0.43476442    -56.189997      0.029520714    373.72043      549.80933      3375         
      6010  -56.528767      0.31548521    -56.213281      0.029520714    271.18887      75.051686      3375         
      6020  -56.643984      0.40103509    -56.242948      0.029520714    344.72694     -883.21932      3375         
      6030  -56.755516      0.47762624    -56.277889      0.029520714    410.56415     -554.25628      3375         
      6040  -56.637227      0.32183936    -56.315388      0.029520714    276.65085      472.71206      3375         
      6050  -56.639812      0.29392546    -56.345887      0.029520714    252.65626      340.54981      3375         
      6060  -56.765426      0.38684607    -56.37858       0.029520714    332.53016     -224.33207      3375         
      6070  -56.698081      0.28952676    -56.408554      0.029520714    248.87517      203.07763      3375         
      6080  -56.702476      0.27327533    -56.429201      0.029520714    234.90555      106.79715      3375         
      6090  -56.763939      0.31787742    -56.446061      0.029520714    273.24519     -238.43594      3375         
      6100  -56.728043      0.26816865    -56.459875      0.029520714    230.51589     -67.417784      3375         
      6110  -56.741775      0.27146994    -56.470305      0.029520714    233.35365     -346.72366      3375         
      6120  -56.798712      0.32704299    -56.471669      0.029520714    281.12386     -315.89258      3375         
      6130  -56.731928      0.24952828    -56.482399      0.029520714    214.49276      801.87639      3375         
      6140  -56.703146      0.22631598    -56.47683       0.029520714    194.53962      574.2193       3375         
      6150  -56.767267      0.28713282    -56.480134      0.029520714    246.81735     -98.690664      3375         
      6160  -56.759418      0.28198876    -56.477429      0.029520714    242.39555      7.4693942      3375         
      6170  -56.759446      0.2757115     -56.483735      0.029520714    236.99967     -778.77269      3375         
      6180  -56.70788       0.24078793    -56.467093      0.029520714    206.97961     -665.1873       3375         
      6190  -56.752205      0.28159662    -56.470609      0.029520714    242.05848      660.45981      3375         
      6200  -56.788321      0.32464592    -56.463675      0.029520714    279.06335      302.65433      3375         
      6210  -56.728827      0.26871577    -56.460112      0.029520714    230.98618     -139.73376      3375         
      6220  -56.673449      0.22225568    -56.451194      0.029520714    191.04942      347.53095      3375         
      6230  -56.776073      0.33093618    -56.445137      0.029520714    284.47041     -159.51969      3375         
      6240  -56.674662      0.23837828    -56.436283      0.029520714    204.90829     -211.04393      3375         
      6250  -56.653223      0.22611527    -56.427108      0.029520714    194.3671       282.30972      3375         
      6260  -56.789672      0.3748852     -56.414786      0.029520714    322.24868     -231.51141      3375         
      6270  -56.691007      0.28983853    -56.401169      0.029520714    249.14316     -311.57206      3375         
      6280  -56.678374      0.28818019    -56.390194      0.029520714    247.71767      102.86569      3375         
      6290  -56.742786      0.37021387    -56.372572      0.029520714    318.23324      358.11962      3375         
      6300  -56.712336      0.35449877    -56.357837      0.029520714    304.72465      566.77892      3375         
      6310  -56.62903       0.28097903    -56.348051      0.029520714    241.52759     -1.6453926      3375         
      6320  -56.706602      0.38090244    -56.325699      0.029520714    327.42106     -1150.8424      3375         
      6330  -56.741835      0.42936839    -56.312467      0.029520714    369.08205     -574.54181      3375         
      6340  -56.607878      0.31195208    -56.295926      0.029520714    268.15181      586.39795      3375         
      6350  -56.615164      0.32798295    -56.287181      0.029520714    281.93184      634.95498      3375         
      6360  -56.766157      0.49789376    -56.268263      0.029520714    427.98597      322.33646      3375         
[...]
     48420  -56.662437      0.24551042    -56.416927      0.029520714    211.03903     -2080.4351      3375         
     48430  -56.685763      0.26807174    -56.417691      0.029520714    230.43258      274.57558      3375         
     48440  -56.722454      0.33339027    -56.389064      0.029520714    286.57993      2538.3173      3375         
     48450  -56.747075      0.37877505    -56.3683        0.029520714    325.59237      176.98369      3375         
     48460  -56.666468      0.3121306     -56.354337      0.029520714    268.30527     -2019.2843      3375         
     48470  -56.685695      0.36405811    -56.321637      0.029520714    312.94179     -47.260475      3375         
     48480  -56.756442      0.44343196    -56.31301       0.029520714    381.17099      1162.3499      3375         
     48490  -56.644124      0.36115258    -56.282971      0.029520714    310.44421     -221.33312      3375         
     48500  -56.573611      0.3004399     -56.273171      0.029520714    258.25603     -885.72391      3375         
     48510  -56.63085       0.36566225    -56.265187      0.029520714    314.32069      238.80708      3375         
     48520  -56.601014      0.35709919    -56.243915      0.029520714    306.95995      989.1656       3375         
     48530  -56.684151      0.44692033    -56.23723       0.029520714    384.16957     -93.407773      3375         
     48540  -56.579768      0.34954596    -56.230222      0.029520714    300.46725     -427.29441      3375         
     48550  -56.779911      0.5587269     -56.221184      0.029520714    480.27771      759.26156      3375         
     48560  -56.54535       0.32378741    -56.221563      0.029520714    278.32538      102.45595      3375         
     48570  -56.554097      0.33764354    -56.216453      0.029520714    290.23601     -2496.1499      3375         
     48580  -56.694973      0.48173721    -56.213236      0.029520714    414.09792     -831.35334      3375         
     48590  -56.591673      0.35949119    -56.232182      0.029520714    309.0161       2975.8967      3375         
     48600  -56.541882      0.34378719    -56.198095      0.029520714    295.51705      1667.7872      3375         
     48610  -56.725463      0.48630126    -56.239162      0.029520714    418.02114     -1862.5917      3375         
     48620  -56.675203      0.46896039    -56.206243      0.029520714    403.11505     -1441.0269      3375         
     48630  -56.540033      0.30757989    -56.232453      0.029520714    264.39351      865.88921      3375         
     48640  -56.710358      0.47049737    -56.239861      0.029520714    404.43623      488.5717       3375         
     48650  -56.608574      0.36675958    -56.241815      0.029520714    315.26395     -526.15293      3375         
     48660  -56.650637      0.40042172    -56.250216      0.029520714    344.19969      110.21067      3375         
     48670  -56.470136      0.21199132    -56.258145      0.029520714    182.22625      1030.4945      3375         
     48680  -56.732663      0.47154022    -56.261122      0.029520714    405.33265     -517.9189       3375         
     48690  -56.55763       0.29105393    -56.266576      0.029520714    250.18791     -1099.7284      3375         
     48700  -56.666978      0.39737174    -56.269606      0.029520714    341.57795      792.01432      3375         
     48710  -56.69586       0.41513914    -56.280721      0.029520714    356.85068      1048.8816      3375         
     48720  -56.705437      0.41168217    -56.293755      0.029520714    353.8791      -1812.8475      3375         
     48730  -56.607401      0.32788892    -56.279512      0.029520714    281.85101     -1497.7922      3375         
     48740  -56.713937      0.38793699    -56.326         0.029520714    333.4679       1978.1319      3375         
     48750  -56.654875      0.36853491    -56.28634       0.029520714    316.79001      2081.6854      3375         
     48760  -56.604738      0.28360339    -56.321134      0.029520714    243.78348     -702.1533       3375         
     48770  -56.693838      0.37689768    -56.316941      0.029520714    323.9786      -1680.1818      3375         
     48780  -56.68795       0.36075617    -56.327193      0.029520714    310.10347      112.50023      3375         
     48790  -56.807966      0.47410564    -56.333861      0.029520714    407.53788      478.47171      3375         
     48800  -56.631215      0.28744485    -56.34377       0.029520714    247.08557     -632.9797       3375         
     48810  -56.736424      0.38553759    -56.350886      0.029520714    331.4054      -32.771313      3375         
     48820  -56.586491      0.22936986    -56.357121      0.029520714    197.16472      1579.9409      3375         
     48830  -56.728275      0.36655069    -56.361724      0.029520714    315.08439     -136.29013      3375         
     48840  -56.70328       0.33113014    -56.37215       0.029520714    284.63714     -1942.6657      3375         
     48850  -56.654156      0.2815042     -56.372651      0.029520714    241.97903      239.96407      3375         
     48860  -56.657965      0.27937403    -56.378591      0.029520714    240.14795      1805.2302      3375         
     48870  -56.816773      0.42901821    -56.387755      0.029520714    368.78103     -319.37684      3375         
     48880  -56.673766      0.2880418     -56.385724      0.029520714    247.5987      -1778.2778      3375         
     48890  -56.733786      0.33372064    -56.400065      0.029520714    286.86391      273.43339      3375         
     48900  -56.758055      0.35374108    -56.404314      0.029520714    304.07334      1958.9681      3375         
     48910  -56.618023      0.20940593    -56.408617      0.029520714    180.00386      373.07703      3375         
     48920  -56.681241      0.26031379    -56.420928      0.029520714    223.7639      -1738.3533      3375         
     48930  -56.780307      0.35715814    -56.423149      0.029520714    307.01062     -567.54514      3375         
     48940  -56.733517      0.29942372    -56.434093      0.029520714    257.38253      672.66025      3375         
     48950  -56.640637      0.19394073    -56.446696      0.029520714    166.71009     -228.68138      3375         
     48960  -56.785974      0.32793262    -56.458042      0.029520714    281.88857      56.377167      3375         
     48970  -56.824181      0.34956014    -56.474621      0.029520714    300.47944      1090.459       3375         
     48980  -56.716004      0.22748594    -56.488518      0.029520714    195.54532      42.097867      3375         
     48990  -56.755866      0.24671927    -56.509147      0.029520714    212.07815     -1436.7947      3375         
     49000  -56.7523        0.23818853    -56.514111      0.029520714    204.74518     -537.54719      3375         
     49010  -56.730012      0.19557264    -56.534439      0.029520714    168.11287      1333.7077      3375         
     49020  -56.815045      0.27817851    -56.536866      0.029520714    239.12029      1023.7582      3375         
     49030  -56.852771      0.29363074    -56.55914       0.029520714    252.40292     -1246.1085      3375         
     49040  -56.753563      0.19164508    -56.561918      0.029520714    164.73676     -695.62767      3375         
     49050  -56.838135      0.26468687    -56.573448      0.029520714    227.52297      1032.8412      3375         
     49060  -56.801255      0.22011678    -56.581138      0.029520714    189.21083      363.91452      3375         
     49070  -56.793514      0.20903005    -56.584484      0.029520714    179.68076     -772.07098      3375         
     49080  -56.803737      0.2151523     -56.588585      0.029520714    184.9434      -188.06593      3375         
     49090  -56.773087      0.18384506    -56.589242      0.029520714    158.03192      239.60107      3375         
     49100  -56.799077      0.20973694    -56.58934       0.029520714    180.2884      -239.42471      3375         
     49110  -56.812508      0.22562682    -56.586881      0.029520714    193.94722     -81.15573       3375         
     49120  -56.860239      0.27687857    -56.58336       0.029520714    238.00287      767.34304      3375         
     49130  -56.770383      0.19670045    -56.573682      0.029520714    169.08232      721.09658      3375         
     49140  -56.812595      0.23606216    -56.576533      0.029520714    202.91737     -1148.8194      3375         
     49150  -56.756949      0.20520483    -56.551745      0.029520714    176.39263     -1302.6753      3375         
     49160  -56.801297      0.24771583    -56.553581      0.029520714    212.93479      994.34286      3375         
     49170  -56.725873      0.19758134    -56.528292      0.029520714    169.83953      1635.4763      3375         
     49180  -56.816975      0.29729728    -56.519678      0.029520714    255.55465     -768.15484      3375         
     49190  -56.700354      0.20124795    -56.499106      0.029520714    172.99132     -1145.6618      3375         
     49200  -56.797736      0.31990876    -56.477828      0.029520714    274.99132      352.85813      3375         
     49210  -56.804242      0.34822975    -56.456012      0.029520714    299.33584      417.78737      3375         
     49220  -56.658911      0.22542378    -56.433488      0.029520714    193.7727      -293.63176      3375         
     49230  -56.755255      0.34083451    -56.41442       0.029520714    292.97895     -147.37156      3375         
     49240  -56.67817       0.28097801    -56.397192      0.029520714    241.52672      525.91328      3375         
     49250  -56.684074      0.30559467    -56.378479      0.029520714    262.68702      27.131586      3375         
     49260  -56.604382      0.24138451    -56.362997      0.029520714    207.49243     -568.38522      3375         
     49270  -56.778401      0.42312896    -56.355272      0.029520714    363.71867      203.42964      3375         
     49280  -56.704856      0.37982132    -56.325034      0.029520714    326.49174      1145.1421      3375         
     49290  -56.728166      0.40094557    -56.327221      0.029520714    344.64999     -756.44352      3375         
     49300  -56.599404      0.29436209    -56.305042      0.029520714    253.03158     -1542.1369      3375         
     49310  -56.734608      0.43063532    -56.303973      0.029520714    370.17109      562.44013      3375         
     49320  -56.60904       0.31251771    -56.296523      0.029520714    268.63803      1728.9327      3375         
     49330  -56.647806      0.36335364    -56.284452      0.029520714    312.33623      13.379702      3375         
     49340  -56.677206      0.38548378    -56.291723      0.029520714    331.35915     -1431.2293      3375         
     49350  -56.538115      0.27093112    -56.267184      0.029520714    232.89048     -570.30207      3375         
     49360  -56.640675      0.36644823    -56.274227      0.029520714    314.99632      709.87872      3375         
     49370  -56.72187       0.4558615     -56.266009      0.029520714    391.85534      390.25254      3375         
     49380  -56.767432      0.5085283     -56.258903      0.029520714    437.12735     -147.87796      3375         
     49390  -56.469696      0.21187143    -56.257824      0.029520714    182.12319      686.99268      3375         
     49400  -56.63336       0.36958176    -56.263778      0.029520714    317.68988     -78.470687      3375         
     49410  -56.739656      0.49084805    -56.248808      0.029520714    421.92953     -1077.5487      3375         
     49420  -56.612314      0.35969279    -56.252621      0.029520714    309.18939     -385.78392      3375         
     49430  -56.584199      0.3312875     -56.252912      0.029520714    284.7724       1012.2701      3375         
     49440  -56.705602      0.4514925     -56.25411       0.029520714    388.09977      546.03331      3375         
     49450  -56.607565      0.35250703    -56.255058      0.029520714    303.01256     -1041.5141      3375         
     49460  -56.588918      0.33593735    -56.252981      0.029520714    288.76939     -389.51133      3375         
     49470  -56.820546      0.5497832     -56.270762      0.029520714    472.58977      1085.143       3375         
     49480  -56.559888      0.30219056    -56.257698      0.029520714    259.76088      568.20467      3375         
     49490  -56.525449      0.24782034    -56.277628      0.029520714    213.02462     -961.54587      3375         
     49500  -56.604614      0.33001287    -56.274601      0.029520714    283.67674     -671.61175      3375         
     49510  -56.858162      0.57315752    -56.285004      0.029520714    492.68217      128.16677      3375         
     49520  -56.598065      0.30011114    -56.297953      0.029520714    257.97343      660.84015      3375         
     49530  -56.6177        0.30698705    -56.310713      0.029520714    263.88391      261.10393      3375         
     49540  -56.735215      0.41469054    -56.320525      0.029520714    356.46507      422.64678      3375         
     49550  -56.723336      0.38307973    -56.340256      0.029520714    329.29264     -119.71224      3375         
     49560  -56.699496      0.33937413    -56.360122      0.029520714    291.72362     -1283.2732      3375         
     49570  -56.664178      0.28660766    -56.377571      0.029520714    246.36593     -565.842        3375         
     49580  -56.662734      0.26424109    -56.398493      0.029520714    227.13978      1014.964       3375         
     49590  -56.635434      0.22377306    -56.411661      0.029520714    192.35375      905.21453      3375         
     49600  -56.842934      0.40434896    -56.438585      0.029520714    347.57552     -505.28064      3375         
     49610  -56.687337      0.23307265    -56.454264      0.029520714    200.34761     -558.55911      3375         
     49620  -56.771281      0.29294668    -56.478334      0.029520714    251.8149       376.26591      3375         
     49630  -56.706523      0.21479953    -56.491723      0.029520714    184.64017      713.32506      3375         
     49640  -56.782749      0.2770034     -56.505745      0.029520714    238.11017     -606.25116      3375         
     49650  -56.773754      0.25300208    -56.520752      0.029520714    217.47881     -801.00103      3375         
     49660  -56.767782      0.23671529    -56.531067      0.029520714    203.4788       250.86698      3375         
     49670  -56.761362      0.22204967    -56.539313      0.029520714    190.87233      408.73105      3375         
     49680  -56.742673      0.19802838    -56.544645      0.029520714    170.2238       77.571164      3375         
     49690  -56.854248      0.30385001    -56.550398      0.029520714    261.18733      397.44278      3375         
     49700  -56.802286      0.24854607    -56.55374       0.029520714    213.64845      187.41423      3375         
     49710  -56.800859      0.24420913    -56.55665       0.029520714    209.92045     -831.85977      3375         
     49720  -56.746041      0.18930853    -56.556733      0.029520714    162.72828     -808.5277       3375         
     49730  -56.836421      0.28059761    -56.555824      0.029520714    241.19973      150.44396      3375         
     49740  -56.700708      0.14624839    -56.55446       0.029520714    125.71408      1320.9913      3375         
     49750  -56.81815       0.27166242    -56.546488      0.029520714    233.5191       706.05145      3375         
     49760  -56.761805      0.21869679    -56.543108      0.029520714    187.99022     -963.93821      3375         
     49770  -56.790685      0.2578741     -56.532811      0.029520714    221.66676     -790.1001       3375         
     49780  -56.790614      0.2694757     -56.521138      0.029520714    231.63942      489.77858      3375         
     49790  -56.783803      0.27395624    -56.509847      0.029520714    235.49085      27.686923      3375         
     49800  -56.781628      0.28868705    -56.492941      0.029520714    248.15336     -268.23032      3375         
     49810  -56.746401      0.26977314    -56.476628      0.029520714    231.89509      240.34448      3375         
     49820  -56.746231      0.29048284    -56.455748      0.029520714    249.69701     -79.620914      3375         
     49830  -56.675447      0.23436412    -56.441083      0.029520714    201.45775      122.26525      3375         
     49840  -56.734757      0.31935673    -56.4154        0.029520714    274.51679      564.53222      3375         
     49850  -56.698067      0.30534643    -56.39272       0.029520714    262.47364     -37.252281      3375         
     49860  -56.771564      0.40165363    -56.36991       0.029520714    345.25863     -459.94686      3375         
     49870  -56.637347      0.28493856    -56.352409      0.029520714    244.93118     -662.50207      3375         
     49880  -56.695205      0.36793987    -56.327266      0.029520714    316.27852     -587.01501      3375         
     49890  -56.60952       0.28395705    -56.325563      0.029520714    244.08749      1445.3121      3375         
     49900  -56.689722      0.38645727    -56.303265      0.029520714    332.19595      1386.2674      3375         
     49910  -56.671669      0.37189223    -56.299777      0.029520714    319.67594     -1230.7836      3375         
     49920  -56.572216      0.27915771    -56.293059      0.029520714    239.962       -1119.1342      3375         
     49930  -56.674653      0.38607629    -56.288577      0.029520714    331.86846      99.574014      3375         
     49940  -56.705079      0.42157662    -56.283502      0.029520714    362.3843       83.591986      3375         
     49950  -56.752039      0.47258437    -56.279454      0.029520714    406.2302       426.79421      3375         
     49960  -56.657853      0.37600379    -56.281849      0.029520714    323.21022      343.23171      3375         
     49970  -56.64186       0.35920385    -56.282656      0.029520714    308.7691      -92.606731      3375         
     49980  -56.615262      0.33577929    -56.279483      0.029520714    288.63351      320.15825      3375         
     49990  -56.681023      0.39486189    -56.286161      0.029520714    339.42051     -435.78225      3375         
     50000  -56.611887      0.32658347    -56.285304      0.029520714    280.72886     -192.05415      3375         
Loop time of 320.234 on 4 procs for 50000 steps with 10 atoms

Performance: 6.745 ns/day, 3.558 hours/ns, 156.136 timesteps/s, 1.561 katom-step/s
83.0% CPU use with 4 MPI tasks x no OpenMP threads

MPI task timing breakdown:
Section |  min time  |  avg time  |  max time  |%varavg| %total
---------------------------------------------------------------
Pair    | 151.4      | 167.83     | 188.04     | 106.1 | 52.41
Neigh   | 0.00084695 | 0.0008913  | 0.00095886 |   0.0 |  0.00
Comm    | 92.592     | 110.93     | 125.63     | 123.8 | 34.64
Output  | 5.8116     | 6.0211     | 6.3228     |   7.9 |  1.88
Modify  | 27.885     | 30.084     | 31.855     |  32.3 |  9.39
Other   |            | 5.372      |            |       |  1.68

Nlocal:            2.5 ave           5 max           0 min
Histogram: 2 0 0 0 0 0 0 0 0 2
Nghost:             62 ave          68 max          56 min
Histogram: 1 0 0 0 0 2 0 0 0 1
Neighs:              0 ave           0 max           0 min
Histogram: 4 0 0 0 0 0 0 0 0 0
FullNghs:         22.5 ave          45 max           0 min
Histogram: 2 0 0 0 0 0 0 0 0 2

Total # of neighbors = 90
Ave neighs/atom = 9
Neighbor list builds = 126
Dangerous builds = 0

write_data	restart.data
System init for write_data ...
Generated 0 of 1 mixed pair_coeff terms from geometric mixing rule
#
Total wall time: 0:05:23
