LAMMPS data file via write_data, version 2 Aug 2023, timestep = 50000, units = metal

10 atoms
2 atom types

0 15 xlo xhi
0 15 ylo yhi
0 15 zlo zhi

Masses

1 12
2 2

Atoms # atomic

8 2 8.749889019422039 6.682725919918918 7.096223185391737 0 0 0
4 1 7.123323557701924 7.1387907156649995 5.697045518410557 0 0 0
10 2 7.540314388844223 6.701329204676 4.8138773300719695 0 0 0
3 1 7.706968657508284 7.204637174293577 6.9396476281343835 0 0 0
6 2 8.779213679127084 7.165585596381618 9.405849961750128 0 0 0
9 2 6.074211549723351 7.563116110036472 5.478299433165963 0 0 0
7 2 6.296417448938165 8.429596397710899 8.082121830362489 0 0 0
1 1 7.932306502220063 7.859549544363507 9.225711084077181 0 0 0
5 2 7.731103474220658 8.466921294847678 10.133480857188493 0 0 0
2 1 7.229543022654495 7.832143478658122 8.117453669477214 0 0 0

Velocities

8 5.427225811025166 8.582816487798402 6.980796943845406
4 1.659903894366087 1.6262920803296959 1.8719696830077899
10 6.460763517901454 -4.171729721094933 -3.790978440099588
3 0.06620185247796004 -0.15398005084247393 -3.208157003201159
6 -8.966764196379051 -2.8824011929148896 11.481867583586867
9 -9.762736504241708 7.156112333926068 -4.677274935607153
7 5.465177762768074 -3.5821074387181726 14.64107637907003
1 0.30627163876497027 -3.469922644124915 -12.11496157514502
5 -16.72238507815769 -7.752278387843758 26.06976978674493
2 0.9840757289047426 2.4392086011124103 5.000272675748454
