ITEM: TIMESTEP
0
ITEM: NUMBER OF ATOMS
10
ITEM: BOX BOUNDS pp pp pp
0.0000000000000000e+00 1.5000000000000000e+01
0.0000000000000000e+00 1.5000000000000000e+01
0.0000000000000000e+00 1.5000000000000000e+01
ITEM: ATOMS id type x y z
10 2 5.21667 7.43854 7.61081
4 1 6.23586 7.62112 7.76866
7 2 9.00434 8.16683 6.40108
8 2 6.67566 7.24857 5.63145
9 2 6.46996 8.12264 8.70748
1 1 8.52148 7.4211 8.33056
3 1 6.97859 7.35211 6.68816
2 1 8.34216 7.57762 7.02339
6 2 7.87555 6.67272 8.76602
5 2 9.4133 7.73898 8.90752
ITEM: TIMESTEP
100
ITEM: NUMBER OF ATOMS
10
ITEM: BOX BOUNDS pp pp pp
0.0000000000000000e+00 1.5000000000000000e+01
0.0000000000000000e+00 1.5000000000000000e+01
0.0000000000000000e+00 1.5000000000000000e+01
ITEM: ATOMS id type x y z
10 2 5.36726 7.05559 8.05567
4 1 6.25346 7.66402 7.58564
7 2 9.15252 8.16034 6.50868
8 2 6.91147 7.13887 5.58272
9 2 6.40054 8.59042 8.1169
1 1 8.30787 7.36266 8.46346
3 1 7.10766 7.35457 6.58754
2 1 8.39224 7.61695 7.11704
6 2 7.74272 6.5889 8.98284
5 2 9.18209 7.69668 9.12014
ITEM: TIMESTEP
200
ITEM: NUMBER OF ATOMS
10
ITEM: BOX BOUNDS pp pp pp
0.0000000000000000e+00 1.5000000000000000e+01
0.0000000000000000e+00 1.5000000000000000e+01
0.0000000000000000e+00 1.5000000000000000e+01
ITEM: ATOMS id type x y z
10 2 5.24018 7.39986 7.11148
4 1 6.22841 7.62321 7.52585
7 2 9.39835 7.89709 6.74906
8 2 6.98038 6.84042 5.66888
9 2 6.13395 8.38165 8.34304
1 1 8.25535 7.4554 8.51074
3 1 7.18284 7.36028 6.62996
2 1 8.45911 7.59992 7.1651
6 2 7.59472 6.68347 8.86933
5 2 9.02211 7.78466 9.15735
ITEM: TIMESTEP
300
ITEM: NUMBER OF ATOMS
10
ITEM: BOX BOUNDS pp pp pp
0.0000000000000000e+00 1.5000000000000000e+01
0.0000000000000000e+00 1.5000000000000000e+01
0.0000000000000000e+00 1.5000000000000000e+01
ITEM: ATOMS id type x y z
10 2 5.29653 7.12631 7.4848
4 1 6.22559 7.66579 7.40925
7 2 9.49876 7.80306 6.94645
8 2 7.1929 6.84435 5.57545
9 2 6.269 8.61317 7.85871
1 1 8.14022 7.4444 8.58613
3 1 7.2798 7.3524 6.53223
2 1 8.44157 7.59459 7.24801
6 2 7.50617 6.64432 8.98657
5 2 8.83755 7.84567 9.38328
ITEM: TIMESTEP
400
ITEM: NUMBER OF ATOMS
10
ITEM: BOX BOUNDS pp pp pp
0.0000000000000000e+00 1.5000000000000000e+01
0.0000000000000000e+00 1.5000000000000000e+01
0.0000000000000000e+00 1.5000000000000000e+01
ITEM: ATOMS id type x y z
10 2 5.21162 7.4759 6.86271
4 1 6.2389 7.65439 7.27019
7 2 9.40512 7.94783 7.01397
8 2 7.15931 6.76623 5.60541
9 2 6.225 8.43126 8.07238
1 1 8.10382 7.4776 8.62235
3 1 7.32561 7.27181 6.56056
2 1 8.47823 7.59043 7.36403
6 2 7.44636 6.72278 9.01883
5 2 8.79725 7.91056 9.41291
ITEM: TIMESTEP
500
ITEM: NUMBER OF ATOMS
10
ITEM: BOX BOUNDS pp pp pp
0.0000000000000000e+00 1.5000000000000000e+01
0.0000000000000000e+00 1.5000000000000000e+01
0.0000000000000000e+00 1.5000000000000000e+01
ITEM: ATOMS id type x y z
10 2 5.31347 7.20546 7.05886
4 1 6.28459 7.69468 7.2229
7 2 9.48336 7.89678 7.12716
8 2 7.50119 6.73123 5.54706
9 2 6.32383 8.55517 7.88774
1 1 7.99261 7.50591 8.68625
3 1 7.38005 7.26776 6.50185
2 1 8.439 7.57565 7.39191
6 2 7.29471 6.73884 9.01148
5 2 8.62995 7.82856 9.43914
ITEM: TIMESTEP
600
ITEM: NUMBER OF ATOMS
10
ITEM: BOX BOUNDS pp pp pp
0.0000000000000000e+00 1.5000000000000000e+01
0.0000000000000000e+00 1.5000000000000000e+01
0.0000000000000000e+00 1.5000000000000000e+01
ITEM: ATOMS id type x y z
10 2 5.3323 7.33928 6.65156
4 1 6.27486 7.69035 7.10953
7 2 9.54788 7.76361 7.13627
8 2 7.6296 6.76254 5.6355
9 2 6.11519 8.45355 7.86059
1 1 7.86957 7.52778 8.71042
3 1 7.45228 7.27836 6.58377
2 1 8.52271 7.5347 7.43878
6 2 7.28784 6.70304 9.03475
5 2 8.49465 8.01088 9.51533
ITEM: TIMESTEP
700
ITEM: NUMBER OF ATOMS
10
ITEM: BOX BOUNDS pp pp pp
0.0000000000000000e+00 1.5000000000000000e+01
0.0000000000000000e+00 1.5000000000000000e+01
0.0000000000000000e+00 1.5000000000000000e+01
ITEM: ATOMS id type x y z
10 2 5.3609 7.3254 6.6437
4 1 6.35189 7.69161 6.95452
7 2 9.52382 7.81162 7.44171
8 2 7.83593 6.50581 5.85062
9 2 6.2612 8.4899 7.69231
1 1 7.80846 7.53292 8.72655
3 1 7.52682 7.26552 6.54114
2 1 8.47792 7.57569 7.55943
6 2 6.84077 6.85667 8.87419
5 2 8.31089 7.83614 9.69661
ITEM: TIMESTEP
800
ITEM: NUMBER OF ATOMS
10
ITEM: BOX BOUNDS pp pp pp
0.0000000000000000e+00 1.5000000000000000e+01
0.0000000000000000e+00 1.5000000000000000e+01
0.0000000000000000e+00 1.5000000000000000e+01
ITEM: ATOMS id type x y z
10 2 5.49472 7.46987 6.25365
4 1 6.3806 7.65082 6.85724
7 2 9.54887 7.73689 7.70361
8 2 7.90562 6.57216 5.71411
9 2 6.32837 8.47652 7.54016
1 1 7.67556 7.56142 8.7613
3 1 7.65628 7.2451 6.54837
2 1 8.46639 7.52714 7.68274
6 2 6.8809 6.95064 8.86658
5 2 7.89253 8.10711 9.71295
ITEM: TIMESTEP
900
ITEM: NUMBER OF ATOMS
10
ITEM: BOX BOUNDS pp pp pp
0.0000000000000000e+00 1.5000000000000000e+01
0.0000000000000000e+00 1.5000000000000000e+01
0.0000000000000000e+00 1.5000000000000000e+01
ITEM: ATOMS id type x y z
10 2 5.63934 7.43212 6.06572
4 1 6.47778 7.66346 6.79403
7 2 9.48845 7.68616 7.97006
8 2 7.97589 6.56653 5.63044
9 2 6.38751 8.69534 7.14856
1 1 7.49876 7.58678 8.78541
3 1 7.79754 7.18044 6.55282
2 1 8.42487 7.55627 7.7688
6 2 6.67087 6.85 8.99513
5 2 7.76826 8.06812 9.67271
ITEM: TIMESTEP
1000
ITEM: NUMBER OF ATOMS
10
ITEM: BOX BOUNDS pp pp pp
0.0000000000000000e+00 1.5000000000000000e+01
0.0000000000000000e+00 1.5000000000000000e+01
0.0000000000000000e+00 1.5000000000000000e+01
ITEM: ATOMS id type x y z
10 2 5.84782 7.41055 5.88428
4 1 6.57506 7.67107 6.68158
7 2 9.43927 7.71076 8.15699
8 2 8.15924 6.53398 5.78313
9 2 6.34021 8.60641 7.2407
1 1 7.42402 7.59135 8.78384
3 1 7.79646 7.1548 6.57781
2 1 8.40792 7.54447 7.8399
6 2 6.49593 7.07055 8.73715
5 2 7.62077 8.11763 9.78799
ITEM: TIMESTEP
1100
ITEM: NUMBER OF ATOMS
10
ITEM: BOX BOUNDS pp pp pp
0.0000000000000000e+00 1.5000000000000000e+01
0.0000000000000000e+00 1.5000000000000000e+01
0.0000000000000000e+00 1.5000000000000000e+01
ITEM: ATOMS id type x y z
10 2 5.84415 7.43732 5.93905
4 1 6.62423 7.70104 6.58776
7 2 9.47552 7.71351 8.15034
8 2 8.24348 6.40877 5.92617
9 2 6.38981 8.49371 7.20858
1 1 7.32114 7.60298 8.75709
3 1 7.87194 7.17092 6.65271
2 1 8.42692 7.51292 7.91566
6 2 6.38745 7.04745 8.50774
5 2 7.31824 8.19208 9.67773
ITEM: TIMESTEP
1200
ITEM: NUMBER OF ATOMS
10
ITEM: BOX BOUNDS pp pp pp
0.0000000000000000e+00 1.5000000000000000e+01
0.0000000000000000e+00 1.5000000000000000e+01
0.0000000000000000e+00 1.5000000000000000e+01
ITEM: ATOMS id type x y z
10 2 5.99162 7.33296 5.70068
4 1 6.68907 7.69676 6.51055
7 2 9.37131 7.701 8.37699
8 2 8.43434 6.40884 6.09589
9 2 6.38849 8.68129 6.96522
1 1 7.21763 7.65063 8.725
3 1 7.93844 7.1876 6.66045
2 1 8.36529 7.46087 7.99068
6 2 6.34472 7.048 8.6877
5 2 7.33092 8.07271 9.74252
ITEM: TIMESTEP
1300
ITEM: NUMBER OF ATOMS
10
ITEM: BOX BOUNDS pp pp pp
0.0000000000000000e+00 1.5000000000000000e+01
0.0000000000000000e+00 1.5000000000000000e+01
0.0000000000000000e+00 1.5000000000000000e+01
ITEM: ATOMS id type x y z
10 2 6.28092 7.36871 5.44704
4 1 6.79498 7.72924 6.45042
7 2 9.26847 7.73354 8.45166
8 2 8.53552 6.40996 6.15863
9 2 6.34639 8.64676 6.92781
1 1 7.12698 7.67089 8.67962
3 1 7.98846 7.14558 6.73888
2 1 8.29491 7.44215 8.0912
6 2 6.31598 6.92849 8.54949
5 2 7.14467 8.20531 9.59362
ITEM: TIMESTEP
1400
ITEM: NUMBER OF ATOMS
10
ITEM: BOX BOUNDS pp pp pp
0.0000000000000000e+00 1.5000000000000000e+01
0.0000000000000000e+00 1.5000000000000000e+01
0.0000000000000000e+00 1.5000000000000000e+01
ITEM: ATOMS id type x y z
10 2 6.19241 7.29549 5.72469
4 1 6.9005 7.7245 6.3777
7 2 9.23702 7.63624 8.60516
8 2 8.69038 6.38758 6.176
9 2 6.60805 8.62287 6.87088
1 1 6.97394 7.66236 8.61522
3 1 8.1248 7.1295 6.79041
2 1 8.25093 7.4754 8.1534
6 2 6.09293 7.19658 8.2835
5 2 6.80218 8.13072 9.60839
ITEM: TIMESTEP
1500
ITEM: NUMBER OF ATOMS
10
ITEM: BOX BOUNDS pp pp pp
0.0000000000000000e+00 1.5000000000000000e+01
0.0000000000000000e+00 1.5000000000000000e+01
0.0000000000000000e+00 1.5000000000000000e+01
ITEM: ATOMS id type x y z
10 2 6.90011 7.47015 5.25682
4 1 7.04578 7.72369 6.3076
7 2 8.9627 7.76837 8.91851
8 2 8.73733 6.43626 6.23241
9 2 6.50803 8.65356 6.51616
1 1 6.89428 7.7001 8.63575
3 1 8.10367 7.07267 6.84786
2 1 8.15709 7.45466 8.20369
6 2 6.06997 6.97727 8.37393
5 2 6.74094 8.20767 9.62177
ITEM: TIMESTEP
1600
ITEM: NUMBER OF ATOMS
10
ITEM: BOX BOUNDS pp pp pp
0.0000000000000000e+00 1.5000000000000000e+01
0.0000000000000000e+00 1.5000000000000000e+01
0.0000000000000000e+00 1.5000000000000000e+01
ITEM: ATOMS id type x y z
10 2 6.48239 7.23748 5.4821
4 1 7.20077 7.73816 6.27116
7 2 8.78522 7.57102 9.09766
8 2 8.97181 6.41364 6.51336
9 2 6.84926 8.7334 6.57433
1 1 6.73754 7.68029 8.47297
3 1 8.23669 7.10618 6.9229
2 1 8.1026 7.45724 8.29754
6 2 5.92694 7.1522 8.04568
5 2 6.44278 8.22103 9.38847
ITEM: TIMESTEP
1700
ITEM: NUMBER OF ATOMS
10
ITEM: BOX BOUNDS pp pp pp
0.0000000000000000e+00 1.5000000000000000e+01
0.0000000000000000e+00 1.5000000000000000e+01
0.0000000000000000e+00 1.5000000000000000e+01
ITEM: ATOMS id type x y z
10 2 7.32806 7.42554 5.18419
4 1 7.34696 7.72571 6.24863
7 2 8.75043 7.7299 9.1631
8 2 8.83435 6.27012 6.65376
9 2 6.67163 8.58643 6.49303
1 1 6.66843 7.68499 8.42436
3 1 8.2158 7.11251 6.99963
2 1 7.98979 7.44978 8.37548
6 2 5.94375 7.13097 7.83721
5 2 6.26992 8.23906 9.26909
ITEM: TIMESTEP
1800
ITEM: NUMBER OF ATOMS
10
ITEM: BOX BOUNDS pp pp pp
0.0000000000000000e+00 1.5000000000000000e+01
0.0000000000000000e+00 1.5000000000000000e+01
0.0000000000000000e+00 1.5000000000000000e+01
ITEM: ATOMS id type x y z
10 2 7.13507 7.30597 5.32937
4 1 7.43449 7.73356 6.23504
7 2 8.48098 7.6482 9.23331
8 2 9.13265 6.39457 6.9073
9 2 7.11068 8.72651 6.35686
1 1 6.53696 7.72389 8.31888
3 1 8.35913 7.11472 7.07811
2 1 7.90144 7.39123 8.36431
6 2 5.73249 7.13518 7.83025
5 2 6.14001 8.22916 9.25391
ITEM: TIMESTEP
1900
ITEM: NUMBER OF ATOMS
10
ITEM: BOX BOUNDS pp pp pp
0.0000000000000000e+00 1.5000000000000000e+01
0.0000000000000000e+00 1.5000000000000000e+01
0.0000000000000000e+00 1.5000000000000000e+01
ITEM: ATOMS id type x y z
10 2 7.70714 7.42483 5.13395
4 1 7.56576 7.72035 6.20907
7 2 8.43871 7.75845 9.27133
8 2 9.07273 6.33412 6.86872
9 2 6.9386 8.61243 6.37884
1 1 6.52368 7.70387 8.26952
3 1 8.28346 7.11641 7.15247
2 1 7.80871 7.4081 8.44278
6 2 5.83875 7.11603 7.69524
5 2 6.03836 8.28182 9.09791
ITEM: TIMESTEP
2000
ITEM: NUMBER OF ATOMS
10
ITEM: BOX BOUNDS pp pp pp
0.0000000000000000e+00 1.5000000000000000e+01
0.0000000000000000e+00 1.5000000000000000e+01
0.0000000000000000e+00 1.5000000000000000e+01
ITEM: ATOMS id type x y z
10 2 7.37537 7.24126 5.24391
4 1 7.63508 7.74404 6.24563
7 2 8.12873 7.68446 9.43545
8 2 9.08863 6.32982 7.13321
9 2 7.28737 8.78319 6.31198
1 1 6.45973 7.70735 8.14661
3 1 8.40991 7.08049 7.24975
2 1 7.75116 7.45095 8.44579
6 2 5.88235 7.21451 7.34102
5 2 5.8262 8.06981 8.89673
ITEM: TIMESTEP
2100
ITEM: NUMBER OF ATOMS
10
ITEM: BOX BOUNDS pp pp pp
0.0000000000000000e+00 1.5000000000000000e+01
0.0000000000000000e+00 1.5000000000000000e+01
0.0000000000000000e+00 1.5000000000000000e+01
ITEM: ATOMS id type x y z
10 2 8.30133 7.42073 5.32793
4 1 7.78438 7.70519 6.24668
7 2 7.96789 7.60563 9.52312
8 2 9.27449 6.50042 7.03509
9 2 7.27921 8.65854 6.15837
1 1 6.36968 7.71698 8.01159
3 1 8.32855 7.09829 7.36793
2 1 7.64285 7.42449 8.48887
6 2 5.85282 6.99775 7.47267
5 2 5.69547 8.36731 8.68137
ITEM: TIMESTEP
2200
ITEM: NUMBER OF ATOMS
10
ITEM: BOX BOUNDS pp pp pp
0.0000000000000000e+00 1.5000000000000000e+01
0.0000000000000000e+00 1.5000000000000000e+01
0.0000000000000000e+00 1.5000000000000000e+01
ITEM: ATOMS id type x y z
10 2 7.99265 7.36901 5.33636
4 1 7.94692 7.69701 6.33679
7 2 7.679 7.69069 9.51885
8 2 9.17313 6.36387 7.47516
9 2 7.47799 8.67642 6.35341
1 1 6.31098 7.69024 7.89684
3 1 8.44688 7.09694 7.4525
2 1 7.53793 7.48181 8.4638
6 2 5.94244 7.16565 6.93541
5 2 5.40257 8.15837 8.37022
ITEM: TIMESTEP
2300
ITEM: NUMBER OF ATOMS
10
ITEM: BOX BOUNDS pp pp pp
0.0000000000000000e+00 1.5000000000000000e+01
0.0000000000000000e+00 1.5000000000000000e+01
0.0000000000000000e+00 1.5000000000000000e+01
ITEM: ATOMS id type x y z
10 2 8.63091 7.42537 5.39773
4 1 8.04798 7.67275 6.38034
7 2 7.52128 7.74071 9.5153
8 2 9.23368 6.38299 7.6701
9 2 7.4524 8.57066 6.31218
1 1 6.25124 7.68185 7.77901
3 1 8.40853 7.12978 7.51783
2 1 7.41331 7.45202 8.46134
6 2 6.07944 7.20705 6.87333
5 2 5.47995 8.27478 8.28924
ITEM: TIMESTEP
2400
ITEM: NUMBER OF ATOMS
10
ITEM: BOX BOUNDS pp pp pp
0.0000000000000000e+00 1.5000000000000000e+01
0.0000000000000000e+00 1.5000000000000000e+01
0.0000000000000000e+00 1.5000000000000000e+01
ITEM: ATOMS id type x y z
10 2 8.63049 7.39236 5.44935
4 1 8.13842 7.69128 6.38709
7 2 7.40506 7.71571 9.55993
8 2 9.16293 6.38171 7.7914
9 2 7.72653 8.7123 6.35323
1 1 6.23706 7.65184 7.66835
3 1 8.42148 7.13333 7.63887
2 1 7.32603 7.46566 8.49763
6 2 6.04077 7.08624 6.70381
5 2 5.4203 8.279 7.87963
ITEM: TIMESTEP
2500
ITEM: NUMBER OF ATOMS
10
ITEM: BOX BOUNDS pp pp pp
0.0000000000000000e+00 1.5000000000000000e+01
0.0000000000000000e+00 1.5000000000000000e+01
0.0000000000000000e+00 1.5000000000000000e+01
ITEM: ATOMS id type x y z
10 2 8.83484 7.24699 5.67781
4 1 8.22611 7.66837 6.45118
7 2 7.09324 7.61088 9.50597
8 2 9.18888 6.3823 7.98438
9 2 7.86397 8.66806 6.32668
1 1 6.24417 7.64807 7.55385
3 1 8.42963 7.17164 7.70234
2 1 7.21794 7.50895 8.42236
6 2 6.18532 7.2285 6.60403
5 2 5.2507 8.10111 8.01178
ITEM: TIMESTEP
2600
ITEM: NUMBER OF ATOMS
10
ITEM: BOX BOUNDS pp pp pp
0.0000000000000000e+00 1.5000000000000000e+01
0.0000000000000000e+00 1.5000000000000000e+01
0.0000000000000000e+00 1.5000000000000000e+01
ITEM: ATOMS id type x y z
10 2 9.1887 7.40501 5.89655
4 1 8.31629 7.69973 6.55092
7 2 6.92813 7.72164 9.52784
8 2 9.22057 6.50531 8.06133
9 2 7.94474 8.70372 6.31453
1 1 6.24128 7.61579 7.37933
3 1 8.36689 7.13527 7.80845
2 1 7.11443 7.48671 8.47271
6 2 6.16019 6.86802 6.49055
5 2 5.44835 8.39129 7.3297
ITEM: TIMESTEP
2700
ITEM: NUMBER OF ATOMS
10
ITEM: BOX BOUNDS pp pp pp
0.0000000000000000e+00 1.5000000000000000e+01
0.0000000000000000e+00 1.5000000000000000e+01
0.0000000000000000e+00 1.5000000000000000e+01
ITEM: ATOMS id type x y z
10 2 9.2596 7.21345 5.98834
4 1 8.47093 7.6619 6.69399
7 2 6.55013 7.82701 9.28356
8 2 9.15857 6.57881 8.43841
9 2 8.05558 8.66518 6.47217
1 1 6.19678 7.60422 7.20209
3 1 8.39196 7.19319 7.96869
2 1 7.0065 7.48016 8.32114
6 2 6.46023 7.20681 6.2809
5 2 5.2429 8.09188 7.31021
ITEM: TIMESTEP
2800
ITEM: NUMBER OF ATOMS
10
ITEM: BOX BOUNDS pp pp pp
0.0000000000000000e+00 1.5000000000000000e+01
0.0000000000000000e+00 1.5000000000000000e+01
0.0000000000000000e+00 1.5000000000000000e+01
ITEM: ATOMS id type x y z
10 2 9.52658 7.3775 6.38527
4 1 8.53032 7.69446 6.74898
7 2 6.44619 7.87282 9.27122
8 2 9.02292 6.52278 8.5097
9 2 8.295 8.68134 6.30216
1 1 6.31269 7.57745 7.07128
3 1 8.25596 7.21136 8.04161
2 1 6.89106 7.4773 8.33935
6 2 6.50173 6.84301 6.27135
5 2 5.39144 8.15914 6.94201
ITEM: TIMESTEP
2900
ITEM: NUMBER OF ATOMS
10
ITEM: BOX BOUNDS pp pp pp
0.0000000000000000e+00 1.5000000000000000e+01
0.0000000000000000e+00 1.5000000000000000e+01
0.0000000000000000e+00 1.5000000000000000e+01
ITEM: ATOMS id type x y z
10 2 9.44019 7.15152 6.40238
4 1 8.64228 7.69368 6.89141
7 2 6.3181 7.82122 9.12608
8 2 8.74573 6.54799 8.68991
9 2 8.24707 8.59316 6.41704
1 1 6.36643 7.54737 7.00659
3 1 8.21437 7.264 8.0889
2 1 6.812 7.50483 8.23623
6 2 6.81822 7.08183 6.11448
5 2 5.34416 7.965 6.80035
ITEM: TIMESTEP
3000
ITEM: NUMBER OF ATOMS
10
ITEM: BOX BOUNDS pp pp pp
0.0000000000000000e+00 1.5000000000000000e+01
0.0000000000000000e+00 1.5000000000000000e+01
0.0000000000000000e+00 1.5000000000000000e+01
ITEM: ATOMS id type x y z
10 2 9.67766 7.35547 6.62406
4 1 8.67062 7.74309 7.00428
7 2 6.2637 8.08786 8.96077
8 2 8.73988 6.62097 8.91109
9 2 8.40591 8.57975 6.3498
1 1 6.38877 7.54706 6.86145
3 1 8.1434 7.19742 8.17463
2 1 6.7821 7.47452 8.17024
6 2 6.69773 6.80423 6.16996
5 2 5.4298 7.99919 6.60969
ITEM: TIMESTEP
3100
ITEM: NUMBER OF ATOMS
10
ITEM: BOX BOUNDS pp pp pp
0.0000000000000000e+00 1.5000000000000000e+01
0.0000000000000000e+00 1.5000000000000000e+01
0.0000000000000000e+00 1.5000000000000000e+01
ITEM: ATOMS id type x y z
10 2 9.53409 7.08744 6.76067
4 1 8.70955 7.68827 7.10764
7 2 6.02105 7.87809 8.75336
8 2 8.57712 6.9164 9.13585
9 2 8.32203 8.59391 6.66144
1 1 6.50614 7.57657 6.73003
3 1 8.09747 7.28938 8.25979
2 1 6.73105 7.43094 8.09552
6 2 6.87888 6.88971 5.94294
5 2 5.52558 7.94342 6.47693
ITEM: TIMESTEP
3200
ITEM: NUMBER OF ATOMS
10
ITEM: BOX BOUNDS pp pp pp
0.0000000000000000e+00 1.5000000000000000e+01
0.0000000000000000e+00 1.5000000000000000e+01
0.0000000000000000e+00 1.5000000000000000e+01
ITEM: ATOMS id type x y z
10 2 9.81782 7.51487 7.14301
4 1 8.7491 7.69453 7.30472
7 2 5.77419 8.0731 8.61571
8 2 8.42358 6.49847 8.94778
9 2 8.58266 8.50103 6.54928
1 1 6.61908 7.452 6.67164
3 1 7.97358 7.26568 8.2818
2 1 6.58058 7.58104 7.98667
6 2 7.24404 6.78916 6.1067
5 2 5.74772 7.88391 6.05758
ITEM: TIMESTEP
3300
ITEM: NUMBER OF ATOMS
10
ITEM: BOX BOUNDS pp pp pp
0.0000000000000000e+00 1.5000000000000000e+01
0.0000000000000000e+00 1.5000000000000000e+01
0.0000000000000000e+00 1.5000000000000000e+01
ITEM: ATOMS id type x y z
10 2 9.71088 7.09363 7.34838
4 1 8.79854 7.66801 7.39814
7 2 5.50149 7.55197 8.16209
8 2 8.09946 7.05672 9.39577
9 2 8.78265 8.66176 6.99597
1 1 6.7494 7.47851 6.48413
3 1 7.84886 7.40061 8.43005
2 1 6.54924 7.49148 7.87966
6 2 7.3098 6.63011 6.02142
5 2 6.04351 7.99412 5.81351
ITEM: TIMESTEP
3400
ITEM: NUMBER OF ATOMS
10
ITEM: BOX BOUNDS pp pp pp
0.0000000000000000e+00 1.5000000000000000e+01
0.0000000000000000e+00 1.5000000000000000e+01
0.0000000000000000e+00 1.5000000000000000e+01
ITEM: ATOMS id type x y z
10 2 9.82189 7.44709 7.97124
4 1 8.7414 7.70042 7.61197
7 2 5.53036 7.97379 8.03139
8 2 7.97392 6.81617 9.42506
9 2 8.737 8.54779 6.86084
1 1 6.88749 7.39881 6.38327
3 1 7.73686 7.33356 8.41661
2 1 6.5144 7.56658 7.73754
6 2 7.50762 6.58244 6.12395
5 2 6.27238 7.8565 5.5802
ITEM: TIMESTEP
3500
ITEM: NUMBER OF ATOMS
10
ITEM: BOX BOUNDS pp pp pp
0.0000000000000000e+00 1.5000000000000000e+01
0.0000000000000000e+00 1.5000000000000000e+01
0.0000000000000000e+00 1.5000000000000000e+01
ITEM: ATOMS id type x y z
10 2 9.69097 7.25408 8.02668
4 1 8.7307 7.70303 7.76106
7 2 5.55098 7.80466 7.94336
8 2 7.63122 7.13018 9.48261
9 2 8.77604 8.49554 7.04218
1 1 7.01789 7.40794 6.30762
3 1 7.61409 7.40784 8.48103
2 1 6.53009 7.50926 7.58873
6 2 7.65489 6.52143 6.06412
5 2 6.46331 7.84568 5.49938
ITEM: TIMESTEP
3600
ITEM: NUMBER OF ATOMS
10
ITEM: BOX BOUNDS pp pp pp
0.0000000000000000e+00 1.5000000000000000e+01
0.0000000000000000e+00 1.5000000000000000e+01
0.0000000000000000e+00 1.5000000000000000e+01
ITEM: ATOMS id type x y z
10 2 9.615 7.33283 8.22704
4 1 8.70873 7.77265 7.87452
7 2 5.58969 8.1198 7.65451
8 2 7.34702 6.90036 9.48383
9 2 8.75441 8.47859 7.03674
1 1 7.13041 7.34605 6.30288
3 1 7.53936 7.37065 8.48068
2 1 6.52076 7.53829 7.50143
6 2 7.83462 6.58077 6.17723
5 2 6.5877 7.6418 5.35256
ITEM: TIMESTEP
3700
ITEM: NUMBER OF ATOMS
10
ITEM: BOX BOUNDS pp pp pp
0.0000000000000000e+00 1.5000000000000000e+01
0.0000000000000000e+00 1.5000000000000000e+01
0.0000000000000000e+00 1.5000000000000000e+01
ITEM: ATOMS id type x y z
10 2 9.69605 7.33357 8.42742
4 1 8.71668 7.73923 7.99136
7 2 5.52473 7.97655 7.44695
8 2 7.1696 7.09564 9.46775
9 2 8.84196 8.3173 7.08663
1 1 7.21209 7.34356 6.29459
3 1 7.42406 7.44658 8.4721
2 1 6.48506 7.50768 7.38908
6 2 8.05724 6.61631 6.23816
5 2 6.80704 7.65834 5.33932
ITEM: TIMESTEP
3800
ITEM: NUMBER OF ATOMS
10
ITEM: BOX BOUNDS pp pp pp
0.0000000000000000e+00 1.5000000000000000e+01
0.0000000000000000e+00 1.5000000000000000e+01
0.0000000000000000e+00 1.5000000000000000e+01
ITEM: ATOMS id type x y z
10 2 9.48095 7.43375 8.78514
4 1 8.62558 7.74222 8.12837
7 2 5.54377 8.07306 7.05252
8 2 7.13708 6.98967 9.4076
9 2 8.96934 8.4977 7.36741
1 1 7.35582 7.29126 6.2608
3 1 7.34773 7.46891 8.45898
2 1 6.51905 7.56217 7.28622
6 2 7.93712 6.4164 6.23557
5 2 6.96658 7.42208 5.23454
ITEM: TIMESTEP
3900
ITEM: NUMBER OF ATOMS
10
ITEM: BOX BOUNDS pp pp pp
0.0000000000000000e+00 1.5000000000000000e+01
0.0000000000000000e+00 1.5000000000000000e+01
0.0000000000000000e+00 1.5000000000000000e+01
ITEM: ATOMS id type x y z
10 2 9.27749 7.28189 8.87342
4 1 8.50233 7.70702 8.22311
7 2 5.54579 7.81566 6.84123
8 2 6.84002 7.23014 9.43529
9 2 8.88468 8.3114 7.46411
1 1 7.55313 7.25482 6.24829
3 1 7.18292 7.55205 8.44056
2 1 6.55146 7.57675 7.17923
6 2 8.29875 6.49017 6.53008
5 2 7.53821 7.54688 5.19771
ITEM: TIMESTEP
4000
ITEM: NUMBER OF ATOMS
10
ITEM: BOX BOUNDS pp pp pp
0.0000000000000000e+00 1.5000000000000000e+01
0.0000000000000000e+00 1.5000000000000000e+01
0.0000000000000000e+00 1.5000000000000000e+01
ITEM: ATOMS id type x y z
10 2 8.93466 7.65454 9.2672
4 1 8.4031 7.71222 8.33014
7 2 5.8088 8.12856 6.5465
8 2 6.64311 7.13547 9.32257
9 2 8.93197 8.40318 7.58509
1 1 7.70175 7.16779 6.27467
3 1 7.06287 7.50532 8.40376
2 1 6.628 7.63762 7.07855
6 2 8.40634 6.31988 6.48766
5 2 7.6248 7.4407 5.15725
ITEM: TIMESTEP
4100
ITEM: NUMBER OF ATOMS
10
ITEM: BOX BOUNDS pp pp pp
0.0000000000000000e+00 1.5000000000000000e+01
0.0000000000000000e+00 1.5000000000000000e+01
0.0000000000000000e+00 1.5000000000000000e+01
ITEM: ATOMS id type x y z
10 2 8.90135 7.32835 9.32765
4 1 8.32068 7.69964 8.42892
7 2 5.76068 7.82082 6.45977
8 2 6.33891 7.32681 9.15981
9 2 8.89876 8.33106 7.82868
1 1 7.78405 7.14589 6.28184
3 1 6.9751 7.63779 8.34129
2 1 6.70222 7.59205 6.96553
6 2 8.49283 6.48506 6.73538
5 2 8.03922 7.47568 5.27223
ITEM: TIMESTEP
4200
ITEM: NUMBER OF ATOMS
10
ITEM: BOX BOUNDS pp pp pp
0.0000000000000000e+00 1.5000000000000000e+01
0.0000000000000000e+00 1.5000000000000000e+01
0.0000000000000000e+00 1.5000000000000000e+01
ITEM: ATOMS id type x y z
10 2 8.65841 7.52991 9.55089
4 1 8.23057 7.72204 8.54786
7 2 5.93768 8.09111 6.36047
8 2 6.19827 7.16049 8.97202
9 2 8.88002 8.37053 7.89078
1 1 7.84938 7.09417 6.33474
3 1 6.91854 7.60769 8.27243
2 1 6.78588 7.62538 6.84147
6 2 8.59118 6.48796 6.80434
5 2 8.15222 7.28433 5.33147
ITEM: TIMESTEP
4300
ITEM: NUMBER OF ATOMS
10
ITEM: BOX BOUNDS pp pp pp
0.0000000000000000e+00 1.5000000000000000e+01
0.0000000000000000e+00 1.5000000000000000e+01
0.0000000000000000e+00 1.5000000000000000e+01
ITEM: ATOMS id type x y z
10 2 8.56528 7.39174 9.56607
4 1 8.18634 7.70727 8.56553
7 2 6.03171 8.04674 6.17987
8 2 5.89192 7.52114 8.81251
9 2 8.84297 8.32543 7.99451
1 1 8.00399 7.09812 6.39731
3 1 6.80206 7.63377 8.22117
2 1 6.78777 7.57512 6.80864
6 2 8.60856 6.39655 6.98311
5 2 8.50263 7.45273 5.39707
ITEM: TIMESTEP
4400
ITEM: NUMBER OF ATOMS
10
ITEM: BOX BOUNDS pp pp pp
0.0000000000000000e+00 1.5000000000000000e+01
0.0000000000000000e+00 1.5000000000000000e+01
0.0000000000000000e+00 1.5000000000000000e+01
ITEM: ATOMS id type x y z
10 2 8.28863 7.36305 9.57732
4 1 7.99323 7.73004 8.64381
7 2 6.29256 8.16214 5.96502
8 2 5.84596 7.47184 8.73925
9 2 8.66877 8.38251 8.08352
1 1 8.15852 7.07442 6.46043
3 1 6.75653 7.62328 8.17918
2 1 6.90263 7.6394 6.72295
6 2 8.72536 6.35435 7.09939
5 2 8.43725 7.08324 5.3863
ITEM: TIMESTEP
4500
ITEM: NUMBER OF ATOMS
10
ITEM: BOX BOUNDS pp pp pp
0.0000000000000000e+00 1.5000000000000000e+01
0.0000000000000000e+00 1.5000000000000000e+01
0.0000000000000000e+00 1.5000000000000000e+01
ITEM: ATOMS id type x y z
10 2 8.12803 7.40231 9.68345
4 1 7.84682 7.73027 8.63654
7 2 6.32181 8.06008 5.8574
8 2 5.72423 7.71414 8.59944
9 2 8.77044 8.08381 8.27837
1 1 8.24428 7.10302 6.56322
3 1 6.68505 7.66676 8.04452
2 1 6.95394 7.54056 6.58757
6 2 8.60115 6.34421 7.27568
5 2 9.1978 7.3718 6.20358
ITEM: TIMESTEP
4600
ITEM: NUMBER OF ATOMS
10
ITEM: BOX BOUNDS pp pp pp
0.0000000000000000e+00 1.5000000000000000e+01
0.0000000000000000e+00 1.5000000000000000e+01
0.0000000000000000e+00 1.5000000000000000e+01
ITEM: ATOMS id type x y z
10 2 7.4524 7.49964 9.75262
4 1 7.72502 7.71707 8.73326
7 2 6.79067 8.11349 5.69913
8 2 5.62155 7.4315 8.3133
9 2 8.52701 8.49636 8.59318
1 1 8.36642 7.04691 6.6733
3 1 6.60961 7.65306 7.90175
2 1 7.16003 7.66984 6.59819
6 2 8.60047 6.28631 7.42885
5 2 8.96541 6.87142 5.66285
ITEM: TIMESTEP
4700
ITEM: NUMBER OF ATOMS
10
ITEM: BOX BOUNDS pp pp pp
0.0000000000000000e+00 1.5000000000000000e+01
0.0000000000000000e+00 1.5000000000000000e+01
0.0000000000000000e+00 1.5000000000000000e+01
ITEM: ATOMS id type x y z
10 2 7.30199 7.48062 9.80419
4 1 7.62198 7.69795 8.78387
7 2 6.77814 8.03217 5.57125
8 2 5.56721 7.64898 8.0497
9 2 8.52065 8.27448 8.63907
1 1 8.42282 7.02206 6.77391
3 1 6.61131 7.70538 7.76017
2 1 7.19259 7.60949 6.52315
6 2 8.5458 6.30816 7.61218
5 2 9.31795 7.26636 6.16602
ITEM: TIMESTEP
4800
ITEM: NUMBER OF ATOMS
10
ITEM: BOX BOUNDS pp pp pp
0.0000000000000000e+00 1.5000000000000000e+01
0.0000000000000000e+00 1.5000000000000000e+01
0.0000000000000000e+00 1.5000000000000000e+01
ITEM: ATOMS id type x y z
10 2 7.1735 7.56501 9.82017
4 1 7.46055 7.72466 8.73482
7 2 7.18571 8.1298 5.61722
8 2 5.45248 7.60844 7.79288
9 2 8.41092 8.2713 8.76122
1 1 8.48203 7.02854 6.84118
3 1 6.58183 7.6888 7.73573
2 1 7.30329 7.59923 6.52217
6 2 8.56121 6.30194 7.61105
5 2 9.37399 7.09613 6.28304
ITEM: TIMESTEP
4900
ITEM: NUMBER OF ATOMS
10
ITEM: BOX BOUNDS pp pp pp
0.0000000000000000e+00 1.5000000000000000e+01
0.0000000000000000e+00 1.5000000000000000e+01
0.0000000000000000e+00 1.5000000000000000e+01
ITEM: ATOMS id type x y z
10 2 6.95097 7.47 9.73157
4 1 7.30683 7.75119 8.72755
7 2 7.38073 8.21063 5.59263
8 2 5.54022 7.71826 7.713
9 2 8.31093 8.12955 8.71646
1 1 8.54763 7.04203 6.94565
3 1 6.56188 7.70094 7.64471
2 1 7.40136 7.55726 6.50012
6 2 8.48673 6.30174 7.75714
5 2 9.54819 7.08126 6.46997
ITEM: TIMESTEP
5000
ITEM: NUMBER OF ATOMS
10
ITEM: BOX BOUNDS pp pp pp
0.0000000000000000e+00 1.5000000000000000e+01
0.0000000000000000e+00 1.5000000000000000e+01
0.0000000000000000e+00 1.5000000000000000e+01
ITEM: ATOMS id type x y z
10 2 6.72009 7.35507 9.609
4 1 7.20645 7.76594 8.73413
7 2 7.56699 8.15817 5.55227
8 2 5.3525 7.68881 7.51693
9 2 8.19384 8.17314 8.89354
1 1 8.60322 7.02537 7.11939
3 1 6.53025 7.69699 7.48084
2 1 7.522 7.61239 6.45979
6 2 8.45836 6.29047 7.88439
5 2 9.6607 6.95025 6.668
ITEM: TIMESTEP
5100
ITEM: NUMBER OF ATOMS
10
ITEM: BOX BOUNDS pp pp pp
0.0000000000000000e+00 1.5000000000000000e+01
0.0000000000000000e+00 1.5000000000000000e+01
0.0000000000000000e+00 1.5000000000000000e+01
ITEM: ATOMS id type x y z
10 2 6.19005 7.56786 9.3408
4 1 7.06238 7.7265 8.69479
7 2 7.86125 8.04265 5.43004
8 2 5.52119 7.61633 7.16354
9 2 7.99622 8.2155 9.06902
1 1 8.65445 7.03364 7.28259
3 1 6.54339 7.68829 7.37871
2 1 7.67776 7.64424 6.48905
6 2 8.25468 6.15931 7.83911
5 2 9.67272 7.06231 6.97566
ITEM: TIMESTEP
5200
ITEM: NUMBER OF ATOMS
10
ITEM: BOX BOUNDS pp pp pp
0.0000000000000000e+00 1.5000000000000000e+01
0.0000000000000000e+00 1.5000000000000000e+01
0.0000000000000000e+00 1.5000000000000000e+01
ITEM: ATOMS id type x y z
10 2 6.35068 7.31499 9.50638
4 1 6.83325 7.72147 8.55988
7 2 8.0964 8.02123 5.52034
8 2 5.57195 7.65639 6.7576
9 2 7.72915 8.18145 8.95927
1 1 8.64897 6.99217 7.4005
3 1 6.56534 7.74392 7.27791
2 1 7.83527 7.65705 6.5329
6 2 8.33179 6.34464 8.17783
5 2 9.74707 7.01361 7.34046
ITEM: TIMESTEP
5300
ITEM: NUMBER OF ATOMS
10
ITEM: BOX BOUNDS pp pp pp
0.0000000000000000e+00 1.5000000000000000e+01
0.0000000000000000e+00 1.5000000000000000e+01
0.0000000000000000e+00 1.5000000000000000e+01
ITEM: ATOMS id type x y z
10 2 5.86169 7.79018 9.15163
4 1 6.73313 7.70735 8.51236
7 2 8.32885 8.19169 5.77509
8 2 5.65726 7.64197 6.65683
9 2 7.59979 8.15087 8.97702
1 1 8.69971 7.00355 7.49217
3 1 6.57935 7.67997 7.19815
2 1 7.90705 7.64981 6.60772
6 2 8.36088 6.16115 8.13622
5 2 9.8001 7.04007 7.32987
ITEM: TIMESTEP
5400
ITEM: NUMBER OF ATOMS
10
ITEM: BOX BOUNDS pp pp pp
0.0000000000000000e+00 1.5000000000000000e+01
0.0000000000000000e+00 1.5000000000000000e+01
0.0000000000000000e+00 1.5000000000000000e+01
ITEM: ATOMS id type x y z
10 2 5.8394 7.34776 9.07581
4 1 6.70369 7.70361 8.46641
7 2 8.347 8.09099 5.68855
8 2 5.68554 7.78548 6.4308
9 2 7.48581 8.28091 8.93706
1 1 8.68039 6.98872 7.64305
3 1 6.62065 7.74164 7.03332
2 1 7.94683 7.63743 6.65595
6 2 8.26117 6.17155 8.20151
5 2 9.79578 7.11493 7.76283
ITEM: TIMESTEP
5500
ITEM: NUMBER OF ATOMS
10
ITEM: BOX BOUNDS pp pp pp
0.0000000000000000e+00 1.5000000000000000e+01
0.0000000000000000e+00 1.5000000000000000e+01
0.0000000000000000e+00 1.5000000000000000e+01
ITEM: ATOMS id type x y z
10 2 5.61504 7.42475 8.78787
4 1 6.59077 7.7179 8.34971
7 2 8.43632 8.11502 5.86553
8 2 5.84903 7.58965 6.29478
9 2 7.30683 8.17983 9.03716
1 1 8.64441 7.01493 7.73534
3 1 6.69619 7.71338 6.98958
2 1 8.07475 7.66217 6.7197
6 2 8.18641 6.28444 8.37436
5 2 9.69374 6.97604 7.76332
ITEM: TIMESTEP
5600
ITEM: NUMBER OF ATOMS
10
ITEM: BOX BOUNDS pp pp pp
0.0000000000000000e+00 1.5000000000000000e+01
0.0000000000000000e+00 1.5000000000000000e+01
0.0000000000000000e+00 1.5000000000000000e+01
ITEM: ATOMS id type x y z
10 2 5.62028 7.26537 8.7103
4 1 6.50745 7.71285 8.2356
7 2 8.7668 8.09457 5.94682
8 2 6.14472 7.66779 6.01834
9 2 7.15978 8.20697 8.9524
1 1 8.59025 7.06056 7.88061
3 1 6.74733 7.71701 6.90394
2 1 8.12426 7.61783 6.74235
6 2 8.04273 6.1854 8.29701
5 2 9.5739 7.15045 8.38912
ITEM: TIMESTEP
5700
ITEM: NUMBER OF ATOMS
10
ITEM: BOX BOUNDS pp pp pp
0.0000000000000000e+00 1.5000000000000000e+01
0.0000000000000000e+00 1.5000000000000000e+01
0.0000000000000000e+00 1.5000000000000000e+01
ITEM: ATOMS id type x y z
10 2 5.34588 7.46217 8.40584
4 1 6.33964 7.67905 8.05225
7 2 8.95399 8.18933 6.25492
8 2 6.247 7.58679 5.90302
9 2 6.87824 8.21764 8.80274
1 1 8.58615 7.0333 8.08184
3 1 6.84442 7.69191 6.80731
2 1 8.23096 7.65994 6.83219
6 2 7.98707 6.25969 8.51714
5 2 9.7048 7.11924 8.36377
ITEM: TIMESTEP
5800
ITEM: NUMBER OF ATOMS
10
ITEM: BOX BOUNDS pp pp pp
0.0000000000000000e+00 1.5000000000000000e+01
0.0000000000000000e+00 1.5000000000000000e+01
0.0000000000000000e+00 1.5000000000000000e+01
ITEM: ATOMS id type x y z
10 2 5.22701 7.52528 8.05054