10
 Atoms. Timestep: 0
C 8.52148 7.4211 8.33056
C 8.34216 7.57762 7.02339
C 6.97859 7.35211 6.68816
C 6.23586 7.62112 7.76866
H 9.4133 7.73898 8.90752
H 7.87555 6.67272 8.76602
H 9.00434 8.16683 6.40108
H 6.67566 7.24857 5.63145
H 6.46996 8.12264 8.70748
H 5.21667 7.43854 7.61081
10
 Atoms. Timestep: 20
C 8.42808 7.36065 8.35043
C 8.39916 7.65286 7.00679
C 7.0366 7.37637 6.68571
C 6.24596 7.63011 7.74891
H 9.30412 7.71599 8.88172
H 7.8344 6.68824 8.90832
H 9.08771 8.15529 6.35503
H 6.63753 6.98245 5.7378
H 6.42526 8.17067 8.66708
H 5.17619 7.38736 7.588
10
 Atoms. Timestep: 40
C 8.413 7.34827 8.33948
C 8.40003 7.68153 7.04821
C 7.05236 7.42059 6.64141
C 6.24211 7.61996 7.70892
H 9.2424 7.70477 8.99891
H 7.77122 6.64646 8.89637
H 9.27924 8.07473 6.47964
H 6.6317 6.79848 5.88453
H 6.45923 8.32088 8.49776
H 5.09517 7.25255 7.70371
10
 Atoms. Timestep: 60
C 8.41003 7.37022 8.40068
C 8.37764 7.66633 7.07486
C 7.0093 7.42215 6.60068
C 6.24814 7.62865 7.68766
H 9.24571 7.67278 9.07274
H 7.71141 6.59178 8.72765
H 9.32477 8.03556 6.64796
H 6.78599 6.7396 5.73927
H 6.4519 8.48448 8.31118
H 5.33351 7.17168 7.80691
10
 Atoms. Timestep: 80
C 8.34293 7.38038 8.4458
C 8.36542 7.64347 7.09635
C 7.10424 7.37194 6.55833
C 6.25491 7.65708 7.6782
H 9.18923 7.6102 9.05625
H 7.73592 6.58267 8.81158
H 9.17886 8.09431 6.57722
H 6.86177 6.91187 5.5757
H 6.41052 8.60175 8.24375
H 5.34266 7.10199 7.95247
10
 Atoms. Timestep: 100
C 8.30787 7.36266 8.46346
C 8.39224 7.61695 7.11704
C 7.10766 7.35457 6.58754
C 6.25346 7.66402 7.58564
H 9.18209 7.69668 9.12014
H 7.74272 6.5889 8.98284
H 9.15252 8.16034 6.50868
H 6.91147 7.13887 5.58272
H 6.40054 8.59042 8.1169
H 5.36726 7.05559 8.05567
10
 Atoms. Timestep: 120
C 8.31498 7.38067 8.46863
C 8.3762 7.5806 7.14384
C 7.11704 7.3581 6.55146
C 6.23908 7.64316 7.621
H 9.09481 7.81723 9.14315
H 7.71142 6.64082 8.97985
H 9.2613 8.09373 6.67771
H 6.92478 7.21926 5.47382
H 6.42959 8.61111 8.03053
H 5.41835 7.06271 7.87439
10
 Atoms. Timestep: 140
C 8.29337 7.41863 8.5216
C 8.37091 7.56384 7.12432
C 7.14376 7.38753 6.51263
C 6.27653 7.60959 7.62582
H 9.04831 7.86827 9.14084
H 7.6813 6.64281 8.96758
H 9.31054 7.93968 6.77782
H 6.90577 7.17738 5.44354
H 6.35422 8.62447 8.1113
H 5.31645 7.08987 7.74172
10
 Atoms. Timestep: 160
C 8.2447 7.43695 8.53487
C 8.42661 7.56524 7.14591
C 7.16106 7.41705 6.52469
C 6.25836 7.60924 7.57337
H 9.08083 7.84836 9.16869
H 7.80884 6.60029 9.09717
H 9.37179 7.84471 6.64852
H 6.89369 7.08787 5.54853
H 6.22815 8.51177 8.18742
H 5.19635 7.15613 7.56564
10
 Atoms. Timestep: 180
C 8.24885 7.45453 8.52628
C 8.44523 7.57262 7.16393
C 7.19165 7.41735 6.59416
C 6.19126 7.61931 7.53882
H 9.11088 7.81956 9.16789
H 7.76344 6.60244 9.01596
H 9.39698 7.82405 6.6201
H 6.92939 6.95532 5.62203
H 6.24699 8.41097 8.23493
H 5.21437 7.22478 7.28888
10
 Atoms. Timestep: 200
C 8.25535 7.4554 8.51074
C 8.45911 7.59992 7.1651
C 7.18284 7.36028 6.62996
C 6.22841 7.62321 7.52585
H 9.02211 7.78466 9.15735
H 7.59472 6.68347 8.86933
H 9.39835 7.89709 6.74906
H 6.98038 6.84042 5.66888
H 6.13395 8.38165 8.34304
H 5.24018 7.39986 7.11148
10
 Atoms. Timestep: 220
C 8.27999 7.43365 8.51055
C 8.47827 7.61859 7.19873
C 7.20397 7.28759 6.58884
C 6.21414 7.65985 7.49582
H 8.97989 7.79037 9.31731
H 7.49393 6.76811 8.8777
H 9.39158 8.04198 6.78883
H 6.92876 6.80915 5.66616
H 6.12016 8.34787 8.38123
H 5.15145 7.46448 7.09413
10
 Atoms. Timestep: 240
C 8.23559 7.42733 8.53638
C 8.46373 7.59403 7.22787
C 7.19137 7.29481 6.60119
C 6.25232 7.66639 7.42892
H 8.92182 7.80686 9.34693
H 7.46503 6.79014 8.94821
H 9.30609 8.17317 6.75779
H 6.95729 6.84198 5.63818
H 6.36625 8.3151 8.22532
H 5.24941 7.39742 7.20637
10
 Atoms. Timestep: 260
C 8.19878 7.43097 8.58301
C 8.43023 7.57252 7.24455
C 7.24828 7.318 6.54549
C 6.23751 7.67306 7.426
H 8.88738 7.84292 9.28314
H 7.49046 6.73283 8.96413
H 9.25606 8.12173 6.81014
H 7.10956 6.8161 5.55833
H 6.51368 8.45304 8.1443
H 5.17802 7.28613 7.33473
10
 Atoms. Timestep: 280
C 8.16634 7.43211 8.58883
C 8.43782 7.5857 7.2587
C 7.22671 7.33287 6.50016
C 6.26656 7.65476 7.41655
H 8.87156 7.88362 9.32856
H 7.52291 6.64071 8.99984
H 9.39034 7.948 6.90184
H 7.2475 6.82133 5.55582
H 6.26888 8.6214 8.02723
H 5.23819 7.27232 7.49031
10
 Atoms. Timestep: 300
C 8.14022 7.4444 8.58613
C 8.44157 7.59459 7.24801
C 7.2798 7.3524 6.53223
C 6.22559 7.66579 7.40925
H 8.83755 7.84567 9.38328
H 7.50617 6.64432 8.98657
H 9.49876 7.80306 6.94645
H 7.1929 6.84435 5.57545
H 6.269 8.61317 7.85871
H 5.29653 7.12631 7.4848
10
 Atoms. Timestep: 320
C 8.09679 7.46902 8.59899
C 8.4899 7.57883 7.27923
C 7.29203 7.35154 6.55464
C 6.23936 7.66295 7.38726
H 8.7932 7.78925 9.3304
H 7.40712 6.72202 8.91712
H 9.4808 7.81771 6.86679
H 7.12275 6.87315 5.56903
H 6.29783 8.62476 7.86791
H 5.31379 7.0191 7.41702
10
 Atoms. Timestep: 340
C 8.13439 7.47359 8.6168
C 8.48508 7.54839 7.29396
C 7.28836 7.33514 6.52972
C 6.24444 7.65917 7.3382
H 8.80285 7.83717 9.46249
H 7.29417 6.828 8.89854
H 9.40713 7.90594 6.89775
H 7.22748 6.85391 5.56869
H 6.20878 8.54711 8.0292
H 5.26992 7.15014 7.36018
10
 Atoms. Timestep: 360
C 8.14553 7.46272 8.59796
C 8.45038 7.55 7.31358
C 7.30292 7.31961 6.51942
C 6.24686 7.65432 7.3439
H 8.72072 7.87399 9.44563
H 7.26315 6.9393 8.96185
H 9.41185 7.98609 6.96844
H 7.3177 6.78023 5.58216
H 6.30129 8.40559 8.10958
H 5.23517 7.31484 7.1722
10
 Atoms. Timestep: 380
C 8.10314 7.45575 8.6369
C 8.47831 7.59094 7.31391
C 7.28978 7.30195 6.55478
C 6.25379 7.63885 7.31153
H 8.75556 7.92372 9.34968
H 7.30518 6.85121 9.02526
H 9.46407 7.98794 6.98639
H 7.24355 6.74729 5.60079
H 6.40213 8.33039 8.08681
H 5.20339 7.45453 6.93733
10
 Atoms. Timestep: 400
C 8.10382 7.4776 8.62235
C 8.47823 7.59043 7.36403
C 7.32561 7.27181 6.56056
C 6.2389 7.65439 7.27019
H 8.79725 7.91056 9.41291
H 7.44636 6.72278 9.01883
H 9.40512 7.94783 7.01397
H 7.15931 6.76623 5.60541
H 6.225 8.43126 8.07238
H 5.21162 7.4759 6.86271
10
 Atoms. Timestep: 420
C 8.07724 7.50297 8.64936
C 8.4726 7.55048 7.32223
C 7.32373 7.26788 6.56833
C 6.26092 7.68476 7.28873
H 8.72533 7.85479 9.47433
H 7.4359 6.66262 8.96182
H 9.44038 8.00618 7.02157
H 7.285 6.77666 5.61052
H 6.09812 8.5128 7.97788
H 5.33237 7.37034 6.87099
10
 Atoms. Timestep: 440
C 8.0379 7.48404 8.64137
C 8.50624 7.54465 7.33519
C 7.36813 7.28931 6.55352
C 6.23986 7.68406 7.32392
H 8.63608 7.87877 9.42045
H 7.3798 6.68741 8.96437
H 9.47103 8.01215 7.0301
H 7.30819 6.74186 5.58629
H 6.14355 8.6184 7.86575
H 5.27255 7.26903 6.89805
10
 Atoms. Timestep: 460
C 8.0141 7.45963 8.64065
C 8.51518 7.57066 7.35854
C 7.37222 7.32388 6.54542
C 6.26182 7.64007 7.26492
H 8.63636 7.97019 9.46254
H 7.36607 6.67581 9.02491
H 9.4949 7.92061 7.11785
H 7.23407 6.74561 5.62494
H 6.21459 8.62996 7.73098
H 5.19807 7.31236 7.07061
10
 Atoms. Timestep: 480
C 8.00329 7.48634 8.67181
C 8.46333 7.58789 7.36245
C 7.37818 7.29936 6.5033
C 6.26532 7.66245 7.24495
H 8.63295 7.89894 9.50419
H 7.37216 6.67199 9.0384
H 9.51297 7.85307 7.18962
H 7.32648 6.72201 5.58884
H 6.32288 8.61558 7.7883
H 5.29582 7.2422 7.08459
10
 Atoms. Timestep: 500
C 7.99261 7.50591 8.68625
C 8.439 7.57565 7.39191
C 7.38005 7.26776 6.50185
C 6.28459 7.69468 7.2229
H 8.62995 7.82856 9.43914
H 7.29471 6.73884 9.01148
H 9.48336 7.89678 7.12716
H 7.50119 6.73123 5.54706
H 6.32383 8.55517 7.88774
H 5.31347 7.20546 7.05886
10
 Atoms. Timestep: 520
C 8.00611 7.47791 8.66854
C 8.47122 7.55051 7.4175
C 7.39794 7.28226 6.54851
C 6.27541 7.66888 7.16352
H 8.68281 7.90344 9.53007
H 7.12627 6.91978 8.98067
H 9.39182 7.97199 7.0857
H 7.52188 6.78582 5.58178
H 6.28393 8.46314 7.88647
H 5.21322 7.29856 7.03589
10
 Atoms. Timestep: 540
C 7.99903 7.47886 8.66305
C 8.51588 7.54993 7.42747
C 7.40592 7.28976 6.53448
C 6.26104 7.62851 7.19833
H 8.53194 7.89633 9.55709
H 7.05944 7.07255 8.94082
H 9.47736 7.97998 7.1445
H 7.4101 6.76101 5.58967
H 6.2735 8.45242 7.90144
H 5.28041 7.37541 6.81548
10
 Atoms. Timestep: 560
C 8.00242 7.51899 8.70495
C 8.51193 7.55839 7.41513
C 7.3954 7.28762 6.53395
C 6.27483 7.63279 7.18576
H 8.46905 7.905 9.5472
H 7.09594 6.9315 8.906
H 9.58857 7.85486 7.26608
H 7.33031 6.72519 5.60189
H 6.15955 8.42983 7.91592
H 5.37309 7.3869 6.61313
10
 Atoms. Timestep: 580
C 7.964 7.54103 8.66817
C 8.4909 7.55088 7.471
C 7.43568 7.28007 6.57243
C 6.27634 7.68036 7.12581
H 8.54922 7.98573 9.56663
H 7.26941 6.71378 8.93729
H 9.51157 7.72321 7.23672
H 7.42916 6.73372 5.6089
H 6.03518 8.39543 7.91175
H 5.32796 7.35403 6.60328
10
 Atoms. Timestep: 600
C 7.86957 7.52778 8.71042
C 8.52271 7.5347 7.43878
C 7.45228 7.27836 6.58377
C 6.27486 7.69035 7.10953
H 8.49465 8.01088 9.51533
H 7.28784 6.70304 9.03475
H 9.54788 7.76361 7.13627
H 7.6296 6.76254 5.6355
H 6.11519 8.45355 7.86059
H 5.3323 7.33928 6.65156
10
 Atoms. Timestep: 620
C 7.88822 7.51699 8.70375
C 8.5084 7.5168 7.47436
C 7.48545 7.28281 6.54212
C 6.27417 7.66001 7.12261
H 8.26481 8.00383 9.53978
H 7.18913 6.78294 9.06302
H 9.53398 7.88154 7.23741
H 7.59489 6.7663 5.59936
H 6.28418 8.58652 7.70332
H 5.31955 7.3392 6.68904
10
 Atoms. Timestep: 640
C 7.9147 7.5012 8.73315
C 8.4858 7.52856 7.51274
C 7.47938 7.26094 6.49837
C 6.33826 7.6492 7.09607
H 8.23292 8.0981 9.6513
H 6.97867 6.8194 8.84902
H 9.46009 7.96824 7.44271
H 7.48338 6.7333 5.53832
H 6.33416 8.62292 7.575
H 5.32593 7.33864 6.79062
10
 Atoms. Timestep: 660
C 7.82024 7.48849 8.72641
C 8.49101 7.56538 7.52404
C 7.5258 7.21804 6.5051
C 6.35748 7.70484 7.05897
H 8.30405 7.97281 9.62735
H 6.94177 6.91945 8.83728
H 9.48957 8.00109 7.42125
H 7.54326 6.6217 5.57754
H 6.30942 8.58598 7.68254
H 5.3688 7.25848 6.85594
10
 Atoms. Timestep: 680
C 7.8036 7.4997 8.70765
C 8.48015 7.57485 7.5425
C 7.55024 7.2374 6.55496
C 6.32825 7.74135 6.96958
H 8.26292 7.80063 9.61696
H 6.9642 6.93643 8.9517
H 9.51878 7.92374 7.34414
H 7.73684 6.51969 5.76845
H 6.28964 8.49726 7.73864
H 5.37818 7.22245 6.82094
10
 Atoms. Timestep: 700
C 7.80846 7.53292 8.72655
C 8.47792 7.57569 7.55943
C 7.52682 7.26552 6.54114
C 6.35189 7.69161 6.95452
H 8.31089 7.83614 9.69661
H 6.84077 6.85667 8.87419
H 9.52382 7.81162 7.44171
H 7.83593 6.50581 5.85062
H 6.2612 8.4899 7.69231
H 5.3609 7.3254 6.6437
10
 Atoms. Timestep: 720
C 7.7902 7.53834 8.75223
C 8.47542 7.57328 7.60662
C 7.5867 7.24793 6.51112
C 6.32903 7.63787 7.0071
H 8.25437 7.93913 9.66465
H 6.87903 6.96371 8.82466
H 9.54303 7.76553 7.57562
H 7.6987 6.55705 5.60777
H 6.23754 8.57036 7.56823
H 5.42323 7.43969 6.38567
10
 Atoms. Timestep: 740
C 7.74726 7.54773 8.77269
C 8.49584 7.51613 7.59917
C 7.56927 7.23023 6.55162
C 6.3822 7.63715 6.95872
H 8.13795 8.02797 9.67646
H 6.90345 6.99872 8.98576
H 9.56851 7.83187 7.61026
H 7.61471 6.82945 5.55608
H 6.17579 8.55209 7.47674
H 5.55623 7.39249 6.29048
10
 Atoms. Timestep: 760
C 7.72021 7.57608 8.73497
C 8.4928 7.45115 7.64973
C 7.63023 7.21309 6.56752
C 6.35603 7.7071 6.91397
H 8.12737 8.1269 9.64328
H 6.85382 6.85214 9.09261
H 9.47778 7.87132 7.53106
H 7.81652 6.86371 5.56811
H 6.08441 8.53885 7.58965
H 5.56843 7.28252 6.26714
10
 Atoms. Timestep: 780
C 7.66673 7.59697 8.76831
C 8.48779 7.43988 7.65803
C 7.61491 7.24507 6.56382
C 6.40024 7.68713 6.89148
H 8.08574 8.14807 9.57216
H 6.90407 6.81244 8.90966
H 9.4945 7.85247 7.58438
H 8.03443 6.71216 5.65608
H 6.09759 8.47481 7.5846
H 5.48964 7.40578 6.29233
10
 Atoms. Timestep: 800
C 7.67556 7.56142 8.7613
C 8.46639 7.52714 7.68274
C 7.65628 7.2451 6.54837
C 6.3806 7.65082 6.85724
H 7.89253 8.10711 9.71295
H 6.8809 6.95064 8.86658
H 9.54887 7.73689 7.70361
H 7.90562 6.57216 5.71411
H 6.32837 8.47652 7.54016
H 5.49472 7.46987 6.25365
10
 Atoms. Timestep: 820
C 7.63688 7.54306 8.76129
C 8.49318 7.60127 7.68914
C 7.65911 7.19699 6.54016
C 6.44241 7.66173 6.8578
H 7.81334 8.00238 9.80296
H 6.63477 6.99285 8.7862
H 9.57154 7.72343 7.74366
H 7.79831 6.53883 5.73466
H 6.34715 8.55372 7.46576
H 5.56945 7.39049 6.26543
10
 Atoms. Timestep: 840
C 7.60808 7.54991 8.7841
C 8.46436 7.55084 7.71655
C 7.69841 7.18336 6.59147
C 6.46317 7.7306 6.79957
H 7.92777 7.9091 9.7099
H 6.64519 6.98389 8.68725
H 9.50633 7.86789 7.75543
H 7.90992 6.48471 5.72849
H 6.187 8.63331 7.33391
H 5.54366 7.25283 6.32385
10
 Atoms. Timestep: 860
C 7.57 7.56205 8.74866
C 8.45738 7.47359 7.76285
C 7.70003 7.21819 6.59173
C 6.45286 7.73238 6.75495
H 7.97544 7.91294 9.74453
H 6.73019 6.9772 8.81167
H 9.42339 7.99035 7.79243
H 8.07798 6.48862 5.83842
H 6.2342 8.68701 7.2247
H 5.60111 7.24664 6.32811
10
 Atoms. Timestep: 880
C 7.5044 7.57704 8.76443
C 8.47232 7.49238 7.74353
C 7.73799 7.21719 6.555
C 6.46757 7.68972 6.78301
H 7.89177 7.99498 9.78649
H 6.63775 6.90499 8.96231
H 9.48321 7.90302 7.8795
H 8.0459 6.54137 5.81625
H 6.37707 8.70334 7.17403
H 5.59459 7.31431 6.19455
10
 Atoms. Timestep: 900
C 7.49876 7.58678 8.78541
C 8.42487 7.55627 7.7688
C 7.79754 7.18044 6.55282
C 6.47778 7.66346 6.79403
H 7.76826 8.06812 9.67271
H 6.67087 6.85 8.99513
H 9.48845 7.68616 7.97006
H 7.97589 6.56653 5.63044
H 6.38751 8.69534 7.14856
H 5.63934 7.43212 6.06572
10
 Atoms. Timestep: 920
C 7.4843 7.59846 8.79816
C 8.42295 7.52634 7.77575
C 7.74461 7.1808 6.58943
C 6.51197 7.67036 6.7406
H 7.74374 8.16603 9.73672
H 6.72861 6.84554 8.86538
H 9.50043 7.6616 8.00923
H 8.08207 6.63393 5.65896
H 6.31705 8.64858 7.16223
H 5.76905 7.4086 6.03282
10
 Atoms. Timestep: 940
C 7.48393 7.61524 8.73499
C 8.4606 7.4533 7.83359
C 7.76799 7.18839 6.6261
C 6.4854 7.71651 6.70536
H 7.64938 8.10639 9.75254
H 6.6697 6.94049 8.7728
H 9.48608 7.79019 7.89213
H 8.17996 6.61369 5.83771
H 6.19649 8.61959 7.28728
H 5.75489 7.30906 5.94624
10
 Atoms. Timestep: 960
C 7.47024 7.6062 8.7604
C 8.49477 7.44326 7.85629
C 7.76177 7.21279 6.63768
C 6.52744 7.70534 6.67058
H 7.5855 8.09838 9.69336
H 6.49783 7.06868 8.63577
H 9.49527 7.86586 7.87136
H 8.13951 6.53645 5.87409
H 6.16622 8.46956 7.30813
H 5.71434 7.37549 5.9566
10
 Atoms. Timestep: 980
C 7.47122 7.57759 8.77879
C 8.42736 7.51105 7.85549
C 7.80892 7.18377 6.61206
C 6.54139 7.68425 6.67653
H 7.55346 8.1405 9.71539
H 6.48277 7.16628 8.59992
H 9.48403 7.78468 8.02185
H 8.05508 6.4748 5.75656
H 6.2343 8.48573 7.32084
H 5.82099 7.42801 5.93723
10
 Atoms. Timestep: 1000
C 7.42402 7.59135 8.78384
C 8.40792 7.54447 7.8399
C 7.79646 7.1548 6.57781
C 6.57506 7.67107 6.68158
H 7.62077 8.11763 9.78799
H 6.49593 7.07055 8.73715
H 9.43927 7.71076 8.15699
H 8.15924 6.53398 5.78313
H 6.34021 8.60641 7.2407
H 5.84782 7.41055 5.88428
10
 Atoms. Timestep: 1020
C 7.38275 7.6304 8.76864
C 8.39712 7.49983 7.86993
C 7.83372 7.16977 6.6205
C 6.56026 7.69143 6.63159
H 7.69182 7.98778 9.73654
H 6.53946 6.95484 8.87174
H 9.43196 7.74448 8.08004
H 8.28638 6.56211 5.85733
H 6.39709 8.64915 7.09212
H 5.73419 7.37305 5.90722
10
 Atoms. Timestep: 1040
C 7.34347 7.63837 8.74231
C 8.41542 7.45232 7.89177
C 7.84196 7.1941 6.64382
C 6.56688 7.70183 6.61783
H 7.66138 7.99889 9.71951
H 6.50347 6.90631 8.87038
H 9.43941 7.82331 8.0415
H 8.3393 6.53889 5.87902
H 6.39792 8.68508 6.98793
H 5.77612 7.34779 6.01626
10
 Atoms. Timestep: 1060
C 7.34952 7.60251 8.75909
C 8.42013 7.46896 7.88799
C 7.85618 7.17179 6.61428
C 6.59625 7.713 6.63871
H 7.47495 8.14791 9.7529
H 6.46711 6.98677 8.72114
H 9.4241 7.81677 8.18743
H 8.24906 6.51613 5.83306
H 6.39446 8.76942 6.99967
H 5.78184 7.2455 5.99441
10
 Atoms. Timestep: 1080
C 7.36576 7.58433 8.76292
C 8.39838 7.51848 7.90756
C 7.87547 7.15472 6.61209
C 6.6226 7.70668 6.63835
H 7.31905 8.19661 9.65693
H 6.45835 7.0626 8.56047
H 9.4073 7.72318 8.23985
H 8.15699 6.4809 5.8334
H 6.39723 8.65942 7.0962
H 5.81184 7.31209 5.97667
10
 Atoms. Timestep: 1100
C 7.32114 7.60298 8.75709
C 8.42692 7.51292 7.91566
C 7.87194 7.17092 6.65271
C 6.62423 7.70104 6.58776
H 7.31824 8.19208 9.67773
H 6.38745 7.04745 8.50774
H 9.47552 7.71351 8.15034
H 8.24348 6.40877 5.92617
H 6.38981 8.49371 7.20858
H 5.84415 7.43732 5.93905
10
 Atoms. Timestep: 1120
C 7.32545 7.63334 8.72318
C 8.39719 7.47202 7.95675
C 7.87426 7.16238 6.65988
C 6.63062 7.70967 6.55541
H 7.32784 8.12463 9.71394
H 6.42402 7.04284 8.64321
H 9.44227 7.76174 8.09515
H 8.41154 6.43839 6.02622
H 6.31534 8.54764 7.26615
H 5.83792 7.44028 5.77294
10
 Atoms. Timestep: 1140
C 7.2999 7.64846 8.77556
C 8.36943 7.45156 7.93858
C 7.86426 7.14352 6.65152
C 6.65973 7.70101 6.56561
H 7.41794 8.14352 9.76285
H 6.45749 7.02219 8.67611
H 9.3737 7.80158 8.22552
H 8.38958 6.5574 5.93033
H 6.28865 8.6227 7.02552
H 6.03676 7.40533 5.68112
10
 Atoms. Timestep: 1160
C 7.28084 7.63491 8.75971
C 8.35237 7.48608 7.97527
C 7.92254 7.12403 6.66508
C 6.6387 7.69289 6.57674
H 7.47309 8.14482 9.70673
H 6.35392 7.04028 8.70196
H 9.33946 7.75933 8.31771
H 8.24798 6.60041 5.74468
H 6.35055 8.64855 6.88742
H 6.19234 7.39914 5.66974
10
 Atoms. Timestep: 1180
C 7.23385 7.62936 8.74432
C 8.39464 7.47993 7.96861
C 7.92952 7.16573 6.67123
C 6.67048 7.66499 6.56391
H 7.38066 8.11632 9.72646
H 6.25826 7.09209 8.7675
H 9.3771 7.73813 8.37833
H 8.27561 6.51042 5.84589
H 6.36699 8.72877 6.87883
H 6.09444 7.39418 5.60361
10
 Atoms. Timestep: 1200
C 7.21763 7.65063 8.725
C 8.36529 7.46087 7.99068
C 7.93844 7.1876 6.66045
C 6.68907 7.69676 6.51055
H 7.33092 8.07271 9.74252
H 6.34472 7.048 8.6877
H 9.37131 7.701 8.37699
H 8.43434 6.40884 6.09589
H 6.38849 8.68129 6.96522
H 5.99162 7.33296 5.70068
10
 Atoms. Timestep: 1220
C 7.20404 7.65614 8.71706
C 8.31929 7.48547 8.0119
C 7.95982 7.15649 6.6844
C 6.71341 7.73198 6.48589
H 7.2964 8.09905 9.72779
H 6.37593 6.99565 8.46191
H 9.33096 7.65519 8.34005
H 8.49782 6.39154 6.11907
H 6.44655 8.57122 6.99351
H 5.99697 7.32685 5.85118
10
 Atoms. Timestep: 1240
C 7.16956 7.62804 8.73321
C 8.34833 7.51896 8.00223
C 7.96695 7.11736 6.6944
C 6.78086 7.70226 6.50672
H 7.07018 8.14268 9.69391
H 6.23694 7.14383 8.38185
H 9.35728 7.68715 8.38482
H 8.44364 6.46098 5.964
H 6.50037 8.66098 7.03197
H 5.92138 7.32466 5.81309
10
 Atoms. Timestep: 1260
C 7.17213 7.60776 8.71282
C 8.34201 7.49548 8.05237
C 7.99596 7.1146 6.68976
C 6.75801 7.68871 6.50644
H 6.9385 8.20132 9.6157
H 6.22788 7.23562 8.44302
H 9.33842 7.79274 8.44113
H 8.43454 6.46292 5.92012
H 6.5615 8.70079 6.96039
H 6.01454 7.38731 5.74032
10
 Atoms. Timestep: 1280
C 7.1418 7.63508 8.72523
C 8.3347 7.42782 8.06209
C 7.98311 7.15411 6.71352
C 6.76417 7.7116 6.46292
H 7.09725 8.31152 9.62485
H 6.27752 7.0396 8.39063
H 9.25077 7.84958 8.45625
H 8.4986 6.43211 6.08825
H 6.50158 8.59803 6.88566
H 6.15556 7.41749 5.6608
10
 Atoms. Timestep: 1300
C 7.12698 7.67089 8.67962
C 8.29491 7.44215 8.0912
C 7.98846 7.14558 6.73888
C 6.79498 7.72924 6.45042
H 7.14467 8.20531 9.59362
H 6.31598 6.92849 8.54949
H 9.26847 7.73354 8.45166
H 8.53552 6.40996 6.15863
H 6.34639 8.64676 6.92781
H 6.28092 7.36871 5.44704
10
 Atoms. Timestep: 1320
C 7.07885 7.67136 8.70706
C 8.32942 7.4924 8.07299
C 7.97873 7.12565 6.75693
C 6.83369 7.69976 6.40392
H 7.01217 8.15775 9.71789
H 6.23067 7.01088 8.66729
H 9.33498 7.61159 8.54215
H 8.49474 6.44758 6.04914
H 6.32475 8.59836 6.85229
H 6.40256 7.45883 5.41483
10
 Atoms. Timestep: 1340
C 7.07591 7.66353 8.67759
C 8.29597 7.50375 8.10704
C 8.0208 7.11298 6.75965
C 6.80812 7.68712 6.42801
H 7.05547 8.16178 9.67652
H 6.1862 7.08119 8.51479
H 9.2465 7.61684 8.624
H 8.51944 6.4838 6.01101
H 6.44369 8.60227 6.77923
H 6.46793 7.46984 5.44974
10
 Atoms. Timestep: 1360
C 7.06239 7.66454 8.70128
C 8.26031 7.4402 8.11566
C 8.05757 7.14161 6.74299
C 6.82902 7.69472 6.44764
H 7.06668 8.19342 9.63367
H 6.16263 7.14565 8.28944
H 9.14263 7.73298 8.65327
H 8.62664 6.47754 6.12684
H 6.50955 8.70156 6.73098
H 6.36016 7.3224 5.40936
10
 Atoms. Timestep: 1380
C 7.03765 7.6538 8.68539
C 8.24628 7.41333 8.14151
C 8.06483 7.17135 6.74139
C 6.90444 7.69293 6.38122
H 6.86164 8.19493 9.66314
H 6.10284 7.24274 8.3279
H 9.20155 7.7727 8.59766
H 8.67946 6.43898 6.2007
H 6.53568 8.69375 6.76004
H 6.22367 7.28844 5.64253
10
 Atoms. Timestep: 1400
C 6.97394 7.66236 8.61522
C 8.25093 7.4754 8.1534
C 8.1248 7.1295 6.79041
C 6.9005 7.7245 6.3777
H 6.80218 8.13072 9.60839
H 6.09293 7.19658 8.2835
H 9.23702 7.63624 8.60516
H 8.69038 6.38758 6.176
H 6.60805 8.62287 6.87088
H 6.19241 7.29549 5.72469
10
 Atoms. Timestep: 1420
C 6.9475 7.66772 8.64007
C 8.244 7.51548 8.1312
C 8.10205 7.10763 6.77363
C 6.96589 7.72047 6.39769
H 6.78822 8.18739 9.57157
H 6.16754 7.04855 8.1597
H 9.10471 7.55639 8.77386
H 8.70487 6.40849 6.26246
H 6.65444 8.63489 6.84206
H 6.14755 7.31647 5.62377
10
 Atoms. Timestep: 1440
C 6.99048 7.64784 8.64619
C 8.19458 7.49175 8.16842
C 8.11666 7.12264 6.78516
C 6.94493 7.7108 6.35812
H 6.68483 8.23199 9.54232
H 6.14985 7.0499 8.25233
H 9.07028 7.62513 8.84288
H 8.72061 6.35765 6.29734
H 6.67008 8.73359 6.69687
H 6.34848 7.38361 5.50992
10
 Atoms. Timestep: 1460
C 6.89222 7.65735 8.61044
C 8.25323 7.43167 8.20972
C 8.11353 7.15024 6.83357
C 6.94926 7.70455 6.35027
H 6.73366 8.21396 9.57563
H 6.04929 7.07773 8.3131
H 9.17146 7.78532 8.72654
H 8.67011 6.35345 6.2596
H 6.67254 8.72834 6.60537
H 6.57745 7.39827 5.38479
10
 Atoms. Timestep: 1480
C 6.90083 7.68349 8.58887
C 8.19135 7.43267 8.23984
C 8.1128 7.11729 6.86136
C 6.99581 7.72177 6.35779
H 6.78504 8.14268 9.54834
H 6.04762 7.03345 8.39397
H 9.07224 7.80333 8.69865
H 8.62403 6.44694 6.20604
H 6.59246 8.69548 6.55014
H 6.7979 7.36679 5.20471
10
 Atoms. Timestep: 1500
C 6.89428 7.7001 8.63575
C 8.15709 7.45466 8.20369
C 8.10367 7.07267 6.84786
C 7.04578 7.72369 6.3076
H 6.74094 8.20767 9.62177
H 6.06997 6.97727 8.37393
H 8.9627 7.76837 8.91851
H 8.73733 6.43626 6.23241
H 6.50803 8.65356 6.51616
H 6.90011 7.47015 5.25682
10
 Atoms. Timestep: 1520
C 6.8566 7.68884 8.56743
C 8.16558 7.47888 8.22786
C 8.12888 7.06948 6.85791
C 7.0453 7.70784 6.32184
H 6.68864 8.21425 9.51888
H 6.01291 7.08283 8.30297
H 8.97831 7.68076 8.95634
H 8.85135 6.38503 6.33893
H 6.52653 8.66112 6.63455
H 6.88805 7.52577 5.28706
10
 Atoms. Timestep: 1540
C 6.82419 7.67498 8.56424
C 8.14705 7.45173 8.27194
C 8.17744 7.12803 6.89801
C 7.07004 7.69533 6.30276
H 6.56738 8.26066 9.44615
H 5.98959 7.18722 8.13413
H 9.01537 7.63361 8.8347
H 8.80205 6.41284 6.39206
H 6.72765 8.61465 6.70011
H 6.70965 7.4106 5.16012
10
 Atoms. Timestep: 1560
C 6.8136 7.68219 8.57111
C 8.0988 7.41957 8.28863
C 8.18749 7.15799 6.87013
C 7.12831 7.68859 6.29751
H 6.42312 8.29285 9.43373
H 6.05281 7.22816 7.90265
H 9.00989 7.64294 8.88899
H 8.83196 6.42042 6.43219
H 6.80083 8.6207 6.62151
H 6.63622 7.32494 5.4456
10
 Atoms. Timestep: 1580
C 6.78378 7.69818 8.51167
C 8.1066 7.43085 8.27148
C 8.26144 7.09632 6.91994
C 7.1216 7.73746 6.29953
H 6.38509 8.20364 9.38494
H 6.00154 7.23148 7.89284
H 8.88217 7.61742 9.06757
H 8.95294 6.36541 6.4271
H 6.69984 8.77484 6.58182
H 6.56193 7.25031 5.51899
10
 Atoms. Timestep: 1600
C 6.73754 7.68029 8.47297
C 8.1026 7.45724 8.29754
C 8.23669 7.10618 6.9229
C 7.20077 7.73816 6.27116
H 6.44278 8.22103 9.38847
H 5.92694 7.1522 8.04568
H 8.78522 7.57102 9.09766
H 8.97181 6.41364 6.51336
H 6.84926 8.7334 6.57433
H 6.48239 7.23748 5.4821
10
 Atoms. Timestep: 1620
C 6.71459 7.68171 8.45874
C 8.03112 7.45806 8.28822
C 8.25135 7.12445 6.94645
C 7.20285 7.70665 6.26776
H 6.46917 8.24807 9.41843
H 5.91633 7.05321 8.09678
H 8.82569 7.59185 9.04652
H 8.96768 6.44256 6.59287
H 7.05602 8.69521 6.54271
H 6.68963 7.36389 5.42472
10
 Atoms. Timestep: 1640
C 6.67231 7.71285 8.48892
C 8.03004 7.44036 8.28017
C 8.28108 7.0871 6.95871
C 7.18833 7.69774 6.28976
H 6.32035 8.19622 9.40237
H 5.89375 7.04252 8.05356
H 8.83466 7.72036 9.03837
H 9.06518 6.37515 6.57011
H 7.08372 8.84397 6.48574
H 6.8958 7.41349 5.23355
10
 Atoms. Timestep: 1660
C 6.67351 7.70178 8.45703
C 8.04212 7.45498 8.32882
C 8.23575 7.05763 6.96057
C 7.23297 7.70429 6.30603
H 6.29843 8.162 9.35723
H 5.85844 7.08728 8.07062
H 8.69848 7.79114 9.08186
H 9.01305 6.41213 6.49043
H 6.98014 8.79486 6.38628
H 7.16936 7.4605 5.18782
10
 Atoms. Timestep: 1680
C 6.68212 7.66839 8.44707
C 7.99846 7.4606 8.35797
C 8.21729 7.07099 7.02248
C 7.29236 7.73244 6.21261
H 6.37765 8.26067 9.4006
H 5.9266 7.08947 7.98491
H 8.67266 7.7992 9.16043
H 8.83874 6.40975 6.47667
H 6.85693 8.6417 6.4426
H 7.31003 7.42467 5.18296
10
 Atoms. Timestep: 1700
C 6.66843 7.68499 8.42436
C 7.98979 7.44978 8.37548
C 8.2158 7.11251 6.99963
C 7.34696 7.72571 6.24863
H 6.26992 8.23906 9.26909
H 5.94375 7.13097 7.83721
H 8.75043 7.7299 9.1631
H 8.83435 6.27012 6.65376
H 6.67163 8.58643 6.49303
H 7.32806 7.42554 5.18419
10
 Atoms. Timestep: 1720
C 6.64413 7.7049 8.4382
C 7.987 7.44637 8.3745
C 8.27617 7.09995 7.02515
C 7.34189 7.7241 6.2339
H 6.06398 8.22397 9.18719
H 5.9718 7.22839 7.70519
H 8.72237 7.62725 9.117
H 8.97022 6.2347 6.78069
H 6.69068 8.60397 6.54501
H 7.20981 7.44977 5.12345
10
 Atoms. Timestep: 1740
C 6.62715 7.70521 8.38974
C 7.94674 7.45826 8.38447
C 8.28044 7.09149 7.02983
C 7.35585 7.6829 6.25073
H 6.0489 8.2561 9.19662
H 5.98431 7.24901 7.66816
H 8.6575 7.5698 9.1876
H 9.06201 6.45575 6.70849
H 6.99087 8.59554 6.5371
H 7.1193 7.46664 5.26243
10
 Atoms. Timestep: 1760
C 6.57399 7.70856 8.36191
C 7.92839 7.44438 8.37771
C 8.31192 7.08257 7.06513
C 7.36885 7.69259 6.24133
H 6.17512 8.26898 9.22473
H 5.90502 7.20582 7.70334
H 8.56926 7.58225 9.304
H 9.14826 6.54426 6.6505
H 7.15611 8.72237 6.53008
H 7.0713 7.32767 5.19993
10
 Atoms. Timestep: 1780
C 6.57655 7.71339 8.33732
C 7.9009 7.40979 8.3692
C 8.33296 7.10321 7.06365
C 7.40289 7.71646 6.25652
H 6.1702 8.23454 9.19579
H 5.74776 7.17291 7.8268
H 8.47803 7.62457 9.26243
H 9.21836 6.44291 6.77285
H 7.1266 8.82328 6.38053
H 7.10324 7.26465 5.29045
10
 Atoms. Timestep: 1800
C 6.53696 7.72389 8.31888
C 7.90144 7.39123 8.36431
C 8.35913 7.11472 7.07811
C 7.43449 7.73356 6.23504
H 6.14001 8.22916 9.25391
H 5.73249 7.13518 7.83025
H 8.48098 7.6482 9.23331
H 9.13265 6.39457 6.9073
H 7.11068 8.72651 6.35686
H 7.13507 7.30597 5.32937
10
 Atoms. Timestep: 1820
C 6.54457 7.7122 8.28733
C 7.86712 7.44129 8.3952
C 8.34861 7.1055 7.09925
C 7.44954 7.71133 6.2417
H 6.13086 8.17782 9.18258
H 5.84187 7.17125 7.73906
H 8.51076 7.62868 9.30085
H 9.09546 6.37486 6.85103
H 7.12279 8.72691 6.49007
H 7.16322 7.31862 5.18452
10
 Atoms. Timestep: 1840
C 6.54289 7.69476 8.32091
C 7.89754 7.49021 8.40864
C 8.29693 7.0893 7.10135
C 7.47766 7.68066 6.23793
H 5.96964 8.20993 9.11548
H 5.9137 7.20109 7.55566
H 8.4387 7.61486 9.35135
H 9.09 6.34831 6.75557
H 7.09707 8.68946 6.52874
H 7.32477 7.42676 5.16918
10
 Atoms. Timestep: 1860
C 6.55426 7.68091 8.344
C 7.87033 7.49194 8.42696
C 8.30578 7.05955 7.10719
C 7.47705 7.71601 6.22864
H 5.8837 8.22078 9.02817
H 5.99851 7.25393 7.48472
H 8.46159 7.65724 9.29462
H 9.03386 6.29459 6.81901
H 6.97093 8.63499 6.41251
H 7.53091 7.46801 5.20919
10
 Atoms. Timestep: 1880
C 6.52161 7.69481 8.28999
C 7.86014 7.43011 8.44091
C 8.29038 7.08878 7.12496
C 7.51586 7.73308 6.24259
H 5.97686 8.23438 9.06285
H 5.91908 7.19583 7.57796
H 8.54305 7.75354 9.25922
H 8.97166 6.3214 6.91892
H 6.8961 8.59629 6.35045
H 7.68929 7.43787 5.12891
10
 Atoms. Timestep: 1900
C 6.52368 7.70387 8.26952
C 7.80871 7.4081 8.44278
C 8.28346 7.11641 7.15247
C 7.56576 7.72035 6.20907
H 6.03836 8.28182 9.09791
H 5.83875 7.11603 7.69524
H 8.43871 7.75845 9.27133
H 9.07273 6.33412 6.86872
H 6.9386 8.61243 6.37884
H 7.70714 7.42483 5.13395
10
 Atoms. Timestep: 1920
C 6.49044 7.72081 8.25682
C 7.82017 7.43379 8.43531
C 8.33887 7.07453 7.14181
C 7.54383 7.70201 6.22853
H 5.97337 8.31614 9.0279
H 5.77942 7.09462 7.65199
H 8.28366 7.67718 9.37523
H 9.18966 6.4154 6.85248
H 7.06504 8.67424 6.38999
H 7.67299 7.45559 5.21657
10
 Atoms. Timestep: 1940
C 6.4553 7.72161 8.22183
C 7.83348 7.45583 8.41342
C 8.39052 7.05672 7.1766
C 7.51096 7.69613 6.27549
H 5.89374 8.27732 8.94728
H 5.80384 7.16154 7.55655
H 8.27009 7.57385 9.42152
H 9.19904 6.46683 6.90991
H 7.21665 8.73917 6.37623
H 7.59916 7.41958 5.1535
10
 Atoms. Timestep: 1960
C 6.45997 7.70444 8.18943
C 7.77501 7.4438 8.43166
C 8.36637 7.12017 7.21164
C 7.56875 7.70907 6.2395
H 5.87295 8.23767 9.0105
H 5.82319 7.14726 7.55559
H 8.33021 7.53035 9.3826
H 9.2313 6.39323 6.98254
H 7.39003 8.76535 6.32139
H 7.45572 7.28122 5.20297
10
 Atoms. Timestep: 1980
C 6.44807 7.71527 8.17337
C 7.76535 7.41615 8.45554
C 8.35162 7.15216 7.20218
C 7.63728 7.71292 6.20967
H 5.87871 8.14892 9.03563
H 5.83495 7.10129 7.47374
H 8.25348 7.6065 9.40576
H 9.13623 6.34737 7.14398
H 7.41515 8.79309 6.27983
H 7.39154 7.24383 5.30551
10
 Atoms. Timestep: 2000
C 6.45973 7.70735 8.14661
C 7.75116 7.45095 8.44579
C 8.40991 7.08049 7.24975
C 7.63508 7.74404 6.24563
H 5.8262 8.06981 8.89673
H 5.88235 7.21451 7.34102
H 8.12873 7.68446 9.43545
H 9.08863 6.32982 7.13321
H 7.28737 8.78319 6.31198
H 7.37537 7.24126 5.24391
10
 Atoms. Timestep: 2020
C 6.39927 7.66721 8.14312
C 7.73223 7.50342 8.44315
C 8.41178 7.075 7.23182
C 7.69453 7.70897 6.2766
H 5.67251 8.22865 8.88119
H 5.99245 7.31034 7.24431
H 8.13214 7.69781 9.46703
H 9.15787 6.24985 7.02987
H 7.25101 8.64413 6.45409
H 7.49112 7.36157 5.24439
10
 Atoms. Timestep: 2040
C 6.40955 7.66129 8.13466
C 7.68171 7.49729 8.45253
C 8.38391 7.09856 7.26582
C 7.72199 7.6863 6.26432
H 5.70274 8.29374 8.71251
H 5.96594 7.27365 7.24437
H 8.19433 7.69452 9.38379
H 9.13996 6.24777 7.07132
H 7.1961 8.58154 6.53803
H 7.74201 7.46811 5.23498
10
 Atoms. Timestep: 2060
C 6.38938 7.70794 8.09667
C 7.70924 7.42122 8.49814
C 8.36691 7.07923 7.29654
C 7.71322 7.71969 6.24409
H 5.73612 8.30672 8.64031
H 5.87817 7.07846 7.29219
H 8.16997 7.73736 9.42809
H 9.10453 6.36011 7.25601
H 7.11504 8.68666 6.28899
H 8.04769 7.48227 5.17083
10
 Atoms. Timestep: 2080
C 6.41081 7.71234 8.07369
C 7.63929 7.40148 8.51129
C 8.31684 7.09884 7.27748
C 7.76498 7.73201 6.24095
H 5.70528 8.3833 8.67174
H 5.90871 6.96954 7.48133
H 8.05304 7.7002 9.48491
H 9.21301 6.44311 7.22082
H 7.2238 8.63593 6.13234
H 8.22865 7.41992 5.27737
10
 Atoms. Timestep: 2100
C 6.36968 7.71698 8.01159
C 7.64285 7.42449 8.48887
C 8.32855 7.09829 7.36793
C 7.78438 7.70519 6.24668
H 5.69547 8.36731 8.68137
H 5.85282 6.99775 7.47267
H 7.96789 7.60563 9.52312
H 9.27449 6.50042 7.03509
H 7.27921 8.65854 6.15837
H 8.30133 7.42073 5.32793
10
 Atoms. Timestep: 2120
C 6.32082 7.72478 7.99158
C 7.62753 7.45321 8.51422
C 8.43103 7.105 7.33825