LAMMPS (2 Aug 2023 - Update 2)
#13 Butadiene
units           metal
boundary        p p p
atom_style      atomic

neighbor        2.0 bin
neigh_modify    delay 0 every 1 check yes

read_data       restart.lmp
Reading data file ...
  orthogonal box = (0 0 0) to (15 15 15)
  1 by 1 by 3 MPI processor grid
  reading atoms ...
  10 atoms
  reading velocities ...
  10 velocities
  read_data CPU = 0.001 seconds
mass            1 12.0
mass            2 2

variable        sysvol          equal vol
variable        sysmass         equal mass(all)/6.0221367e+23
variable        sysdensity      equal v_sysmass/v_sysvol/1.0e-24
variable	out_freq 	equal 100

pair_style      deepmd ../files/frozen_model_1_compressed.pb ../files/frozen_model_2_compressed.pb ../files/frozen_model_3_compressed.pb ../files/frozen_model_3_compressed.pb out_file md.out out_freq 10 atomic relative 1.0
Summary of lammps deepmd module ...
  >>> Info of deepmd-kit:
  installed to:       /rs1/researchers/w/wjpfaend/rahul/MLP/DeePMD-kit/deepmd_cpu
  source:             v2.2.8-dirty
  source branch:      master
  source commit:      b875ea8
  source commit at:   2024-01-22 22:28:58 -0500
  support model ver.: 1.1 
  build variant:      cpu
  build with tf inc:  /rs1/researchers/w/wjpfaend/rahul/MLP/DeePMD-kit/tensorflow/lib/python3.11/site-packages/tensorflow/include;/rs1/researchers/w/wjpfaend/rahul/MLP/DeePMD-kit/tensorflow/lib/python3.11/site-packages/tensorflow/include
  build with tf lib:  /rs1/researchers/w/wjpfaend/rahul/MLP/DeePMD-kit/tensorflow/lib/python3.11/site-packages/tensorflow/libtensorflow_cc.so.2
  set tf intra_op_parallelism_threads: 0
  set tf inter_op_parallelism_threads: 0
  >>> Info of lammps module:
  use deepmd-kit at:  /rs1/researchers/w/wjpfaend/rahul/MLP/DeePMD-kit/deepmd_cpu
  source:             v2.2.8-dirty
  source branch:      master
  source commit:      b875ea8
  source commit at:   2024-01-22 22:28:58 -0500
  build float prec:   double
  build with tf inc:  /rs1/researchers/w/wjpfaend/rahul/MLP/DeePMD-kit/tensorflow/lib/python3.11/site-packages/tensorflow/include;/rs1/researchers/w/wjpfaend/rahul/MLP/DeePMD-kit/tensorflow/lib/python3.11/site-packages/tensorflow/include
  build with tf lib:  /rs1/researchers/w/wjpfaend/rahul/MLP/DeePMD-kit/tensorflow/lib/python3.11/site-packages/tensorflow/libtensorflow_cc.so.2
pair_coeff	* *

#
velocity        all create 300.0 2345678 rot no dist gaussian
fix             1 all nvt temp 300.0 300.0 0.05
fix             2 all plumed plumedfile plumed.dat outfile PLUMED.log

timestep        0.0005
thermo_style    custom step pe ke etotal v_sysdensity temp press vol
thermo          10

dump            10 all custom 100 btd.dump id type x y z
dump		101 all xyz 20 btd.xyz
dump_modify	101 element C H

fix		extra all print 20 "$(step), $(ke), $(pe), $(etotal), $(temp), $(press), $(vol)" file logfile screen no

restart	        20000 dump.restart

run             50000

CITE-CITE-CITE-CITE-CITE-CITE-CITE-CITE-CITE-CITE-CITE-CITE-CITE

Your simulation uses code contributions which should be cited:

- USER-DEEPMD package:

@article{Wang_ComputPhysCommun_2018_v228_p178,
  author = {Wang, Han and Zhang, Linfeng and Han, Jiequn and E, Weinan},
  doi = {10.1016/j.cpc.2018.03.016},
  url = {https://doi.org/10.1016/j.cpc.2018.03.016},
  year = 2018,
  month = {jul},
  publisher = {Elsevier {BV}},
  volume = 228,
  journal = {Comput. Phys. Commun.},
  title = {{DeePMD-kit: A deep learning package for many-body potential energy representation and molecular dynamics}},
  pages = {178--184}
}
@misc{Zeng_JChemPhys_2023_v159_p054801,
  title  = {{DeePMD-kit v2: A software package for deep potential models}},
  author =   {Jinzhe Zeng and Duo Zhang and Denghui Lu and Pinghui Mo and Zeyu Li
         and Yixiao Chen and Mari{\'a}n Rynik and Li'ang Huang and Ziyao Li and 
         Shaochen Shi and Yingze Wang and Haotian Ye and Ping Tuo and Jiabin
         Yang and Ye Ding and Yifan Li and Davide Tisi and Qiyu Zeng and Han 
         Bao and Yu Xia and Jiameng Huang and Koki Muraoka and Yibo Wang and 
         Junhan Chang and Fengbo Yuan and Sigbj{\o}rn L{\o}land Bore and Chun
         Cai and Yinnian Lin and Bo Wang and Jiayan Xu and Jia-Xin Zhu and 
         Chenxing Luo and Yuzhi Zhang and Rhys E A Goodall and Wenshuo Liang
         and Anurag Kumar Singh and Sikai Yao and Jingchao Zhang and Renata
         Wentzcovitch and Jiequn Han and Jie Liu and Weile Jia and Darrin M
         York and Weinan E and Roberto Car and Linfeng Zhang and Han Wang},
  journal =  {J. Chem. Phys.},
  volume =   159,
  issue =    5,  
  year =    2023,
  pages  =   054801,
  doi =      {10.1063/5.0155600},
}

CITE-CITE-CITE-CITE-CITE-CITE-CITE-CITE-CITE-CITE-CITE-CITE-CITE

Generated 0 of 1 mixed pair_coeff terms from geometric mixing rule
Neighbor list info ...
  update: every = 1 steps, delay = 0 steps, check = yes
  max neighbors/atom: 2000, page size: 100000
  master list distance cutoff = 8
  ghost atom cutoff = 8
  binsize = 4, bins = 4 4 4
  1 neighbor lists, perpetual/occasional/extra = 1 0 0
  (1) pair deepmd, perpetual
      attributes: full, newton on
      pair build: full/bin/atomonly
      stencil: full/bin/3d
      bin: standard
Per MPI rank memory allocation (min/avg/max) = 2.958 | 2.999 | 3.082 Mbytes
   Step         PotEng         KinEng         TotEng      v_sysdensity       Temp          Press          Volume    
         0  -55.389668      0.34900239    -55.040666      0.029520714    300           -386.84394      3375         
        10  -54.902021      0.39585374    -54.506168      0.029520714    340.27309      50.120643      3375         
        20  -55.124538      0.58122823    -54.54331       0.029520714    499.61969      368.77072      3375         
        30  -54.953794      0.4167313     -54.537063      0.029520714    358.21929     -382.36136      3375         
        40  -54.999618      0.45011031    -54.549508      0.029520714    386.91165     -190.57098      3375         
        50  -55.100721      0.52075344    -54.579967      0.029520714    447.63599      347.64021      3375         
        60  -54.965206      0.40172548    -54.563481      0.029520714    345.3204      -56.431093      3375         
        70  -54.977261      0.38043093    -54.59683       0.029520714    327.01575     -210.23077      3375         
        80  -55.085052      0.45659765    -54.628454      0.029520714    392.48813      143.5862       3375         
        90  -54.987756      0.34484743    -54.642909      0.029520714    296.42843      110.2288       3375         
       100  -54.864007      0.20033657    -54.66367       0.029520714    172.20791     -122.03985      3375         
       110  -54.970134      0.29252256    -54.677611      0.029520714    251.45033      46.170479      3375         
       120  -55.009518      0.33171343    -54.677805      0.029520714    285.13853      241.57814      3375         
       130  -54.928287      0.22780473    -54.700482      0.029520714    195.81934     -50.81941       3375         
       140  -54.987276      0.27527104    -54.712005      0.029520714    236.62105      144.77541      3375         
       150  -55.068772      0.3447139     -54.724058      0.029520714    296.31365      405.40711      3375         
       160  -55.066017      0.32726879    -54.738749      0.029520714    281.31795     -261.6248       3375         
       170  -55.055377      0.28895751    -54.76642       0.029520714    248.38585     -1077.4687      3375         
       180  -55.080611      0.33806008    -54.74255       0.029520714    290.59407     -445.25356      3375         
       190  -55.113821      0.34797059    -54.765851      0.029520714    299.11307      923.35997      3375         
       200  -55.085112      0.29764119    -54.78747       0.029520714    255.85027      1052.1069      3375         
       210  -55.043193      0.24521913    -54.797974      0.029520714    210.78864     -210.4652       3375         
       220  -55.015506      0.21535924    -54.800147      0.029520714    185.12128     -1412.3118      3375         
       230  -55.119264      0.32786064    -54.791403      0.029520714    281.8267      -382.98887      3375         
       240  -55.12689       0.32669876    -54.800191      0.029520714    280.82795      978.63139      3375         
       250  -55.137623      0.31858533    -54.819038      0.029520714    273.85371      489.7359       3375         
       260  -55.131357      0.31665366    -54.814704      0.029520714    272.19326     -25.546285      3375         
       270  -55.176105      0.35508154    -54.821023      0.029520714    305.22559     -63.137508      3375         
       280  -55.084523      0.24735446    -54.837169      0.029520714    212.62415     -299.07456      3375         
       290  -55.074022      0.22735243    -54.846669      0.029520714    195.43055     -125.31707      3375         
       300  -55.088432      0.238781      -54.849651      0.029520714    205.25447     -134.52181      3375         
       310  -55.02561       0.17118049    -54.854429      0.029520714    147.14555     -46.8254        3375         
       320  -55.045376      0.18138604    -54.86399       0.029520714    155.91816      606.5298       3375         
       330  -55.145277      0.26631523    -54.878961      0.029520714    228.9227       258.63846      3375         
       340  -55.192045      0.29837736    -54.893668      0.029520714    256.48308     -707.87408      3375         
       350  -55.122156      0.23025771    -54.891898      0.029520714    197.92791     -412.13514      3375         
       360  -55.19245       0.29764214    -54.894808      0.029520714    255.85109      353.38093      3375         
       370  -55.180098      0.26656453    -54.913534      0.029520714    229.137        643.55271      3375         
       380  -55.156673      0.21517159    -54.941502      0.029520714    184.95998      265.64114      3375         
       390  -55.19651       0.25016599    -54.946344      0.029520714    215.04093     -783.10853      3375         
       400  -55.123221      0.19569695    -54.927524      0.029520714    168.21973     -287.83242      3375         
       410  -55.160604      0.21477603    -54.945828      0.029520714    184.61996      514.85469      3375         
       420  -55.161152      0.21498048    -54.946171      0.029520714    184.79571      195.86226      3375         
       430  -55.117523      0.16714035    -54.950383      0.029520714    143.67267     -369.92059      3375         
       440  -55.168159      0.21076135    -54.957397      0.029520714    181.16897     -91.782555      3375         
       450  -55.205215      0.25119311    -54.954022      0.029520714    215.92383      168.41324      3375         
       460  -55.102022      0.14736193    -54.95466       0.029520714    126.67128      17.660084      3375         
       470  -55.12214       0.16522622    -54.956914      0.029520714    142.02729     -130.90674      3375         
       480  -55.190264      0.25726692    -54.932997      0.029520714    221.14484     -204.53474      3375         
       490  -55.087574      0.15421019    -54.933363      0.029520714    132.55799      65.327619      3375         
       500  -55.125681      0.19039554    -54.935286      0.029520714    163.66266      220.82433      3375         
       510  -55.222589      0.30957237    -54.913016      0.029520714    266.10623      71.096025      3375         
       520  -55.117225      0.21865967    -54.898565      0.029520714    187.95832     -62.665049      3375         
       530  -55.115207      0.24294749    -54.87226       0.029520714    208.83596      223.41973      3375         
       540  -55.175111      0.34034145    -54.83477       0.029520714    292.55511      277.52669      3375         
       550  -55.073513      0.23640582    -54.837107      0.029520714    203.21278     -434.8302       3375         
       560  -55.089718      0.26121898    -54.828499      0.029520714    224.542       -446.27114      3375         
       570  -55.174491      0.39479896    -54.779692      0.029520714    339.36641      358.48575      3375         
       580  -55.024708      0.24783003    -54.776878      0.029520714    213.03295      152.67295      3375         
       590  -55.014894      0.26061226    -54.754282      0.029520714    224.02047     -7.692357       3375         
       600  -55.01603       0.29350854    -54.722522      0.029520714    252.29787     -36.278195      3375         
       610  -55.026571      0.30038782    -54.726183      0.029520714    258.21125     -445.90102      3375         
       620  -55.131166      0.42257847    -54.708588      0.029520714    363.24548      189.39343      3375         
       630  -55.131822      0.44419763    -54.687624      0.029520714    381.82916      235.09855      3375         
       640  -54.947003      0.26933878    -54.677664      0.029520714    231.52172     -469.717        3375         
       650  -54.976242      0.32154838    -54.654694      0.029520714    276.40073      295.35952      3375         
       660  -55.136863      0.48512875    -54.651734      0.029520714    417.01326      196.64981      3375         
       670  -54.98206       0.33199493    -54.650065      0.029520714    285.3805      -561.25561      3375         
       680  -54.992546      0.35308658    -54.639459      0.029520714    303.51074      395.09964      3375         
       690  -54.988496      0.36225149    -54.626245      0.029520714    311.38883      525.40829      3375         
       700  -54.938004      0.31803971    -54.619965      0.029520714    273.38469     -125.55329      3375         
       710  -55.132468      0.53214503    -54.600323      0.029520714    457.42813      251.88624      3375         
       720  -55.081675      0.48023288    -54.601442      0.029520714    412.80481     -516.90086      3375         
       730  -54.964425      0.36902582    -54.595399      0.029520714    317.212       -612.46797      3375         
       740  -54.987305      0.39346512    -54.59384       0.029520714    338.21985      810.56776      3375         
       750  -55.09948       0.50260145    -54.596879      0.029520714    432.03267     -27.845427      3375         
       760  -54.863512      0.27410738    -54.589405      0.029520714    235.62077     -750.71035      3375         
       770  -54.957798      0.36703825    -54.590759      0.029520714    315.5035       310.77015      3375         
       780  -54.965365      0.37128514    -54.59408       0.029520714    319.15409      115.2019       3375         
       790  -55.044514      0.44381998    -54.600694      0.029520714    381.50454      91.955651      3375         
       800  -55.096149      0.49156275    -54.604587      0.029520714    422.54388      232.10331      3375         
       810  -54.954161      0.36335922    -54.590802      0.029520714    312.34103     -519.99002      3375         
       820  -54.956718      0.3545479     -54.60217       0.029520714    304.76688     -20.925823      3375         
       830  -55.036662      0.41151033    -54.625152      0.029520714    353.73139      535.57062      3375         
       840  -55.091556      0.44625668    -54.645299      0.029520714    383.59911     -442.25212      3375         
       850  -54.958184      0.31697278    -54.641211      0.029520714    272.46757      39.109202      3375         
       860  -54.99012       0.3325055     -54.657614      0.029520714    285.81938      614.92654      3375         
       870  -54.946259      0.2837366     -54.662522      0.029520714    243.89798      70.51283       3375         
       880  -55.097647      0.41087907    -54.686768      0.029520714    353.18876     -336.6199       3375         
       890  -55.100959      0.38512409    -54.715835      0.029520714    331.04995     -213.32851      3375         
       900  -54.965408      0.23205993    -54.733348      0.029520714    199.47709     -278.42511      3375         
       910  -54.998118      0.24433368    -54.753784      0.029520714    210.02751      112.48662      3375         
       920  -55.068073      0.29180981    -54.776263      0.029520714    250.83766      118.8076       3375         
       930  -55.183917      0.40042206    -54.783495      0.029520714    344.19998     -24.254298      3375         
       940  -55.124155      0.30981419    -54.814341      0.029520714    266.3141       164.60432      3375         
       950  -55.108839      0.26472567    -54.844113      0.029520714    227.55632     -164.10717      3375         
       960  -55.067348      0.2230859     -54.844262      0.029520714    191.76307     -24.668482      3375         
       970  -55.131819      0.26832836    -54.86349       0.029520714    230.65317      55.415435      3375         
       980  -55.141541      0.26390887    -54.877632      0.029520714    226.85421      31.476041      3375         
       990  -55.142777      0.2684052     -54.874372      0.029520714    230.71922      375.42634      3375         
      1000  -55.14849       0.24990579    -54.898584      0.029520714    214.81726      39.635812      3375         
      1010  -55.20407       0.29313949    -54.910931      0.029520714    251.98064     -497.29918      3375         
      1020  -55.19638       0.30027628    -54.896104      0.029520714    258.11537     -59.910419      3375         
      1030  -55.04986       0.14152838    -54.908331      0.029520714    121.6568       77.869858      3375         
      1040  -55.062703      0.14829341    -54.91441       0.029520714    127.47197      278.95759      3375         
      1050  -55.194958      0.28580894    -54.909149      0.029520714    245.67935      70.898477      3375         
      1060  -55.178646      0.26624481    -54.912401      0.029520714    228.86216     -804.02935      3375         
      1070  -55.122668      0.21543347    -54.907234      0.029520714    185.18509     -35.71075       3375         
      1080  -55.155303      0.25886201    -54.896441      0.029520714    222.51596      656.4867       3375         
      1090  -55.137019      0.23634701    -54.900672      0.029520714    203.16223      38.952191      3375         
      1100  -55.11767       0.22700107    -54.890669      0.029520714    195.12852      57.019122      3375         
      1110  -55.159211      0.2845313     -54.874679      0.029520714    244.5811       46.205659      3375         
      1120  -55.085625      0.20886017    -54.876764      0.029520714    179.53473     -267.0431       3375         
      1130  -55.161483      0.29687911    -54.864604      0.029520714    255.19519      361.27377      3375         
      1140  -55.20631       0.37098666    -54.835324      0.029520714    318.89753      0.29596033     3375         
      1150  -55.110642      0.28290804    -54.827733      0.029520714    243.18576     -670.32371      3375         
      1160  -54.972222      0.16275466    -54.809467      0.029520714    139.90276      567.28148      3375         
      1170  -55.05747       0.25208963    -54.80538       0.029520714    216.69447      367.69392      3375         
      1180  -55.1043        0.29846497    -54.805835      0.029520714    256.55839     -700.15076      3375         
      1190  -55.045854      0.25495256    -54.790902      0.029520714    219.15542     -324.19813      3375         
      1200  -55.186668      0.42154286    -54.765126      0.029520714    362.35527     -314.23954      3375         
      1210  -55.016746      0.24923887    -54.767507      0.029520714    214.24398      188.20261      3375         
      1220  -55.018608      0.25349522    -54.765113      0.029520714    217.9027       923.78011      3375         
      1230  -55.160869      0.41312602    -54.747743      0.029520714    355.12022     -139.29151      3375         
      1240  -55.0731        0.33253963    -54.740561      0.029520714    285.84873     -411.62138      3375         
      1250  -54.929678      0.18849486    -54.741183      0.029520714    162.02886      683.55372      3375         
      1260  -55.041923      0.29877888    -54.743144      0.029520714    256.82822     -169.34907      3375         
      1270  -55.125787      0.38044065    -54.745346      0.029520714    327.02411     -897.93877      3375         
      1280  -55.062265      0.33741511    -54.72485       0.029520714    290.03965      224.51116      3375         
      1290  -55.107566      0.39259268    -54.714973      0.029520714    337.46991      619.47614      3375         
      1300  -55.018711      0.29285659    -54.725855      0.029520714    251.73747      546.62181      3375         
      1310  -55.091201      0.35442373    -54.736777      0.029520714    304.66015      8.1834505      3375         
      1320  -55.017211      0.31248057    -54.704731      0.029520714    268.6061      -1145.13        3375         
      1330  -54.906794      0.20737718    -54.699416      0.029520714    178.25996     -415.64966      3375         
      1340  -55.130342      0.42678935    -54.703552      0.029520714    366.86513      627.40847      3375         
      1350  -55.101776      0.40662776    -54.695148      0.029520714    349.53436      85.124291      3375         
      1360  -55.030206      0.33272429    -54.697482      0.029520714    286.00746     -33.286523      3375         
      1370  -55.110731      0.41064906    -54.700082      0.029520714    352.99104      201.40671      3375         
      1380  -55.073101      0.4041547     -54.668946      0.029520714    347.40853     -439.16679      3375         
      1390  -54.962629      0.30041584    -54.662213      0.029520714    258.23534     -50.838588      3375         
      1400  -55.051584      0.38303107    -54.668553      0.029520714    329.25081      340.7625       3375         
      1410  -55.044921      0.37989982    -54.665022      0.029520714    326.55921     -340.86617      3375         
      1420  -54.916723      0.25449905    -54.662224      0.029520714    218.76559      275.82462      3375         
      1430  -55.041506      0.37599378    -54.665513      0.029520714    323.20161      834.05304      3375         
      1440  -55.104678      0.46417933    -54.640499      0.029520714    399.00528     -136.23764      3375         
      1450  -55.034734      0.40241567    -54.632318      0.029520714    345.91368     -442.76599      3375         
      1460  -55.09681       0.46308845    -54.633721      0.029520714    398.06757     -623.15798      3375         
      1470  -55.042861      0.42036871    -54.622492      0.029520714    361.34599     -55.584763      3375         
      1480  -54.93253       0.30464539    -54.627885      0.029520714    261.87104      977.00847      3375         
      1490  -55.083294      0.42771466    -54.655579      0.029520714    367.66051      24.91412       3375         
      1500  -54.989157      0.39186859    -54.597289      0.029520714    336.84749     -1045.6284      3375         
      1510  -54.813513      0.21849125    -54.595022      0.029520714    187.81354      149.58264      3375         
      1520  -55.110311      0.49927427    -54.611037      0.029520714    429.17265      244.98658      3375         
      1530  -55.103179      0.50507232    -54.598106      0.029520714    434.15661     -47.609166      3375         
      1540  -55.021113      0.41255166    -54.608561      0.029520714    354.6265       44.944278      3375         
      1550  -55.084609      0.4742983     -54.610311      0.029520714    407.70348     -752.8022       3375         
      1560  -55.008655      0.45085409    -54.557801      0.029520714    387.55101      713.09295      3375         
      1570  -54.98279       0.39438475    -54.588405      0.029520714    339.01035      1014.9738      3375         
      1580  -54.96598       0.36690432    -54.599076      0.029520714    315.38837     -690.16348      3375         
      1590  -54.932473      0.3357536     -54.596719      0.029520714    288.61144     -611.02352      3375         
      1600  -55.003522      0.40062053    -54.602901      0.029520714    344.37059     -285.20234      3375         
      1610  -54.925211      0.32175669    -54.603454      0.029520714    276.57979      404.27971      3375         
      1620  -55.004666      0.39640796    -54.608258      0.029520714    340.74949      1380.1869      3375         
      1630  -55.016538      0.39393714    -54.622601      0.029520714    338.62559     -257.97794      3375         
      1640  -54.99896       0.3819633     -54.616997      0.029520714    328.33297     -1486.1373      3375         
      1650  -54.921498      0.29188848    -54.62961       0.029520714    250.90529      619.88218      3375         
      1660  -55.049491      0.40178202    -54.647709      0.029520714    345.369        340.24118      3375         
      1670  -55.156773      0.47596814    -54.680805      0.029520714    409.13886     -909.85447      3375         
      1680  -54.909102      0.24104448    -54.668057      0.029520714    207.20014      2.495496       3375         
      1690  -55.061638      0.38148933    -54.680149      0.029520714    327.92554      430.81306      3375         
      1700  -55.134706      0.4324155     -54.70229       0.029520714    371.70132      544.82536      3375         
      1710  -55.00322       0.27169003    -54.73153       0.029520714    233.54284      242.25431      3375         
      1720  -55.010044      0.26877864    -54.741265      0.029520714    231.04023     -1330.7012      3375         
      1730  -55.170987      0.4295936     -54.741393      0.029520714    369.27564     -102.52046      3375         
      1740  -55.1035        0.32751984    -54.77598       0.029520714    281.53375      1442.7768      3375         
      1750  -55.076845      0.27884545    -54.797999      0.029520714    239.69358     -233.38103      3375         
      1760  -55.096638      0.28998257    -54.806656      0.029520714    249.26697     -528.63056      3375         
      1770  -55.094128      0.27348308    -54.820645      0.029520714    235.08413      165.42357      3375         
      1780  -55.085346      0.25494016    -54.830405      0.029520714    219.14477     -147.91388      3375         
      1790  -55.041298      0.19688302    -54.844415      0.029520714    169.23926      304.29532      3375         
      1800  -55.01988       0.16480436    -54.855075      0.029520714    141.66467     -62.161756      3375         
      1810  -55.087086      0.24436033    -54.842726      0.029520714    210.05042     -869.90029      3375         
      1820  -55.118885      0.26832682    -54.850558      0.029520714    230.65184      389.35066      3375         
      1830  -55.174003      0.30991656    -54.864087      0.029520714    266.4021       775.03061      3375         
      1840  -55.184534      0.32561364    -54.858921      0.029520714    279.89519     -454.4892       3375         
      1850  -55.112834      0.25005916    -54.862775      0.029520714    214.94909     -66.816478      3375         
      1860  -55.123295      0.2674446     -54.855851      0.029520714    229.8935       61.53681       3375         
      1870  -55.155374      0.31346682    -54.841907      0.029520714    269.45387     -154.01297      3375         
      1880  -55.133353      0.27119209    -54.862161      0.029520714    233.11481      361.45831      3375         
      1890  -55.089678      0.22827145    -54.861406      0.029520714    196.22053     -210.22406      3375         
      1900  -55.088324      0.26557425    -54.82275       0.029520714    228.28576     -125.64153      3375         
      1910  -55.073251      0.24259012    -54.830661      0.029520714    208.52876      783.07695      3375         
      1920  -55.172529      0.35883307    -54.813696      0.029520714    308.45038     -401.40414      3375         
      1930  -55.071837      0.2777812     -54.794056      0.029520714    238.77876     -752.99814      3375         
      1940  -55.013011      0.22491014    -54.788101      0.029520714    193.33118      260.13134      3375         
      1950  -55.093057      0.32475258    -54.768304      0.029520714    279.15503      305.84362      3375         
      1960  -55.104605      0.35894812    -54.745657      0.029520714    308.54928      2.640489       3375         
      1970  -54.963841      0.2339501     -54.729891      0.029520714    201.10186     -189.5742       3375         
      1980  -54.946002      0.27074824    -54.675254      0.029520714    232.73328     -432.37927      3375         
      1990  -55.014764      0.35805677    -54.656707      0.029520714    307.78308      566.11739      3375         
      2000  -54.918875      0.28489802    -54.633977      0.029520714    244.89634      549.59589      3375         
      2010  -55.052577      0.44818455    -54.604392      0.029520714    385.25629     -651.42586      3375         
      2020  -55.028498      0.44352578    -54.584972      0.029520714    381.25164     -600.10862      3375         
      2030  -54.83843       0.27215444    -54.566276      0.029520714    233.94204      355.28016      3375         
      2040  -55.018521      0.49572419    -54.522796      0.029520714    426.12102      912.24987      3375         
      2050  -55.146789      0.61736316    -54.529425      0.029520714    530.68103      382.58725      3375         
      2060  -54.920792      0.3884636     -54.532328      0.029520714    333.92057     -734.68228      3375         
      2070  -54.96884       0.4497403     -54.519099      0.029520714    386.5936      -624.09966      3375         
      2080  -55.004781      0.47496355    -54.529817      0.029520714    408.27533      249.65666      3375         
      2090  -54.794394      0.26908191    -54.525312      0.029520714    231.30092      320.0529       3375         
      2100  -54.839346      0.3231274     -54.516218      0.029520714    277.75804      412.08128      3375         
      2110  -55.065327      0.53380588    -54.531522      0.029520714    458.85578     -23.103375      3375         
      2120  -54.956496      0.41970981    -54.536786      0.029520714    360.7796      -694.23137      3375         
      2130  -54.967678      0.41993806    -54.54774       0.029520714    360.9758      -628.31464      3375         
      2140  -55.137451      0.56834341    -54.569107      0.029520714    488.544       -339.73249      3375         
      2150  -55.016146      0.46103879    -54.555107      0.029520714    396.3057       632.81507      3375         
      2160  -54.910489      0.33267354    -54.577815      0.029520714    285.96384      1239.3094      3375         
      2170  -54.983414      0.37972246    -54.603692      0.029520714    326.40675      7.8346268      3375         
      2180  -54.929097      0.32706358    -54.602033      0.029520714    281.14155     -917.21198      3375         
      2190  -54.959137      0.34218992    -54.616947      0.029520714    294.14405     -329.76881      3375         
      2200  -55.034316      0.40088828    -54.633428      0.029520714    344.60074      359.41758      3375         
      2210  -55.119894      0.47323537    -54.646658      0.029520714    406.7898       604.58808      3375         
      2220  -55.129         0.45472063    -54.674279      0.029520714    390.87465     -191.44028      3375         
      2230  -54.931261      0.25982044    -54.67144       0.029520714    223.33982     -506.13807      3375         
      2240  -55.128059      0.43946845    -54.688591      0.029520714    377.76398      206.33047      3375         
      2250  -55.095715      0.37572184    -54.719993      0.029520714    322.96785      408.03812      3375         
      2260  -54.901908      0.17860096    -54.723307      0.029520714    153.52413     -18.280131      3375         
      2270  -55.014702      0.28569372    -54.729009      0.029520714    245.58031     -536.43667      3375         
      2280  -55.132597      0.38448368    -54.748113      0.029520714    330.49946     -554.06621      3375         
      2290  -55.024078      0.28379716    -54.74028       0.029520714    243.95004      432.80545      3375         
      2300  -55.122569      0.36288506    -54.759684      0.029520714    311.93344      609.91846      3375         
      2310  -55.228602      0.44617436    -54.782428      0.029520714    383.52834     -28.476217      3375         
      2320  -55.031952      0.26909466    -54.762857      0.029520714    231.31187      26.195225      3375         
      2330  -55.017604      0.22920583    -54.788398      0.029520714    197.02372     -254.88617      3375         
      2340  -55.158296      0.35218403    -54.806112      0.029520714    302.73491     -792.60864      3375         
      2350  -55.082239      0.29566316    -54.786575      0.029520714    254.14997      219.10761      3375         
      2360  -54.954235      0.15033395    -54.803901      0.029520714    129.226        702.29102      3375         
      2370  -55.115844      0.30810307    -54.807741      0.029520714    264.84323      613.79652      3375         
      2380  -55.151131      0.34898035    -54.80215       0.029520714    299.98105      94.630007      3375         
      2390  -55.101927      0.28451379    -54.817413      0.029520714    244.56605     -1407.9209      3375         
      2400  -55.120322      0.3162149     -54.804108      0.029520714    271.8161      -932.2367       3375         
      2410  -55.132935      0.33518872    -54.797747      0.029520714    288.12586      983.505        3375         
      2420  -55.142359      0.32831266    -54.814046      0.029520714    282.21525      990.28924      3375         
      2430  -55.075195      0.2592173     -54.815977      0.029520714    222.82137      369.29957      3375         
      2440  -55.006825      0.20690411    -54.799921      0.029520714    177.85331     -529.29808      3375         
      2450  -55.105665      0.30777122    -54.797894      0.029520714    264.55797     -1075.7153      3375         
      2460  -55.123697      0.34786091    -54.775836      0.029520714    299.01879      707.28287      3375         
      2470  -55.110861      0.33676613    -54.774095      0.029520714    289.4818       751.7755       3375         
      2480  -55.147339      0.37872788    -54.768612      0.029520714    325.55182     -1079.2732      3375         
      2490  -55.059746      0.35754637    -54.7022        0.029520714    307.34434     -81.94219       3375         
      2500  -55.017965      0.32988828    -54.688077      0.029520714    283.56965      531.83019      3375         
      2510  -55.112802      0.44706148    -54.665741      0.029520714    384.2909      -287.93069      3375         
      2520  -54.936282      0.32254436    -54.613738      0.029520714    277.25686      321.32054      3375         
      2530  -54.960432      0.37314632    -54.587286      0.029520714    320.75395     -470.34848      3375         
      2540  -54.988649      0.43428192    -54.554367      0.029520714    373.30568     -487.63119      3375         
      2550  -54.901133      0.38154791    -54.519585      0.029520714    327.9759       1190.0267      3375         
      2560  -54.931136      0.43150175    -54.499634      0.029520714    370.91587     -210.81687      3375         
      2570  -55.044165      0.57963051    -54.464534      0.029520714    498.24631     -452.37969      3375         
      2580  -54.927217      0.48698667    -54.44023       0.029520714    418.61031      1222.678       3375         
      2590  -54.88659       0.45404815    -54.432542      0.029520714    390.2966      -395.84988      3375         
      2600  -55.008328      0.57974444    -54.428583      0.029520714    498.34424     -959.73846      3375         
      2610  -54.819328      0.39204756    -54.427281      0.029520714    337.00132      25.056092      3375         
      2620  -54.82879       0.41409016    -54.4147        0.029520714    355.94899     -296.15732      3375         
      2630  -54.951106      0.52885584    -54.42225       0.029520714    454.60076      1103.1577      3375         
      2640  -54.77047       0.33743817    -54.433032      0.029520714    290.05948      1181.762       3375         
      2650  -54.759435      0.31797673    -54.441458      0.029520714    273.33056     -1935.3629      3375         
      2660  -54.990209      0.56607979    -54.424129      0.029520714    486.5982      -1049.4031      3375         
      2670  -55.062223      0.61880021    -54.443423      0.029520714    531.91631      992.74792      3375         
      2680  -54.878321      0.41015075    -54.46817       0.029520714    352.5627       848.04669      3375         
      2690  -54.9908        0.48737351    -54.503427      0.029520714    418.94284      531.58746      3375         
      2700  -54.946266      0.40090503    -54.545361      0.029520714    344.61514     -1489.2011      3375         
      2710  -54.966868      0.46454509    -54.502323      0.029520714    399.31969     -1370.0455      3375         
      2720  -54.957577      0.40294677    -54.55463       0.029520714    346.37021      1738.623       3375         
      2730  -54.926473      0.32691635    -54.599557      0.029520714    281.015        1219.8991      3375         
      2740  -54.956728      0.33931037    -54.617418      0.029520714    291.66881     -923.9376       3375         
      2750  -54.96053       0.3323808     -54.628149      0.029520714    285.7122      -493.31385      3375         
      2760  -55.144512      0.49409449    -54.650417      0.029520714    424.72015     -218.11438      3375         
      2770  -55.137529      0.47041644    -54.667113      0.029520714    404.36666      568.0201       3375         
      2780  -54.958906      0.26054053    -54.698366      0.029520714    223.9588       1008.7559      3375         
      2790  -54.961313      0.24329643    -54.718016      0.029520714    209.1359      -892.59113      3375         
      2800  -55.154688      0.43267494    -54.722013      0.029520714    371.92433     -710.90979      3375         
      2810  -55.03854       0.29830334    -54.740237      0.029520714    256.41946      478.77674      3375         
      2820  -55.009772      0.24533667    -54.764435      0.029520714    210.88968     -209.26229      3375         
      2830  -55.107537      0.34901237    -54.758525      0.029520714    300.00858     -31.983696      3375         
      2840  -55.072392      0.31594261    -54.756449      0.029520714    271.58204      401.01903      3375         
      2850  -55.092933      0.33814161    -54.754792      0.029520714    290.66415      32.366138      3375         
      2860  -55.147668      0.38191405    -54.765754      0.029520714    328.29063      289.61946      3375         
      2870  -55.103334      0.3165175     -54.786817      0.029520714    272.07621     -551.20672      3375         
      2880  -55.029727      0.251205      -54.778522      0.029520714    215.93405     -928.26285      3375         
      2890  -55.134797      0.36418331    -54.770614      0.029520714    313.04941      936.58855      3375         
      2900  -55.117547      0.3324831     -54.785064      0.029520714    285.80014      958.24115      3375         
      2910  -55.041044      0.2615191     -54.779525      0.029520714    224.79998     -486.93361      3375         
      2920  -55.032567      0.26056792    -54.771999      0.029520714    223.98235     -356.59856      3375         
      2930  -55.15319       0.3787692     -54.774421      0.029520714    325.58734     -159.8218       3375         
      2940  -55.074254      0.29916268    -54.775092      0.029520714    257.15814      393.26388      3375         
      2950  -55.063305      0.28447455    -54.778831      0.029520714    244.53232      397.6104       3375         
      2960  -55.013283      0.2411014     -54.772182      0.029520714    207.24907     -1283.962       3375         
      2970  -55.033393      0.27252375    -54.760869      0.029520714    234.2595      -323.69959      3375         
      2980  -55.136546      0.376091      -54.760455      0.029520714    323.28518      1369.834       3375         
      2990  -55.074339      0.31361609    -54.760723      0.029520714    269.58218      281.5628       3375         
      3000  -54.992551      0.23122625    -54.761325      0.029520714    198.76046     -695.83399      3375         
      3010  -55.070614      0.33507244    -54.735542      0.029520714    288.02592     -515.32568      3375         
      3020  -55.129478      0.41499955    -54.714479      0.029520714    356.73069     -45.772753      3375         
      3030  -55.134544      0.41976749    -54.714776      0.029520714    360.82918      818.90026      3375         
      3040  -54.973551      0.2645636     -54.708988      0.029520714    227.41701      198.06088      3375         
      3050  -54.972646      0.29031701    -54.682329      0.029520714    249.55446     -624.51418      3375         
      3060  -55.101804      0.42765487    -54.674149      0.029520714    367.60911      578.94498      3375         
      3070  -55.123004      0.46126339    -54.66174       0.029520714    396.49877      256.31908      3375         
      3080  -55.059146      0.42173636    -54.63741       0.029520714    362.52161     -1304.7159      3375         
      3090  -54.969252      0.36401319    -54.605239      0.029520714    312.90318     -549.08491      3375         
      3100  -54.911676      0.32672307    -54.584953      0.029520714    280.84885      1351.3891      3375         
      3110  -54.8728        0.29407507    -54.578724      0.029520714    252.78486      1258.293       3375         
      3120  -55.076746      0.52388597    -54.55286       0.029520714    450.3287      -140.9498       3375         
      3130  -54.787906      0.27100666    -54.516899      0.029520714    232.95541     -2025.4224      3375         
      3140  -54.813134      0.33820987    -54.474925      0.029520714    290.72282     -1406.5681      3375         
      3150  -55.004823      0.56180534    -54.443018      0.029520714    482.92391      1676.4808      3375         
      3160  -54.846213      0.45151549    -54.394698      0.029520714    388.11954      2146.0374      3375         
      3170  -54.848407      0.4757817     -54.372625      0.029520714    408.9786      -641.4733       3375         
      3180  -54.972387      0.63284203    -54.339545      0.029520714    543.98656     -1597.2508      3375         
      3190  -54.967759      0.71378213    -54.253977      0.029520714    613.5621      -449.67876      3375         
      3200  -54.793327      0.5271607     -54.266166      0.029520714    453.14363      835.27051      3375         
      3210  -54.935089      0.65311406    -54.281975      0.029520714    561.41225      788.06241      3375         
      3220  -54.724864      0.44844176    -54.276423      0.029520714    385.47738     -711.99031      3375         
      3230  -54.783619      0.5114343     -54.272185      0.029520714    439.62532     -17.104843      3375         
      3240  -54.94898       0.66314451    -54.285836      0.029520714    570.03436      1148.9548      3375         
      3250  -54.973647      0.6803256     -54.293321      0.029520714    584.8031      -396.44286      3375         
      3260  -54.848455      0.52684151    -54.321614      0.029520714    452.86925     -1111.0951      3375         
      3270  -55.012197      0.66196234    -54.350234      0.029520714    569.01817      363.73825      3375         
      3280  -54.938518      0.54144636    -54.397071      0.029520714    465.42348      391.98981      3375         
      3290  -54.768588      0.35137218    -54.417216      0.029520714    302.03705     -88.241056      3375         
      3300  -54.806072      0.36573137    -54.44034       0.029520714    314.38011     -555.05939      3375         
      3310  -54.828101      0.38491567    -54.443185      0.029520714    330.8708      -396.04018      3375         
      3320  -54.876064      0.40767466    -54.468389      0.029520714    350.43427      749.47077      3375         
      3330  -54.826304      0.35303249    -54.473271      0.029520714    303.46424      1024.008       3375         
      3340  -54.790497      0.30679904    -54.483697      0.029520714    263.7223      -584.57564      3375         
      3350  -54.905085      0.41006116    -54.495024      0.029520714    352.48569     -859.66213      3375         
      3360  -54.944176      0.44276329    -54.501413      0.029520714    380.59621      226.11219      3375         
      3370  -54.822079      0.30842175    -54.513657      0.029520714    265.11717      286.23039      3375         
      3380  -54.895707      0.36781087    -54.527896      0.029520714    316.16764      149.69281      3375         
      3390  -55.016555      0.48605942    -54.530495      0.029520714    417.81325     -345.07231      3375         
      3400  -55.057116      0.51720796    -54.539908      0.029520714    444.58832     -460.32069      3375         
      3410  -55.169887      0.59388115    -54.576006      0.029520714    510.49606      346.04889      3375         
      3420  -55.037266      0.4347233     -54.602543      0.029520714    373.68509      493.77915      3375         
      3430  -54.882182      0.26059016    -54.621591      0.029520714    224.00147     -239.01226      3375         
      3440  -54.982488      0.36188942    -54.620598      0.029520714    311.0776      -157.92261      3375         
      3450  -55.05826       0.45504583    -54.603214      0.029520714    391.1542       425.25109      3375         
      3460  -54.993807      0.34301258    -54.650795      0.029520714    294.8512       194.67681      3375         
      3470  -55.063513      0.37899146    -54.684521      0.029520714    325.77839     -79.187901      3375         
      3480  -55.117845      0.42913311    -54.688712      0.029520714    368.87981     -691.71272      3375         
      3490  -55.05552       0.35385641    -54.701664      0.029520714    304.17248     -559.94831      3375         
      3500  -55.062064      0.34483208    -54.717232      0.029520714    296.41523      584.30249      3375         
      3510  -55.00018       0.26890897    -54.731271      0.029520714    231.15225      689.48207      3375         
      3520  -55.031133      0.28431691    -54.746816      0.029520714    244.39681     -320.78593      3375         
      3530  -55.084611      0.32622465    -54.758386      0.029520714    280.42041     -408.26967      3375         
      3540  -55.086005      0.32756355    -54.758442      0.029520714    281.57132     -378.41969      3375         
      3550  -55.037511      0.26725175    -54.770259      0.029520714    229.72772      276.44986      3375         
      3560  -54.978113      0.20117275    -54.77694       0.029520714    172.92668      943.98425      3375         
      3570  -55.063521      0.28686319    -54.776658      0.029520714    246.58558      53.701225      3375         
      3580  -55.097564      0.31838884    -54.779175      0.029520714    273.68481     -671.2191       3375         
      3590  -55.14172       0.36137249    -54.780348      0.029520714    310.63325     -17.857818      3375         
      3600  -55.096155      0.3127108     -54.783444      0.029520714    268.80401      76.732494      3375         
      3610  -55.077221      0.28915594    -54.788065      0.029520714    248.55641      33.961625      3375         
      3620  -55.167289      0.38414684    -54.783142      0.029520714    330.20992      734.08518      3375         
      3630  -55.070351      0.29108373    -54.779267      0.029520714    250.21352     -18.204697      3375         
      3640  -55.040675      0.26288397    -54.777791      0.029520714    225.97321     -732.57652      3375         
      3650  -54.979557      0.20021959    -54.779337      0.029520714    172.10735     -298.8079       3375         
      3660  -55.044151      0.26409782    -54.780054      0.029520714    227.01663     -505.59538      3375         
      3670  -55.15835       0.3862938     -54.772056      0.029520714    332.05543      153.56687      3375         
      3680  -55.143822      0.3733369     -54.770485      0.029520714    320.91777      1121.3481      3375         
      3690  -55.076615      0.31203578    -54.764579      0.029520714    268.22376     -98.630391      3375         
      3700  -55.013107      0.28677272    -54.726334      0.029520714    246.50781     -642.06958      3375         
      3710  -55.137833      0.4163248     -54.721508      0.029520714    357.86987     -102.87789      3375         
      3720  -55.047047      0.33597258    -54.711074      0.029520714    288.79966      50.06246       3375         
      3730  -55.001294      0.30316687    -54.698127      0.029520714    260.60011      508.77255      3375         
      3740  -54.939579      0.24665032    -54.692929      0.029520714    212.01888      171.93743      3375         
      3750  -55.014127      0.37383614    -54.640291      0.029520714    321.34692     -541.92866      3375         
      3760  -55.195078      0.60911207    -54.585966      0.029520714    523.58845      266.42238      3375         
      3770  -54.963658      0.40706191    -54.556596      0.029520714    349.90755      407.78419      3375         
      3780  -54.874165      0.34597521    -54.52819       0.029520714    297.39786     -172.70057      3375         
      3790  -54.801353      0.30219779    -54.499155      0.029520714    259.76709     -93.517944      3375         
      3800  -55.051754      0.58028899    -54.471465      0.029520714    498.81234     -384.11891      3375         
      3810  -54.970592      0.56572747    -54.404865      0.029520714    486.29535     -282.86369      3375         
      3820  -54.929354      0.53945593    -54.389898      0.029520714    463.71252      283.28238      3375         
      3830  -54.760473      0.37058938    -54.389883      0.029520714    318.55602     -154.55747      3375         
      3840  -54.854681      0.47926734    -54.375413      0.029520714    411.97483      305.6785       3375         
      3850  -55.060555      0.6853872     -54.375168      0.029520714    589.15402      720.28742      3375         
      3860  -54.896969      0.51245222    -54.384516      0.029520714    440.50033     -632.26944      3375         
      3870  -54.901418      0.56382164    -54.337596      0.029520714    484.65712     -738.05471      3375         
      3880  -54.758164      0.38317317    -54.374991      0.029520714    329.37296      371.00247      3375         
      3890  -54.873329      0.48074203    -54.392587      0.029520714    413.24247      269.29147      3375         
      3900  -55.132194      0.71698776    -54.415206      0.029520714    616.31763      729.60502      3375         
      3910  -54.854011      0.4023347     -54.451676      0.029520714    345.84408     -8.5248814      3375         
      3920  -54.803621      0.35780193    -54.445819      0.029520714    307.56402     -1464.3918      3375         
      3930  -54.89691       0.44920693    -54.447703      0.029520714    386.13511      169.47757      3375         
      3940  -55.019527      0.52878576    -54.490741      0.029520714    454.54052      888.62617      3375         
      3950  -54.918227      0.4032884     -54.514938      0.029520714    346.66387      289.70189      3375         
      3960  -54.992086      0.44987288    -54.542214      0.029520714    386.70756      116.57617      3375         
      3970  -54.938176      0.37045613    -54.56772       0.029520714    318.44148     -922.07184      3375         
      3980  -54.927305      0.37457854    -54.552726      0.029520714    321.98508     -549.56046      3375         
      3990  -55.010379      0.43651408    -54.573865      0.029520714    375.22443      910.21006      3375         
      4000  -54.98319       0.37723266    -54.605957      0.029520714    324.26654     -16.139623      3375         
      4010  -55.0172        0.39851071    -54.618689      0.029520714    342.557       -329.42161      3375         
      4020  -54.955481      0.31720781    -54.638273      0.029520714    272.6696       411.4168       3375         
      4030  -55.08869       0.42148775    -54.667202      0.029520714    362.3079      -411.72535      3375         
      4040  -55.079452      0.44125596    -54.638196      0.029520714    379.30052     -265.7168       3375         
      4050  -55.092586      0.44771865    -54.644867      0.029520714    384.8558       629.58066      3375         
      4060  -54.894755      0.22006561    -54.674689      0.029520714    189.16685      164.92423      3375         
      4070  -55.011367      0.32420563    -54.687161      0.029520714    278.68488      272.12561      3375         
      4080  -55.166525      0.45280648    -54.713718      0.029520714    389.22927     -458.90382      3375         
      4090  -54.913587      0.21152318    -54.702064      0.029520714    181.82384     -1270.1227      3375         
      4100  -55.104561      0.41902059    -54.685541      0.029520714    360.18715      587.29035      3375         
      4110  -55.045891      0.3381379     -54.707753      0.029520714    290.66096      1299.3426      3375         
      4120  -54.992955      0.27628748    -54.716668      0.029520714    237.49477     -88.549115      3375         
      4130  -55.141437      0.40529939    -54.736138      0.029520714    348.3925      -405.77112      3375         
      4140  -55.193207      0.45236186    -54.740845      0.029520714    388.84707     -791.72148      3375         
      4150  -54.939746      0.23033131    -54.709415      0.029520714    197.99117     -119.46025      3375         
      4160  -55.019906      0.2916246     -54.728281      0.029520714    250.67845      979.2694       3375         
      4170  -55.103955      0.36892146    -54.735034      0.029520714    317.12229     -95.760335      3375         
      4180  -55.029282      0.28980224    -54.739479      0.029520714    249.11197     -550.39809      3375         
      4190  -55.208216      0.44808577    -54.76013       0.029520714    385.17138      259.40819      3375         
      4200  -55.00111       0.25694582    -54.744164      0.029520714    220.86882      210.40873      3375         
      4210  -55.097512      0.36828323    -54.729229      0.029520714    316.57367     -1.6120619      3375         
      4220  -55.126632      0.38670254    -54.73993       0.029520714    332.40678     -57.665848      3375         
      4230  -55.071879      0.33101825    -54.740861      0.029520714    284.54096     -278.77188      3375         
      4240  -54.991604      0.23982181    -54.751783      0.029520714    206.14914      96.185391      3375         
      4250  -55.066562      0.29132782    -54.775234      0.029520714    250.42334      27.297623      3375         
      4260  -55.039159      0.29827159    -54.740887      0.029520714    256.39216     -321.95637      3375         
      4270  -55.038483      0.30397202    -54.734511      0.029520714    261.29221      520.08799      3375         
      4280  -55.126195      0.38021101    -54.745984      0.029520714    326.82671      404.70058      3375         
      4290  -54.907608      0.16477974    -54.742828      0.029520714    141.6435      -437.05332      3375         
      4300  -55.08483       0.34225318    -54.742576      0.029520714    294.19843     -831.41369      3375         
      4310  -55.218921      0.48898612    -54.729935      0.029520714    420.32903     -77.796162      3375         
      4320  -55.05924       0.36134192    -54.697898      0.029520714    310.60697      1389.5909      3375         
      4330  -54.994554      0.29518227    -54.699372      0.029520714    253.7366       697.08097      3375         
      4340  -55.012034      0.31331924    -54.698715      0.029520714    269.32702     -1261.0929      3375         
      4350  -55.080104      0.43067001    -54.649434      0.029520714    370.20091     -1024.8142      3375         
      4360  -55.029721      0.39301214    -54.636709      0.029520714    337.83047      335.09439      3375         
      4370  -55.056636      0.43457174    -54.622064      0.029520714    373.55481      978.66363      3375         
      4380  -54.87036       0.29657203    -54.573788      0.029520714    254.93123      373.14321      3375         
      4390  -55.052866      0.5111215     -54.541744      0.029520714    439.35644     -833.6867       3375         
      4400  -55.030911      0.53331965    -54.497591      0.029520714    458.43782     -283.82577      3375         
      4410  -54.911069      0.43511773    -54.475951      0.029520714    374.02414      659.31364      3375         
      4420  -54.860203      0.39801343    -54.462189      0.029520714    342.12954     -166.79329      3375         
      4430  -54.87871       0.42959358    -54.449117      0.029520714    369.27562     -561.69992      3375         
      4440  -55.006713      0.59714006    -54.409573      0.029520714    513.29739     -231.22821      3375         
      4450  -54.818968      0.41677127    -54.402197      0.029520714    358.25366      484.24065      3375         
      4460  -54.925087      0.52661238    -54.398475      0.029520714    452.6723       870.21294      3375         
      4470  -54.889365      0.49538926    -54.393976      0.029520714    425.83312     -304.61526      3375         
      4480  -54.801724      0.42137958    -54.380344      0.029520714    362.21492     -1135.5078      3375         
      4490  -54.842517      0.46204433    -54.380472      0.029520714    397.17005      988.88866      3375         
      4500  -54.688519      0.30063525    -54.387884      0.029520714    258.42395      912.96097      3375         
      4510  -54.915693      0.50458587    -54.411107      0.029520714    433.73847     -1281.2183      3375         
      4520  -54.872692      0.48415517    -54.388537      0.029520714    416.17638     -782.85413      3375         
      4530  -55.08268       0.68381355    -54.398866      0.029520714    587.80132      593.02959      3375         
      4540  -54.935026      0.49929419    -54.435731      0.029520714    429.18977      1249.1909      3375         
      4550  -55.155566      0.66336283    -54.492203      0.029520714    570.22202      768.1072       3375         
      4560  -55.016749      0.49295865    -54.523791      0.029520714    423.74378     -1405.6428      3375         
      4570  -54.848482      0.32465411    -54.523828      0.029520714    279.07039     -1509.2373      3375         
      4580  -54.924421      0.37023066    -54.554191      0.029520714    318.24767      917.34648      3375         
      4590  -54.811992      0.22742737    -54.584564      0.029520714    195.49497      1028.4283      3375         
      4600  -54.998989      0.37895446    -54.620035      0.029520714    325.74658     -80.81883       3375         
      4610  -55.136696      0.48316379    -54.653532      0.029520714    415.3242      -778.12209      3375         
      4620  -55.142163      0.4916067     -54.650556      0.029520714    422.58166     -865.81476      3375         
      4630  -55.074593      0.39470165    -54.679891      0.029520714    339.28276      737.06907      3375         
      4640  -55.141459      0.43089732    -54.710562      0.029520714    370.39631      1062.3246      3375         
      4650  -54.931414      0.2031793     -54.728235      0.029520714    174.65149     -434.40987      3375         
      4660  -55.012272      0.27899575    -54.733276      0.029520714    239.82279     -797.7002       3375         
      4670  -55.062336      0.32538628    -54.73695       0.029520714    279.69976      111.15104      3375         
      4680  -54.959308      0.2187127     -54.740595      0.029520714    188.0039       661.59026      3375         
      4690  -55.113579      0.36414363    -54.749435      0.029520714    313.0153       300.74166      3375         
      4700  -55.039083      0.29253424    -54.746548      0.029520714    251.46037     -470.75591      3375         
      4710  -55.080947      0.33712764    -54.74382       0.029520714    289.79255     -295.96767      3375         
      4720  -55.166805      0.40577149    -54.761034      0.029520714    348.79832      711.76949      3375         
      4730  -55.189425      0.40184708    -54.787578      0.029520714    345.42492     -342.65151      3375         
      4740  -54.958042      0.22469575    -54.733346      0.029520714    193.14689     -1036.081       3375         
      4750  -55.09916       0.36903607    -54.730124      0.029520714    317.22081      283.93642      3375         
      4760  -55.039347      0.28704032    -54.752306      0.029520714    246.73784      1023.0041      3375         
      4770  -55.053016      0.2863948     -54.766621      0.029520714    246.18296      392.6213       3375         
      4780  -55.117933      0.33663072    -54.781302      0.029520714    289.3654      -952.17573      3375         
      4790  -55.093245      0.36938937    -54.723856      0.029520714    317.5245      -844.86032      3375         
      4800  -55.094784      0.37120309    -54.723581      0.029520714    319.08356      1018.519       3375         
      4810  -55.093145      0.34882503    -54.74432       0.029520714    299.84754      961.20415      3375         
      4820  -55.084372      0.33374241    -54.75063       0.029520714    286.88263     -899.31971      3375         
      4830  -54.975807      0.22900936    -54.746798      0.029520714    196.85483     -1016.1283      3375         
      4840  -55.067891      0.33346074    -54.734431      0.029520714    286.6405       310.00225      3375         
      4850  -54.976555      0.2433832     -54.733171      0.029520714    209.21049      1095.0023      3375         
      4860  -55.056841      0.32626176    -54.730579      0.029520714    280.45231      406.86763      3375         
      4870  -54.976949      0.25929411    -54.717655      0.029520714    222.88739     -1096.8245      3375         
      4880  -55.029641      0.32138298    -54.708258      0.029520714    276.25855     -994.97155      3375         
      4890  -55.150812      0.44910286    -54.701709      0.029520714    386.04565      1002.112       3375         
      4900  -55.059797      0.3561801     -54.703617      0.029520714    306.16991      1041.0267      3375         
      4910  -54.939592      0.25911115    -54.680481      0.029520714    222.73012     -463.95479      3375         
      4920  -55.106027      0.46738429    -54.638643      0.029520714    401.76024     -346.2401       3375         
      4930  -55.0518        0.41776122    -54.634039      0.029520714    359.10461     -236.88939      3375         
      4940  -55.026489      0.39167379    -54.634815      0.029520714    336.68004     -71.325984      3375         
      4950  -55.065484      0.42956541    -54.635919      0.029520714    369.2514      -61.137231      3375         
      4960  -54.778432      0.19701951    -54.581412      0.029520714    169.35658     -44.644714      3375         
      4970  -55.016832      0.47002865    -54.546803      0.029520714    404.03332      959.40304      3375         
      4980  -55.138326      0.60695357    -54.531373      0.029520714    521.73301      488.02486      3375         
      4990  -54.939429      0.42511736    -54.514312      0.029520714    365.42789     -1506.0123      3375         
      5000  -54.903155      0.40380583    -54.499349      0.029520714    347.10865     -1004.176       3375         
      5010  -55.045569      0.57169919    -54.47387       0.029520714    491.4286       686.4615       3375         
      5020  -54.865494      0.41796       -54.447534      0.029520714    359.27547      1236.8765      3375         
      5030  -54.949777      0.51801187    -54.431765      0.029520714    445.27936      511.29782      3375         
      5040  -54.861883      0.45338778    -54.408496      0.029520714    389.72895     -718.35478      3375         
      5050  -54.787296      0.38537827    -54.401918      0.029520714    331.26845     -1195.9254      3375         
      5060  -54.926761      0.53431757    -54.392443      0.029520714    459.29562      615.1979       3375         
      5070  -54.917516      0.5263167     -54.391199      0.029520714    452.41813      1147.7153      3375         
      5080  -54.952346      0.57992197    -54.372424      0.029520714    498.49684     -361.93603      3375         
      5090  -54.809768      0.457429      -54.352339      0.029520714    393.20275     -941.67853      3375         
      5100  -54.848472      0.49321365    -54.355258      0.029520714    423.96299     -265.7347       3375         
      5110  -54.93064       0.55252056    -54.37812       0.029520714    474.94278      895.18002      3375         
      5120  -54.922828      0.50900343    -54.413825      0.029520714    437.53577      985.62915      3375         
      5130  -54.860438      0.4093072     -54.451131      0.029520714    351.83759     -995.4054       3375         
      5140  -54.980141      0.5633359     -54.416805      0.029520714    484.23957     -1322.6572      3375         
      5150  -54.969799      0.50580451    -54.463995      0.029520714    434.78599      297.05831      3375         
      5160  -54.879638      0.36363932    -54.515999      0.029520714    312.5818       698.68437      3375         
      5170  -54.982286      0.41191573    -54.57037       0.029520714    354.07986      404.01076      3375         
      5180  -55.093422      0.46233878    -54.631083      0.029520714    397.42316      133.12791      3375         
      5190  -54.983178      0.33150317    -54.651675      0.029520714    284.95779     -353.92149      3375         
      5200  -54.952308      0.27743933    -54.674869      0.029520714    238.4849      -314.11163      3375         
      5210  -55.101329      0.39553017    -54.705799      0.029520714    339.99495      5.7693941      3375         
      5220  -54.979328      0.25235336    -54.726975      0.029520714    216.92117      32.954695      3375         
      5230  -55.061955      0.31814869    -54.743806      0.029520714    273.47838      223.61718      3375         
      5240  -55.153743      0.39248274    -54.76126       0.029520714    337.3754       659.18649      3375         
      5250  -55.000144      0.22928591    -54.770858      0.029520714    197.09255      44.927638      3375         
      5260  -55.167791      0.38953185    -54.778259      0.029520714    334.83884     -969.33169      3375         
      5270  -55.099817      0.33674664    -54.76307       0.029520714    289.46504     -647.74189      3375         
      5280  -55.021314      0.23858725    -54.782727      0.029520714    205.08793      613.19157      3375         
      5290  -55.047707      0.24740748    -54.800299      0.029520714    212.66973      1140.2682      3375         
      5300  -55.202036      0.37677245    -54.825264      0.029520714    323.87095     -260.22059      3375         
      5310  -55.042299      0.24360801    -54.798691      0.029520714    209.40373     -1333.8945      3375         
      5320  -55.095764      0.33402291    -54.761741      0.029520714    287.12375     -433.13763      3375         
      5330  -55.13901       0.36481677    -54.774194      0.029520714    313.59393      1259.7439      3375         
      5340  -55.051284      0.25582215    -54.795462      0.029520714    219.90292      852.48697      3375         
      5350  -55.153007      0.33780902    -54.815198      0.029520714    290.37825     -785.55583      3375         
      5360  -55.100537      0.32535289    -54.775184      0.029520714    279.67106     -797.74074      3375         
      5370  -55.079253      0.30308857    -54.776165      0.029520714    260.5328       357.56605      3375         
      5380  -54.970758      0.18976398    -54.780994      0.029520714    163.11978      736.85643      3375         
      5390  -55.11835       0.33922462    -54.779125      0.029520714    291.5951       161.33929      3375         
      5400  -55.107089      0.32506011    -54.782029      0.029520714    279.41938     -902.85389      3375         
      5410  -55.004988      0.24053945    -54.764449      0.029520714    206.76602     -483.21343      3375         
      5420  -55.037853      0.28740693    -54.750446      0.029520714    247.05297      999.31868      3375         
      5430  -55.193692      0.43397728    -54.759715      0.029520714    373.04382      351.36728      3375         
      5440  -55.077048      0.35594793    -54.7211        0.029520714    305.97034     -682.97871      3375         
      5450  -54.995524      0.29054041    -54.704984      0.029520714    249.74649     -86.437239      3375         
      5460  -55.094625      0.37956164    -54.715063      0.029520714    326.26851      312.07385      3375         
      5470  -55.006444      0.30030648    -54.706137      0.029520714    258.14134      367.98696      3375         
      5480  -55.014316      0.32448263    -54.689833      0.029520714    278.92299     -845.44009      3375         
      5490  -55.067729      0.43214028    -54.635589      0.029520714    371.46474     -1045.4854      3375         
      5500  -55.069274      0.45517049    -54.614103      0.029520714    391.26135      1585.8392      3375         
      5510  -54.998212      0.37892814    -54.619284      0.029520714    325.72396      1397.1002      3375         
      5520  -55.095293      0.4605212     -54.634771      0.029520714    395.86079     -1340.271       3375         
      5530  -54.933772      0.37368693    -54.560085      0.029520714    321.21865     -1358.7316      3375         
      5540  -54.875367      0.31966361    -54.555704      0.029520714    274.78059      382.05836      3375         
      5550  -54.948163      0.39055826    -54.557605      0.029520714    335.72113      1255.8212      3375         
      5560  -54.919869      0.38055256    -54.539316      0.029520714    327.12031      579.98332      3375         
      5570  -54.844807      0.30176756    -54.543039      0.029520714    259.39727     -1697.7396      3375         
      5580  -54.962755      0.46299858    -54.499756      0.029520714    397.99032     -1060.554       3375         
      5590  -54.839158      0.35540057    -54.483757      0.029520714    305.49983      1796.6661      3375         
      5600  -55.040625      0.56707848    -54.473547      0.029520714    487.45668      1165.0293      3375         
      5610  -54.9132        0.44844653    -54.464754      0.029520714    385.48148     -585.18208      3375         
      5620  -54.925274      0.48932766    -54.435947      0.029520714    420.62261     -1084.5859      3375         
      5630  -54.984558      0.55767803    -54.42688       0.029520714    479.37611     -801.53115      3375         
      5640  -54.902225      0.48541544    -54.41681       0.029520714    417.25969      1381.9044      3375         
      5650  -55.029935      0.60100636    -54.428928      0.029520714    516.62084      1054.9946      3375         
      5660  -54.828525      0.39305837    -54.435467      0.029520714    337.87021     -1786.0708      3375         
      5670  -54.976344      0.58749496    -54.388849      0.029520714    505.00654     -336.19802      3375         
      5680  -54.751731      0.3269871     -54.424744      0.029520714    281.07581      1504.4272      3375         
      5690  -55.080356      0.6103493     -54.470007      0.029520714    524.65197     -270.55673      3375         
      5700  -54.910674      0.4358564     -54.474817      0.029520714    374.65909     -946.98043      3375         
      5710  -55.13609       0.65326763    -54.482822      0.029520714    561.54426     -395.74494      3375         
      5720  -54.858542      0.30540433    -54.553138      0.029520714    262.52342      802.43952      3375         
      5730  -54.985404      0.38749064    -54.597913      0.029520714    333.08423      1200.8692      3375         
      5740  -55.043183      0.3785158     -54.664667      0.029520714    325.36952     -1152.4998      3375         
      5750  -54.939382      0.27645286    -54.662929      0.029520714    237.63694     -1479.371       3375         
      5760  -55.070603      0.36719099    -54.703412      0.029520714    315.63479      1349.0187      3375         
      5770  -54.951868      0.21629052    -54.735577      0.029520714    185.92181      1520.6384      3375         
      5780  -55.207824      0.43195675    -54.775867      0.029520714    371.30698     -522.3144       3375         
      5790  -55.001307      0.21998191    -54.781325      0.029520714    189.0949      -1263.8975      3375         
      5800  -55.215501      0.44949002    -54.766011      0.029520714    386.37846     -751.10056      3375         
      5810  -55.011251      0.21475983    -54.796491      0.029520714    184.60604      1524.2493      3375         
      5820  -55.120184      0.30015476    -54.820029      0.029520714    258.01092      1146.6802      3375         
      5830  -55.092583      0.25693727    -54.835645      0.029520714    220.86147     -1771.6907      3375         
      5840  -55.138761      0.33185845    -54.806902      0.029520714    285.26319     -1124.5613      3375         
      5850  -55.103953      0.29211663    -54.811836      0.029520714    251.1014       1299.5303      3375         
      5860  -55.058511      0.23105806    -54.827453      0.029520714    198.61588      1023.9215      3375         
      5870  -55.182076      0.34919039    -54.832886      0.029520714    300.1616      -502.42173      3375         
      5880  -55.065644      0.25064222    -54.815001      0.029520714    215.45028     -972.33533      3375         
      5890  -55.171769      0.3555492     -54.81622       0.029520714    305.62759      27.369127      3375         
      5900  -55.029861      0.20179674    -54.828064      0.029520714    173.46305      1084.9653      3375         
      5910  -55.206769      0.36797943    -54.83879       0.029520714    316.31253     -341.98456      3375         
      5920  -55.02737       0.22171142    -54.805659      0.029520714    190.58158     -954.62935      3375         
      5930  -55.118867      0.31496926    -54.803898      0.029520714    270.74536      616.04826      3375         
      5940  -55.022733      0.21558849    -54.807144      0.029520714    185.31835      1129.607       3375         
      5950  -55.078732      0.26660508    -54.812127      0.029520714    229.17185     -123.93336      3375         
      5960  -55.111758      0.30252498    -54.809233      0.029520714    260.04835     -1448.2959      3375         
      5970  -55.107546      0.35473663    -54.752809      0.029520714    304.92911     -678.49083      3375         
      5980  -55.074971      0.31711665    -54.757854      0.029520714    272.59124      1524.7644      3375         
      5990  -54.960919      0.20504087    -54.755878      0.029520714    176.25169      1070.9386      3375         
      6000  -55.070949      0.3087716     -54.762177      0.029520714    265.41789     -1384.1353      3375         
      6010  -55.093516      0.38351866    -54.709997      0.029520714    329.66994     -1330.4734      3375         
      6020  -54.998477      0.31164987    -54.686828      0.029520714    267.89203      964.43574      3375         
      6030  -55.035534      0.35126598    -54.684268      0.029520714    301.94577      1373.0081      3375         
      6040  -55.122192      0.45161215    -54.67058       0.029520714    388.20263     -618.42078      3375         
      6050  -54.998013      0.37226536    -54.625748      0.029520714    319.99669     -1540.6826      3375         
      6060  -55.079162      0.47260712    -54.606555      0.029520714    406.24976      468.11079      3375         
      6070  -54.921225      0.31761818    -54.603607      0.029520714    273.02235      1652.9578      3375         
      6080  -54.936723      0.32939715    -54.607325      0.029520714    283.14747      43.202082      3375         
      6090  -54.914235      0.33226693    -54.581968      0.029520714    285.61432     -1559.0698      3375         
      6100  -55.119806      0.57719068    -54.542616      0.029520714    496.14905     -734.15489      3375         
      6110  -54.768721      0.215716      -54.553005      0.029520714    185.42796      1046.4826      3375         
      6120  -54.962268      0.40860463    -54.553664      0.029520714    351.23367      1382.3822      3375         
      6130  -54.977792      0.41571672    -54.562075      0.029520714    357.34717     -262.11559      3375         
      6140  -55.013855      0.50532824    -54.508527      0.029520714    434.3766      -964.66788      3375         
      6150  -55.016711      0.51296519    -54.503746      0.029520714    440.94127      397.43571      3375         
      6160  -54.994183      0.47383967    -54.520344      0.029520714    407.30925      256.84241      3375         
      6170  -54.948094      0.41469982    -54.533395      0.029520714    356.47305     -949.56107      3375         
      6180  -54.918501      0.38264165    -54.535859      0.029520714    328.91607     -346.52711      3375         
      6190  -55.054441      0.53209264    -54.522348      0.029520714    457.38309      824.52689      3375         
      6200  -54.824726      0.27553017    -54.549196      0.029520714    236.8438       821.94932      3375         
      6210  -54.943282      0.38959472    -54.553687      0.029520714    334.89288     -675.58097      3375         
      6220  -55.003018      0.46650379    -54.536514      0.029520714    401.00338     -1592.0295      3375         
      6230  -55.185125      0.61976255    -54.565363      0.029520714    532.74353      57.390661      3375         
      6240  -54.955002      0.36133472    -54.593667      0.029520714    310.60079      2078.0018      3375         
      6250  -54.920413      0.29883732    -54.621575      0.029520714    256.87846      467.32082      3375         
      6260  -54.987664      0.35970741    -54.627956      0.029520714    309.20196     -1434.0458      3375         
      6270  -55.00392       0.3854869     -54.618433      0.029520714    331.36182     -470.18229      3375         
      6280  -55.056943      0.39423846    -54.662705      0.029520714    338.8846       295.59328      3375         
      6290  -55.072653      0.37859909    -54.694054      0.029520714    325.44112      810.33288      3375         
      6300  -54.994066      0.27560933    -54.718457      0.029520714    236.91184      158.5124       3375         
      6310  -54.957135      0.24416811    -54.712967      0.029520714    209.88519     -713.31599      3375         
      6320  -55.181743      0.45414546    -54.727597      0.029520714    390.38024      269.4453       3375         
      6330  -55.141757      0.38417581    -54.757581      0.029520714    330.23482      546.02424      3375         
      6340  -54.961101      0.17611763    -54.784984      0.029520714    151.38948     -800.67288      3375         
      6350  -55.108161      0.30427953    -54.803882      0.029520714    261.55655     -586.69911      3375         
      6360  -55.196953      0.38680144    -54.810151      0.029520714    332.49179      345.58577      3375         
[...]
     48420  -55.144373      0.39593075    -54.748442      0.029520714    340.33929      658.45431      3375         
     48430  -55.005343      0.2386673     -54.766676      0.029520714    205.15673     -284.55625      3375         
     48440  -55.074522      0.31645975    -54.758062      0.029520714    272.02658     -102.16018      3375         
     48450  -55.156623      0.37083603    -54.785787      0.029520714    318.76804      298.09684      3375         
     48460  -55.047818      0.24852275    -54.799295      0.029520714    213.62841      295.14148      3375         
     48470  -55.154687      0.34498169    -54.809705      0.029520714    296.54383     -366.95005      3375         
     48480  -55.144329      0.32130033    -54.823028      0.029520714    276.1875      -1011.2792      3375         
     48490  -54.997446      0.1920601     -54.805386      0.029520714    165.09351      122.67485      3375         
     48500  -55.021043      0.20449672    -54.816547      0.029520714    175.78394      1192.7895      3375         
     48510  -55.203966      0.36366794    -54.840298      0.029520714    312.6064       191.95733      3375         
     48520  -55.156581      0.31861394    -54.837967      0.029520714    273.8783      -610.66889      3375         
     48530  -55.079869      0.25990462    -54.819965      0.029520714    223.41218     -614.85312      3375         
     48540  -55.134561      0.30688758    -54.827673      0.029520714    263.79841     -223.98853      3375         
     48550  -55.120109      0.28890013    -54.831209      0.029520714    248.33652      786.49871      3375         
     48560  -55.077796      0.2422856     -54.835511      0.029520714    208.267        412.61226      3375         
     48570  -55.115999      0.27547464    -54.840524      0.029520714    236.79606     -359.40082      3375         
     48580  -55.138637      0.31429462    -54.824342      0.029520714    270.16545      217.61695      3375         
     48590  -55.060918      0.23793658    -54.822981      0.029520714    204.52861      165.72955      3375         
     48600  -55.163552      0.34012717    -54.823425      0.029520714    292.37093     -751.51349      3375         
     48610  -55.137663      0.33381563    -54.803848      0.029520714    286.94557     -309.2496       3375         
     48620  -55.063485      0.26995671    -54.793528      0.029520714    232.05289      443.46237      3375         
     48630  -55.088973      0.2947249     -54.794249      0.029520714    253.34345      706.19816      3375         
     48640  -55.208761      0.42247928    -54.786282      0.029520714    363.16021      275.59668      3375         
     48650  -55.09036       0.33869349    -54.751666      0.029520714    291.13854     -1073.5975      3375         
     48660  -54.994675      0.27825352    -54.716421      0.029520714    239.18477     -706.29632      3375         
     48670  -55.050926      0.34951361    -54.701412      0.029520714    300.43944      912.67264      3375         
     48680  -55.033738      0.34857484    -54.685163      0.029520714    299.63248      418.59544      3375         
     48690  -54.974053      0.31313683    -54.660917      0.029520714    269.17022     -482.61141      3375         
     48700  -55.006896      0.40502768    -54.601868      0.029520714    348.15894     -42.630091      3375         
     48710  -55.075073      0.53533981    -54.539733      0.029520714    460.17434      357.60847      3375         
     48720  -54.962978      0.44899208    -54.513986      0.029520714    385.95043      335.44368      3375         
     48730  -54.920196      0.43712621    -54.48307       0.029520714    375.75061     -158.04439      3375         
     48740  -54.951741      0.50500906    -54.446732      0.029520714    434.10223     -1136.8345      3375         
     48750  -54.879332      0.44749749    -54.431835      0.029520714    384.66569      153.67381      3375         
     48760  -54.818148      0.39438834    -54.42376       0.029520714    339.01344      1195.6598      3375         
     48770  -54.851552      0.43376614    -54.417786      0.029520714    372.86232     -260.7961       3375         
     48780  -54.886348      0.46701226    -54.419335      0.029520714    401.44045     -591.96705      3375         
     48790  -54.877702      0.47418844    -54.403514      0.029520714    407.60905     -54.061578      3375         
     48800  -54.980536      0.57999176    -54.400545      0.029520714    498.55683     -13.825345      3375         
     48810  -55.098827      0.66864937    -54.430177      0.029520714    574.7663       174.98124      3375         
     48820  -54.863161      0.40571271    -54.457448      0.029520714    348.74779      12.566269      3375         
     48830  -54.911229      0.46997303    -54.441256      0.029520714    403.98551      131.41842      3375         
     48840  -55.026412      0.55174511    -54.474667      0.029520714    474.27622      512.57788      3375         
     48850  -54.967996      0.47680394    -54.491192      0.029520714    409.85731     -49.713805      3375         
     48860  -54.904235      0.39408465    -54.51015       0.029520714    338.75239     -455.90102      3375         
     48870  -54.97731       0.43185346    -54.545457      0.029520714    371.21819     -558.39376      3375         
     48880  -54.932939      0.38221299    -54.550726      0.029520714    328.5476       26.172318      3375         
     48890  -54.79154       0.23176373    -54.559776      0.029520714    199.22247      876.90594      3375         
     48900  -55.086926      0.49566215    -54.591264      0.029520714    426.06769      258.97221      3375         
     48910  -55.111141      0.51352354    -54.597618      0.029520714    441.42122     -660.08983      3375         
     48920  -55.050895      0.43130026    -54.619595      0.029520714    370.74267     -400.88791      3375         
     48930  -55.042465      0.38051013    -54.661955      0.029520714    327.08383     -42.108491      3375         
     48940  -55.025865      0.3522463     -54.673619      0.029520714    302.78844      11.369804      3375         
     48950  -54.943804      0.27444492    -54.669359      0.029520714    235.91092      422.69707      3375         
     48960  -54.975001      0.28924845    -54.685753      0.029520714    248.63593      313.8112       3375         
     48970  -55.115008      0.42060907    -54.694399      0.029520714    361.5526       403.9376       3375         
     48980  -55.099173      0.38090304    -54.71827       0.029520714    327.42157      109.33976      3375         
     48990  -55.106478      0.36307732    -54.743401      0.029520714    312.09871     -962.97046      3375         
     49000  -55.05985       0.33437481    -54.725475      0.029520714    287.42624     -672.24371      3375         
     49010  -55.093516      0.35066924    -54.742846      0.029520714    301.43281      652.5812       3375         
     49020  -54.954654      0.19808554    -54.756569      0.029520714    170.27293      674.91179      3375         
     49030  -55.092211      0.32943987    -54.762771      0.029520714    283.18419      135.35989      3375         
     49040  -55.094364      0.32016905    -54.774195      0.029520714    275.21506     -529.77453      3375         
     49050  -54.970169      0.19856505    -54.771604      0.029520714    170.68512     -923.7981       3375         
     49060  -55.063557      0.29948453    -54.764073      0.029520714    257.43479      380.07959      3375         
     49070  -55.090946      0.31594542    -54.775001      0.029520714    271.58446      801.20748      3375         
     49080  -55.022699      0.245929      -54.77677       0.029520714    211.39884     -9.8689069      3375         
     49090  -54.972659      0.20307224    -54.769587      0.029520714    174.55946     -159.83275      3375         
     49100  -55.210829      0.43444581    -54.776383      0.029520714    373.44656     -524.36081      3375         
     49110  -55.14882       0.38574423    -54.763076      0.029520714    331.58302     -193.85888      3375         
     49120  -55.117664      0.35862526    -54.759039      0.029520714    308.27175      427.2231       3375         
     49130  -55.065886      0.29741637    -54.76847       0.029520714    255.65702     -195.67408      3375         
     49140  -54.969909      0.23213568    -54.737773      0.029520714    199.54219      140.86911      3375         
     49150  -55.027561      0.28209549    -54.745465      0.029520714    242.4873       1054.269       3375         
     49160  -55.160256      0.40228476    -54.757971      0.029520714    345.80115     -59.739607      3375         
     49170  -55.208485      0.4823562     -54.726129      0.029520714    414.63        -1038.6153      3375         
     49180  -55.009287      0.29950631    -54.709781      0.029520714    257.45352     -467.95207      3375         
     49190  -55.005279      0.29885434    -54.706425      0.029520714    256.89309     -146.16807      3375         
     49200  -55.068346      0.36923892    -54.699107      0.029520714    317.39518      984.55215      3375         
     49210  -55.084665      0.3926337     -54.692031      0.029520714    337.50517      659.45615      3375         
     49220  -54.863963      0.18614783    -54.677815      0.029520714    160.01137     -864.3113       3375         
     49230  -54.972036      0.32703464    -54.645001      0.029520714    281.11667     -395.87988      3375         
     49240  -55.124662      0.50265755    -54.622005      0.029520714    432.0809      -15.682845      3375         
     49250  -54.82362       0.23442559    -54.589194      0.029520714    201.51058      64.194711      3375         
     49260  -54.906575      0.35042663    -54.556149      0.029520714    301.22427      1023.6337      3375         
     49270  -55.114346      0.5784524     -54.535894      0.029520714    497.23361     -329.39735      3375         
     49280  -54.897319      0.42976887    -54.46755       0.029520714    369.4263      -1013.4145      3375         
     49290  -54.839356      0.41001189    -54.429344      0.029520714    352.44334      727.99846      3375         
     49300  -55.107421      0.68464632    -54.422775      0.029520714    588.51716      65.143416      3375         
     49310  -54.978783      0.58480635    -54.393977      0.029520714    502.69543     -583.88204      3375         
     49320  -54.893082      0.51843168    -54.37465       0.029520714    445.64022      660.97698      3375         
     49330  -54.956482      0.57361502    -54.382867      0.029520714    493.07543      91.131573      3375         
     49340  -54.741344      0.38366423    -54.35768       0.029520714    329.79507     -77.371884      3375         
     49350  -54.781618      0.40316638    -54.378452      0.029520714    346.55898     -0.007823922    3375         
     49360  -54.87187       0.48477925    -54.38709       0.029520714    416.71283     -1023.6403      3375         
     49370  -55.015568      0.63347029    -54.382098      0.029520714    544.5266       301.21722      3375         
     49380  -54.955367      0.53630535    -54.419062      0.029520714    461.0043       1113.7413      3375         
     49390  -54.965212      0.52347878    -54.441733      0.029520714    449.97867     -572.15441      3375         
     49400  -54.994424      0.53798556    -54.456438      0.029520714    462.4486      -234.28925      3375         
     49410  -54.85063       0.3556143     -54.495016      0.029520714    305.68355      279.99928      3375         
     49420  -54.831392      0.31051744    -54.520875      0.029520714    266.91861     -246.72674      3375         
     49430  -54.994574      0.45438718    -54.540187      0.029520714    390.58802      81.214272      3375         
     49440  -55.039085      0.46724998    -54.571835      0.029520714    401.64479     -325.99505      3375         
     49450  -54.881669      0.31886619    -54.562803      0.029520714    274.09514     -393.3543       3375         
     49460  -54.976282      0.38746876    -54.588813      0.029520714    333.06542      1112.9118      3375         
     49470  -55.136219      0.51487105    -54.621348      0.029520714    442.57953      739.22114      3375         
     49480  -55.010626      0.3724691     -54.638157      0.029520714    320.17182     -402.14565      3375         
     49490  -55.047513      0.39793396    -54.649579      0.029520714    342.06123     -524.6724       3375         
     49500  -55.072352      0.40918463    -54.663167      0.029520714    351.73223     -934.63806      3375         
     49510  -55.0392        0.38157965    -54.657621      0.029520714    328.00318     -104.2126       3375         
     49520  -55.010235      0.32406633    -54.686169      0.029520714    278.56514      921.95116      3375         
     49530  -55.065854      0.35389546    -54.711959      0.029520714    304.20604      323.06516      3375         
     49540  -55.005269      0.30350452    -54.701765      0.029520714    260.89035      124.4002       3375         
     49550  -55.026725      0.31912347    -54.707602      0.029520714    274.31629     -118.8073       3375         
     49560  -55.179578      0.47010899    -54.709469      0.029520714    404.10238     -856.24501      3375         
     49570  -55.053847      0.33656413    -54.717283      0.029520714    289.30816     -54.272307      3375         
     49580  -54.991462      0.25609083    -54.735371      0.029520714    220.13388      447.81399      3375         
     49590  -55.093087      0.3469357     -54.746151      0.029520714    298.22349      293.38442      3375         
     49600  -55.088121      0.3401288     -54.747992      0.029520714    292.37232      456.04093      3375         
     49610  -55.00899       0.25889471    -54.750095      0.029520714    222.54407     -426.5697       3375         
     49620  -55.015384      0.27731622    -54.738068      0.029520714    238.37907     -913.0484       3375         
     49630  -55.007285      0.2595168     -54.747769      0.029520714    223.07882      516.55066      3375         
     49640  -55.083475      0.32738301    -54.756092      0.029520714    281.41613      572.49523      3375         
     49650  -55.175763      0.41303386    -54.762729      0.029520714    355.041       -170.7006       3375         
     49660  -55.054606      0.29354867    -54.761057      0.029520714    252.33237     -10.596963      3375         
     49670  -55.04064       0.30170137    -54.738938      0.029520714    259.34038     -763.66167      3375         
     49680  -55.119241      0.38633881    -54.732903      0.029520714    332.09412      16.765027      3375         
     49690  -55.117502      0.36916517    -54.748337      0.029520714    317.33178      976.96249      3375         
     49700  -55.025405      0.26795325    -54.757452      0.029520714    230.33073     -304.25496      3375         
     49710  -55.066786      0.30850827    -54.758278      0.029520714    265.19154     -554.80187      3375         
     49720  -55.070201      0.32830308    -54.741898      0.029520714    282.20702      294.01912      3375         
     49730  -55.047395      0.33234851    -54.715047      0.029520714    285.68444      440.36125      3375         
     49740  -55.08219       0.35609237    -54.726098      0.029520714    306.0945       450.32397      3375         
     49750  -55.078608      0.34904909    -54.729559      0.029520714    300.04014     -348.18551      3375         
     49760  -55.061128      0.34532945    -54.715798      0.029520714    296.84277     -1006.2746      3375         
     49770  -55.01727       0.30538208    -54.711888      0.029520714    262.50428      245.88785      3375         
     49780  -55.124649      0.41579755    -54.708851      0.029520714    357.41665      367.58467      3375         
     49790  -55.013607      0.33262882    -54.680978      0.029520714    285.9254      -343.30425      3375         
     49800  -54.956739      0.28665423    -54.670084      0.029520714    246.40596      286.30351      3375         
     49810  -55.006173      0.35497501    -54.651198      0.029520714    305.13402      416.02294      3375         
     49820  -55.068042      0.44114867    -54.626893      0.029520714    379.20829     -205.9903       3375         
     49830  -54.985293      0.3724165     -54.612877      0.029520714    320.1266      -484.85516      3375         
     49840  -54.947878      0.38604027    -54.561838      0.029520714    331.8375      -270.51072      3375         
     49850  -55.047608      0.52229515    -54.525313      0.029520714    448.96124      805.33822      3375         
     49860  -55.094138      0.57431136    -54.519826      0.029520714    493.674        506.55119      3375         
     49870  -54.970104      0.49737636    -54.472728      0.029520714    427.54122     -887.33971      3375         
     49880  -54.974327      0.54462455    -54.429702      0.029520714    468.15543     -601.01282      3375         
     49890  -54.913267      0.48832414    -54.424943      0.029520714    419.75999      890.82871      3375         
     49900  -54.761196      0.3546721     -54.406524      0.029520714    304.87364      897.8          3375         
     49910  -54.837752      0.43899425    -54.398758      0.029520714    377.35637     -505.96644      3375         
     49920  -54.937961      0.54478613    -54.393175      0.029520714    468.29432     -1234.7766      3375         
     49930  -54.916691      0.54620664    -54.370484      0.029520714    469.51538     -226.06336      3375         
     49940  -54.876497      0.49861218    -54.377884      0.029520714    428.60352      850.69555      3375         
     49950  -55.091172      0.6743282     -54.416844      0.029520714    579.64778      351.24977      3375         
     49960  -54.930748      0.53495363    -54.395794      0.029520714    459.84237     -553.28955      3375         
     49970  -54.921038      0.51869555    -54.402343      0.029520714    445.86705     -264.12367      3375         
     49980  -54.86091       0.42281557    -54.438095      0.029520714    363.44929      599.10938      3375         
     49990  -54.866679      0.40502606    -54.461653      0.029520714    348.15755      350.85843      3375         
     50000  -54.800975      0.31005267    -54.490922      0.029520714    266.51909     -424.51566      3375         
Loop time of 82.5005 on 3 procs for 50000 steps with 10 atoms

Performance: 26.182 ns/day, 0.917 hours/ns, 606.057 timesteps/s, 6.061 katom-step/s
168.0% CPU use with 3 MPI tasks x no OpenMP threads

MPI task timing breakdown:
Section |  min time  |  avg time  |  max time  |%varavg| %total
---------------------------------------------------------------
Pair    | 27.037     | 44.443     | 78.844     | 364.9 | 53.87
Neigh   | 0.00082792 | 0.0010424  | 0.0014204  |   0.8 |  0.00
Comm    | 1.0152     | 35.333     | 52.732     | 408.3 | 42.83
Output  | 0.50977    | 0.51719    | 0.52748    |   1.0 |  0.63
Modify  | 1.8916     | 1.9838     | 2.0953     |   6.0 |  2.40
Other   |            | 0.2223     |            |       |  0.27

Nlocal:        3.33333 ave          10 max           0 min
Histogram: 2 0 0 0 0 0 0 0 0 1
Nghost:             84 ave         101 max          51 min
Histogram: 1 0 0 0 0 0 0 0 0 2
Neighs:              0 ave           0 max           0 min
Histogram: 3 0 0 0 0 0 0 0 0 0
FullNghs:           30 ave          90 max           0 min
Histogram: 2 0 0 0 0 0 0 0 0 1

Total # of neighbors = 90
Ave neighs/atom = 9
Neighbor list builds = 154
Dangerous builds = 0

write_data	restart.data
System init for write_data ...
Generated 0 of 1 mixed pair_coeff terms from geometric mixing rule
#
Total wall time: 0:01:24
