LAMMPS data file via write_data, version 2 Aug 2023, timestep = 50000, units = metal

10 atoms
2 atom types

0 15 xlo xhi
0 15 ylo yhi
0 15 zlo zhi

Masses

1 12
2 2

Atoms # atomic

10 2 5.216673010295162 7.438537000944165 7.610811631821582 0 0 0
4 1 6.235859289663475 7.621124756381953 7.768663362306125 0 0 0
7 2 9.004344700745383 8.166828769344786 6.401076160164043 0 0 0
8 2 6.675658106888789 7.248574791548513 5.6314542715822125 0 0 0
9 2 6.469956953296105 8.122638311822918 8.707478135111465 0 0 0
1 1 8.521482668580068 7.421100284705345 8.330560262694519 0 0 0
3 1 6.9785878861681665 7.3521117776507605 6.6881579234904045 0 0 0
2 1 8.342156999599968 7.5776161532940725 7.023391741664965 0 0 0
6 2 7.87554535462373 6.672721404027904 8.766018802800168 0 0 0
5 2 9.41330081075737 7.738981891555726 8.907521256086774 0 0 0

Velocities

10 -12.374996779687228 8.918208485971933 -2.4785657535337213
4 2.344559677799328 4.722240453704222 -1.145156849671818
7 -5.305548608186476 11.897407349310063 3.2958869846283516
8 4.253265556321991 -14.69126246655693 9.403187885629134
9 -5.764598107993742 -13.95343088951352 -6.452710586594434
1 -3.3776295192018346 -4.024122912588217 4.1179074458360745
3 -7.822639226169248 -0.992882314161576 -7.572556693998858
2 11.962548296340769 -0.3119767375142613 6.920777950715232
6 10.260642697930535 -2.7584558255133906 -17.4825671065134
5 -9.709800130997506 14.227982409660834 -0.21106254089945078
