LAMMPS data file via write_data, version 2 Aug 2023, timestep = 50000, units = metal

10 atoms
2 atom types

0 15 xlo xhi
0 15 ylo yhi
0 15 zlo zhi

Masses

1 12
2 2

Atoms # atomic

10 2 9.85943240312908 7.701724217640966 7.383779689862086 0 0 0
4 1 8.715557649097956 7.70237312580152 7.263596042054635 0 0 0
7 2 5.7356102465265195 7.695537992387903 8.651598411789891 0 0 0
8 2 8.43589699204851 7.051914269014268 9.246948399777304 0 0 0
9 2 8.467970340660125 8.290943160883689 6.352241039657112 0 0 0
1 1 6.604199157855856 7.298214249154569 6.592438930995068 0 0 0
3 1 7.9519295244953945 7.497335416591488 8.350431713149696 0 0 0
2 1 6.605402381631477 7.5122219671402695 8.00439205966893 0 0 0
6 2 7.25465977622495 6.560931263839946 6.255831253591855 0 0 0
5 2 6.107897963615874 7.858080545555074 5.733448728626194 0 0 0

Velocities

10 6.693917797772583 -6.236752942089729 -7.375213661767233
4 2.545264879914477 0.8452592002555304 4.940699817294311
7 -13.175509577929718 -2.7643384725259317 -31.901649502264064
8 -2.461563458467081 5.268798956902842 10.592759700225882
9 14.404288884599561 6.110830171479655 9.248423967037581
1 -1.0444600766482846 -1.0470592875893678 -2.7229343902088696
3 -3.678638152219684 -0.701081495235422 -4.991524797292862
2 -2.6620827159387037 2.6785341516831185 6.153607344776435
6 13.625554177553981 -6.266742150579987 -3.101983279539719
5 9.95280856582426 -6.765710977867565 2.258574928894078
