ITEM: TIMESTEP
0
ITEM: NUMBER OF ATOMS
10
ITEM: BOX BOUNDS pp pp pp
0.0000000000000000e+00 1.5000000000000000e+01
0.0000000000000000e+00 1.5000000000000000e+01
0.0000000000000000e+00 1.5000000000000000e+01
ITEM: ATOMS id type x y z
6 2 9.11721 6.67433 5.81748
10 2 6.12443 6.58339 9.77139
4 1 6.31897 7.35663 9.07713
3 1 7.28368 7.08234 8.10814
8 2 7.75413 6.12269 8.13785
1 1 8.65436 7.65828 5.89793
2 1 7.76167 7.90963 6.93869
5 2 8.82982 8.50459 5.1255
7 2 7.35747 8.9574 7.01817
9 2 5.82886 8.33629 8.88725
ITEM: TIMESTEP
100
ITEM: NUMBER OF ATOMS
10
ITEM: BOX BOUNDS pp pp pp
0.0000000000000000e+00 1.5000000000000000e+01
0.0000000000000000e+00 1.5000000000000000e+01
0.0000000000000000e+00 1.5000000000000000e+01
ITEM: ATOMS id type x y z
6 2 9.03162 6.46049 5.75152
10 2 6.10922 6.58764 9.83526
4 1 6.28339 7.42851 9.16568
3 1 7.18747 7.1928 8.02553
8 2 7.60211 6.14075 8.1376
1 1 8.71104 7.5464 5.83405
2 1 7.82998 7.89928 6.93389
5 2 8.98123 8.33707 5.21065
7 2 7.63425 8.95583 6.89848
9 2 5.69428 8.33623 9.30061
ITEM: TIMESTEP
200
ITEM: NUMBER OF ATOMS
10
ITEM: BOX BOUNDS pp pp pp
0.0000000000000000e+00 1.5000000000000000e+01
0.0000000000000000e+00 1.5000000000000000e+01
0.0000000000000000e+00 1.5000000000000000e+01
ITEM: ATOMS id type x y z
6 2 9.34909 6.69181 5.53337
10 2 5.92965 6.69527 9.71466
4 1 6.31726 7.57898 9.18694
3 1 7.07684 7.1427 8.07632
8 2 7.27221 6.07817 8.02264
1 1 8.75475 7.47995 5.84932
2 1 7.87759 7.78605 6.90931
5 2 8.84319 8.39264 5.18547
7 2 7.54706 8.83463 6.87022
9 2 6.02411 8.60138 9.43132
ITEM: TIMESTEP
300
ITEM: NUMBER OF ATOMS
10
ITEM: BOX BOUNDS pp pp pp
0.0000000000000000e+00 1.5000000000000000e+01
0.0000000000000000e+00 1.5000000000000000e+01
0.0000000000000000e+00 1.5000000000000000e+01
ITEM: ATOMS id type x y z
6 2 8.88235 6.28366 5.76741
10 2 5.96277 6.79238 9.85695
4 1 6.29991 7.54309 9.16721
3 1 7.10431 7.20749 8.06205
8 2 7.35992 6.15593 8.07552
1 1 8.69576 7.42343 5.86108
2 1 7.89372 7.88446 6.85531
5 2 9.21859 8.09498 5.24087
7 2 7.82547 8.98834 6.90189
9 2 5.91267 8.55386 9.37245
ITEM: TIMESTEP
400
ITEM: NUMBER OF ATOMS
10
ITEM: BOX BOUNDS pp pp pp
0.0000000000000000e+00 1.5000000000000000e+01
0.0000000000000000e+00 1.5000000000000000e+01
0.0000000000000000e+00 1.5000000000000000e+01
ITEM: ATOMS id type x y z
6 2 8.88259 6.39985 5.6536
10 2 5.68784 7.01295 9.80619
4 1 6.26958 7.66631 9.13798
3 1 7.15399 7.09965 8.14885
8 2 7.22823 5.96968 8.1335
1 1 8.70807 7.39704 5.80823
2 1 7.90385 7.84639 6.92116
5 2 9.1572 8.14716 5.092
7 2 7.79989 8.9179 7.02602
9 2 6.15526 8.71615 9.08038
ITEM: TIMESTEP
500
ITEM: NUMBER OF ATOMS
10
ITEM: BOX BOUNDS pp pp pp
0.0000000000000000e+00 1.5000000000000000e+01
0.0000000000000000e+00 1.5000000000000000e+01
0.0000000000000000e+00 1.5000000000000000e+01
ITEM: ATOMS id type x y z
6 2 9.00753 6.21122 5.74146
10 2 5.83319 6.96941 9.84401
4 1 6.31623 7.67929 9.16858
3 1 7.04991 7.22606 8.10856
8 2 7.09149 6.1487 8.01934
1 1 8.74087 7.33985 5.85733
2 1 7.90591 7.8029 6.82435
5 2 9.28267 7.9359 5.17307
7 2 7.75787 8.91223 6.85773
9 2 6.07374 8.7539 9.50047
ITEM: TIMESTEP
600
ITEM: NUMBER OF ATOMS
10
ITEM: BOX BOUNDS pp pp pp
0.0000000000000000e+00 1.5000000000000000e+01
0.0000000000000000e+00 1.5000000000000000e+01
0.0000000000000000e+00 1.5000000000000000e+01
ITEM: ATOMS id type x y z
6 2 8.8688 6.21033 5.64279
10 2 5.90461 6.99245 9.82764
4 1 6.2633 7.78215 9.16631
3 1 7.02403 7.22435 8.12516
8 2 6.9953 6.1615 8.26608
1 1 8.7197 7.22743 5.80784
2 1 8.00882 7.80358 6.86976
5 2 9.23689 7.97964 5.12664
7 2 8.03624 8.88728 6.83911
9 2 5.98709 8.76374 9.37233
ITEM: TIMESTEP
700
ITEM: NUMBER OF ATOMS
10
ITEM: BOX BOUNDS pp pp pp
0.0000000000000000e+00 1.5000000000000000e+01
0.0000000000000000e+00 1.5000000000000000e+01
0.0000000000000000e+00 1.5000000000000000e+01
ITEM: ATOMS id type x y z
6 2 8.81536 6.12001 5.52595
10 2 5.68884 7.37532 9.87878
4 1 6.28305 7.8621 9.09905
3 1 7.01081 7.19981 8.15834
8 2 6.95569 6.04623 8.18988
1 1 8.69467 7.24911 5.78904
2 1 8.05317 7.69623 6.96221
5 2 9.19992 7.82298 5.03826
7 2 8.04389 8.78805 7.04432
9 2 6.1701 9.02392 9.15994
ITEM: TIMESTEP
800
ITEM: NUMBER OF ATOMS
10
ITEM: BOX BOUNDS pp pp pp
0.0000000000000000e+00 1.5000000000000000e+01
0.0000000000000000e+00 1.5000000000000000e+01
0.0000000000000000e+00 1.5000000000000000e+01
ITEM: ATOMS id type x y z
6 2 8.56665 6.01539 6.02706
1 1 8.72178 7.05758 5.90628
10 2 5.76361 7.22878 9.80149
8 2 6.79465 6.25793 7.89428
3 1 6.96713 7.29609 8.04851
7 2 8.06582 8.94546 6.89558
2 1 7.99239 7.83561 6.81644
5 2 9.46382 7.48264 5.23385
9 2 6.35534 8.89984 9.46527
4 1 6.33772 7.87572 9.15734
ITEM: TIMESTEP
900
ITEM: NUMBER OF ATOMS
10
ITEM: BOX BOUNDS pp pp pp
0.0000000000000000e+00 1.5000000000000000e+01
0.0000000000000000e+00 1.5000000000000000e+01
0.0000000000000000e+00 1.5000000000000000e+01
ITEM: ATOMS id type x y z
6 2 8.6935 6.00272 5.53961
1 1 8.71099 7.07641 5.83763
10 2 5.50173 7.50841 9.65326
8 2 6.67659 6.21795 8.11434
3 1 7.02287 7.26642 8.14363
7 2 8.25323 8.69899 6.99075
2 1 7.98968 7.64847 6.95941
5 2 9.34225 7.715 5.21182
9 2 6.43824 9.11191 9.22497
4 1 6.31288 8.00287 9.08505
ITEM: TIMESTEP
1000
ITEM: NUMBER OF ATOMS
10
ITEM: BOX BOUNDS pp pp pp
0.0000000000000000e+00 1.5000000000000000e+01
0.0000000000000000e+00 1.5000000000000000e+01
0.0000000000000000e+00 1.5000000000000000e+01
ITEM: ATOMS id type x y z
6 2 8.4893 5.93227 5.60829
1 1 8.65585 6.9605 5.88564
10 2 5.68624 7.36559 9.64064
8 2 6.79016 6.27302 8.04739
3 1 6.9993 7.3896 8.07466
7 2 8.40583 8.69664 7.03959
2 1 8.0465 7.66979 6.92485
5 2 9.42933 7.55142 5.43042
9 2 6.23148 9.08251 9.35648
4 1 6.31363 8.0332 9.07588
ITEM: TIMESTEP
1100
ITEM: NUMBER OF ATOMS
10
ITEM: BOX BOUNDS pp pp pp
0.0000000000000000e+00 1.5000000000000000e+01
0.0000000000000000e+00 1.5000000000000000e+01
0.0000000000000000e+00 1.5000000000000000e+01
ITEM: ATOMS id type x y z
6 2 8.60926 5.82027 5.90217
1 1 8.7105 6.90393 5.93128
10 2 5.56384 7.51751 9.64512
8 2 6.5794 6.4197 7.84623
3 1 6.93127 7.40182 7.97069
7 2 8.26999 8.75493 6.96503
2 1 8.00166 7.65765 6.97203
5 2 9.41222 7.43519 5.27856
9 2 6.72034 9.07581 9.31542
4 1 6.35139 8.06937 9.11541
ITEM: TIMESTEP
1200
ITEM: NUMBER OF ATOMS
10
ITEM: BOX BOUNDS pp pp pp
0.0000000000000000e+00 1.5000000000000000e+01
0.0000000000000000e+00 1.5000000000000000e+01
0.0000000000000000e+00 1.5000000000000000e+01
ITEM: ATOMS id type x y z
6 2 8.29575 5.86241 5.71891
1 1 8.61624 6.89743 5.95371
10 2 5.55398 7.82646 9.63017
8 2 6.54214 6.31201 7.96118
3 1 6.94384 7.34235 7.99241
7 2 8.56594 8.58011 7.1682
2 1 8.09639 7.62115 7.05396
5 2 9.3915 7.40788 5.42919
9 2 6.70364 9.21844 9.06609
4 1 6.35537 8.14119 8.9858
ITEM: TIMESTEP
1300
ITEM: NUMBER OF ATOMS
10
ITEM: BOX BOUNDS pp pp pp
0.0000000000000000e+00 1.5000000000000000e+01
0.0000000000000000e+00 1.5000000000000000e+01
0.0000000000000000e+00 1.5000000000000000e+01
ITEM: ATOMS id type x y z
6 2 8.14356 5.8242 5.69867
1 1 8.63217 6.76085 5.94103
10 2 5.54166 7.71748 9.59512
8 2 6.5613 6.47153 7.7348
3 1 6.97675 7.4787 7.96763
7 2 8.71618 8.43835 7.25113
2 1 8.08566 7.59812 7.02015
5 2 9.57805 7.07209 5.50048
9 2 6.62617 9.22614 9.22646
4 1 6.29826 8.2407 9.05158
ITEM: TIMESTEP
1400
ITEM: NUMBER OF ATOMS
10
ITEM: BOX BOUNDS pp pp pp
0.0000000000000000e+00 1.5000000000000000e+01
0.0000000000000000e+00 1.5000000000000000e+01
0.0000000000000000e+00 1.5000000000000000e+01
ITEM: ATOMS id type x y z
6 2 8.5333 5.63918 5.67182
1 1 8.65605 6.69731 6.01054
2 1 8.04954 7.47502 6.96596
5 2 9.48357 7.29965 5.6269
3 1 6.8708 7.4845 7.99878
8 2 6.14991 6.74392 7.69436
7 2 8.64577 8.45597 7.05754
9 2 6.99437 9.16397 9.47096
4 1 6.41164 8.31801 9.02444
10 2 5.38889 8.06827 9.3691
ITEM: TIMESTEP
1500
ITEM: NUMBER OF ATOMS
10
ITEM: BOX BOUNDS pp pp pp
0.0000000000000000e+00 1.5000000000000000e+01
0.0000000000000000e+00 1.5000000000000000e+01
0.0000000000000000e+00 1.5000000000000000e+01
ITEM: ATOMS id type x y z
6 2 8.06508 5.75699 5.69068
1 1 8.58102 6.64698 5.99949
2 1 8.17484 7.52222 7.00719
5 2 9.54485 6.74964 5.59037
3 1 6.93547 7.55897 7.95376
8 2 6.33453 6.64631 7.81692
7 2 8.89373 8.28698 7.19072
9 2 6.69075 9.29969 9.36367
4 1 6.33197 8.35386 8.99705
10 2 5.45527 7.98823 9.49171
ITEM: TIMESTEP
1600
ITEM: NUMBER OF ATOMS
10
ITEM: BOX BOUNDS pp pp pp
0.0000000000000000e+00 1.5000000000000000e+01
0.0000000000000000e+00 1.5000000000000000e+01
0.0000000000000000e+00 1.5000000000000000e+01
ITEM: ATOMS id type x y z
6 2 8.13008 5.71616 5.65193
1 1 8.62542 6.63845 5.9962
2 1 8.16296 7.43561 7.04421
5 2 9.63167 6.89053 5.51723
3 1 6.80309 7.49416 7.9879
8 2 6.20465 6.56915 7.8023
7 2 8.74885 8.30514 7.34755
9 2 7.07704 9.2967 9.0723
4 1 6.39547 8.451 8.9727
10 2 5.4101 8.32706 9.49168
ITEM: TIMESTEP
1700
ITEM: NUMBER OF ATOMS
10
ITEM: BOX BOUNDS pp pp pp
0.0000000000000000e+00 1.5000000000000000e+01
0.0000000000000000e+00 1.5000000000000000e+01
0.0000000000000000e+00 1.5000000000000000e+01
ITEM: ATOMS id type x y z
6 2 8.08015 5.60319 5.931
1 1 8.61332 6.55428 6.07324
2 1 8.17969 7.4596 6.98518
5 2 9.50128 6.66775 5.52388
3 1 6.84315 7.60661 7.91735
8 2 6.12422 6.84007 7.71382
7 2 8.86365 8.31934 7.10984
9 2 6.94468 9.27609 9.43714
4 1 6.39204 8.41545 8.97964
10 2 5.44086 8.29795 9.44088
ITEM: TIMESTEP
1800
ITEM: NUMBER OF ATOMS
10
ITEM: BOX BOUNDS pp pp pp
0.0000000000000000e+00 1.5000000000000000e+01
0.0000000000000000e+00 1.5000000000000000e+01
0.0000000000000000e+00 1.5000000000000000e+01
ITEM: ATOMS id type x y z
6 2 8.10616 5.63702 5.57437
1 1 8.57614 6.47858 6.02084
2 1 8.18415 7.40006 7.02881
5 2 9.62008 6.55108 5.58584
3 1 6.84283 7.62622 7.9903
8 2 6.0806 6.82687 7.86615
7 2 9.00097 8.08179 7.31523
9 2 6.86992 9.4896 9.26198
4 1 6.39962 8.56186 8.93667
10 2 5.42982 8.23327 9.42568
ITEM: TIMESTEP
1900
ITEM: NUMBER OF ATOMS
10
ITEM: BOX BOUNDS pp pp pp
0.0000000000000000e+00 1.5000000000000000e+01
0.0000000000000000e+00 1.5000000000000000e+01
0.0000000000000000e+00 1.5000000000000000e+01
ITEM: ATOMS id type x y z
6 2 7.95088 5.60385 5.6191
1 1 8.60077 6.47694 6.04352
2 1 8.15083 7.28057 7.05443
5 2 9.6165 6.60367 5.61002
3 1 6.81173 7.61377 8.03376
8 2 6.0554 6.88 7.70896
7 2 8.89801 7.98019 7.41268
9 2 7.1009 9.48346 9.25737
4 1 6.44123 8.62075 8.86927
10 2 5.47496 8.7167 9.27498
ITEM: TIMESTEP
2000
ITEM: NUMBER OF ATOMS
10
ITEM: BOX BOUNDS pp pp pp
0.0000000000000000e+00 1.5000000000000000e+01
0.0000000000000000e+00 1.5000000000000000e+01
0.0000000000000000e+00 1.5000000000000000e+01
ITEM: ATOMS id type x y z
6 2 7.7763 5.64371 5.99448
1 1 8.52195 6.3283 6.15084
2 1 8.23442 7.41878 7.04418
5 2 9.5079 6.08999 5.79547
8 2 5.96394 7.17368 7.53348
7 2 9.05839 8.11085 7.26567
9 2 7.14272 9.22587 9.37113
4 1 6.47543 8.58306 8.89666
10 2 5.41201 8.51668 9.26273
3 1 6.81199 7.7464 7.85266
ITEM: TIMESTEP
2100
ITEM: NUMBER OF ATOMS
10
ITEM: BOX BOUNDS pp pp pp
0.0000000000000000e+00 1.5000000000000000e+01
0.0000000000000000e+00 1.5000000000000000e+01
0.0000000000000000e+00 1.5000000000000000e+01
ITEM: ATOMS id type x y z
6 2 7.80302 5.5871 5.6638
1 1 8.55136 6.35273 6.09598
2 1 8.13152 7.21054 7.17738
5 2 9.59462 6.30528 5.7759
8 2 5.94949 7.04958 7.56869
7 2 8.95286 7.90911 7.52868
9 2 7.30432 9.4834 9.25153
4 1 6.5169 8.72098 8.81283
10 2 5.51234 8.92171 9.14924
3 1 6.80145 7.70973 7.90567
ITEM: TIMESTEP
2200
ITEM: NUMBER OF ATOMS
10
ITEM: BOX BOUNDS pp pp pp
0.0000000000000000e+00 1.5000000000000000e+01
0.0000000000000000e+00 1.5000000000000000e+01
0.0000000000000000e+00 1.5000000000000000e+01
ITEM: ATOMS id type x y z
6 2 7.72713 5.67127 5.67763
1 1 8.45473 6.27446 6.13398
2 1 8.16002 7.20829 7.16826
5 2 9.53609 6.15442 5.99519
8 2 6.03862 7.2205 7.60354
7 2 9.01758 7.69697 7.5648
9 2 7.0804 9.48838 9.22461
4 1 6.53761 8.76676 8.78495
10 2 5.47342 8.67917 8.99997
3 1 6.88944 7.80204 7.88335
ITEM: TIMESTEP
2300
ITEM: NUMBER OF ATOMS
10
ITEM: BOX BOUNDS pp pp pp
0.0000000000000000e+00 1.5000000000000000e+01
0.0000000000000000e+00 1.5000000000000000e+01
0.0000000000000000e+00 1.5000000000000000e+01
ITEM: ATOMS id type x y z
6 2 7.72513 5.43402 5.84168
1 1 8.46784 6.19055 6.23557
2 1 8.09455 7.27722 7.15043
5 2 9.52472 6.0526 6.03872
8 2 5.92197 7.43026 7.33614
7 2 9.03481 7.77768 7.48278
9 2 7.35933 9.31494 9.45968
4 1 6.57099 8.77083 8.78952
10 2 5.49722 8.89208 9.00909
3 1 6.87676 7.81447 7.77797
ITEM: TIMESTEP
2400
ITEM: NUMBER OF ATOMS
10
ITEM: BOX BOUNDS pp pp pp
0.0000000000000000e+00 1.5000000000000000e+01
0.0000000000000000e+00 1.5000000000000000e+01
0.0000000000000000e+00 1.5000000000000000e+01
ITEM: ATOMS id type x y z
6 2 7.6044 5.71979 5.79227
1 1 8.42117 6.20905 6.2365
2 1 8.12859 7.19298 7.22831
5 2 9.44971 5.99909 6.03592
8 2 6.0242 7.28621 7.32385
7 2 8.97119 7.63758 7.77168
9 2 7.41445 9.31586 9.19521
4 1 6.60122 8.84255 8.70064
10 2 5.58597 9.14699 8.90152
3 1 6.86135 7.7745 7.81264
ITEM: TIMESTEP
2500
ITEM: NUMBER OF ATOMS
10
ITEM: BOX BOUNDS pp pp pp
0.0000000000000000e+00 1.5000000000000000e+01
0.0000000000000000e+00 1.5000000000000000e+01
0.0000000000000000e+00 1.5000000000000000e+01
ITEM: ATOMS id type x y z
6 2 7.55755 5.67764 5.64452
1 1 8.39908 6.14307 6.25582
2 1 8.14537 7.16959 7.22697
5 2 9.42814 5.74376 6.20066
8 2 6.00173 7.3632 7.41586
7 2 9.03916 7.45245 7.79443
9 2 7.40889 9.44922 9.21707
4 1 6.57217 8.90885 8.71676
10 2 5.4986 9.04394 8.85248
3 1 6.91504 7.86012 7.76112
ITEM: TIMESTEP
2600
ITEM: NUMBER OF ATOMS
10
ITEM: BOX BOUNDS pp pp pp
0.0000000000000000e+00 1.5000000000000000e+01
0.0000000000000000e+00 1.5000000000000000e+01
0.0000000000000000e+00 1.5000000000000000e+01
ITEM: ATOMS id type x y z
6 2 7.77394 5.35066 5.82783
1 1 8.38842 6.06335 6.33852
2 1 8.08651 7.0848 7.20026
5 2 9.46188 5.96432 6.20971
7 2 9.0364 7.47573 7.55975
8 2 5.91405 7.66607 7.2025
9 2 7.35583 9.30134 9.49847
4 1 6.65376 8.92533 8.71737
10 2 5.63187 9.35588 8.76448
3 1 6.86298 7.94419 7.71489
ITEM: TIMESTEP
2700
ITEM: NUMBER OF ATOMS
10
ITEM: BOX BOUNDS pp pp pp
0.0000000000000000e+00 1.5000000000000000e+01
0.0000000000000000e+00 1.5000000000000000e+01
0.0000000000000000e+00 1.5000000000000000e+01
ITEM: ATOMS id type x y z
6 2 7.54056 5.58246 5.76833
1 1 8.31134 6.04203 6.34021
2 1 8.21313 7.02421 7.2569
5 2 9.21312 5.50527 6.17954
7 2 9.03584 7.37879 7.90145
8 2 6.09778 7.51264 7.23151
9 2 7.3642 9.48476 9.23284
4 1 6.60478 9.02763 8.6342
10 2 5.57045 9.28833 8.78897
3 1 6.9211 7.98408 7.73308
ITEM: TIMESTEP
2800
ITEM: NUMBER OF ATOMS
10
ITEM: BOX BOUNDS pp pp pp
0.0000000000000000e+00 1.5000000000000000e+01
0.0000000000000000e+00 1.5000000000000000e+01
0.0000000000000000e+00 1.5000000000000000e+01
ITEM: ATOMS id type x y z
6 2 7.52602 5.59969 5.74069
1 1 8.3741 5.98466 6.38782
2 1 8.12303 7.01995 7.29887
5 2 9.40169 5.49937 6.33696
7 2 9.00602 7.18947 7.89039
8 2 5.83177 7.64094 7.19893
9 2 7.64872 9.38959 9.08005
4 1 6.69853 9.0956 8.57495
10 2 5.75126 9.68591 8.80654
3 1 6.79743 7.93563 7.71093
ITEM: TIMESTEP
2900
ITEM: NUMBER OF ATOMS
10
ITEM: BOX BOUNDS pp pp pp
0.0000000000000000e+00 1.5000000000000000e+01
0.0000000000000000e+00 1.5000000000000000e+01
0.0000000000000000e+00 1.5000000000000000e+01
ITEM: ATOMS id type x y z
6 2 7.52434 5.39794 5.90327
1 1 8.27344 5.92695 6.44938
2 1 8.16135 7.00998 7.25358
5 2 9.1668 5.39432 6.33483
7 2 9.05424 7.35291 7.8191
8 2 6.04382 7.78378 7.07454
9 2 7.38628 9.45355 9.30068
4 1 6.69526 9.082 8.56003
10 2 5.78548 9.60803 8.57544
3 1 6.89712 8.01931 7.71719
ITEM: TIMESTEP
3000
ITEM: NUMBER OF ATOMS
10
ITEM: BOX BOUNDS pp pp pp
0.0000000000000000e+00 1.5000000000000000e+01
0.0000000000000000e+00 1.5000000000000000e+01
0.0000000000000000e+00 1.5000000000000000e+01
ITEM: ATOMS id type x y z
6 2 7.50084 5.45301 5.76398
1 1 8.28028 5.88389 6.42498
2 1 8.10881 6.9707 7.28295
5 2 9.23657 5.27575 6.57576
7 2 9.0095 7.15211 7.89346
8 2 5.9884 7.78632 7.17608
9 2 7.48366 9.62797 9.21691
4 1 6.73437 9.15293 8.54333
10 2 5.68013 9.59148 8.59938
3 1 6.91401 8.04804 7.69265
ITEM: TIMESTEP
3100
ITEM: NUMBER OF ATOMS
10
ITEM: BOX BOUNDS pp pp pp
0.0000000000000000e+00 1.5000000000000000e+01
0.0000000000000000e+00 1.5000000000000000e+01
0.0000000000000000e+00 1.5000000000000000e+01
ITEM: ATOMS id type x y z
6 2 7.51317 5.49654 5.77871
1 1 8.28997 5.89514 6.46443
2 1 8.05043 6.92077 7.40033
5 2 9.23619 5.38994 6.44127
7 2 8.90447 7.10799 7.98997
8 2 5.93576 7.8497 7.11171
9 2 7.6423 9.49094 9.11987
4 1 6.79503 9.17295 8.45982
10 2 5.94533 9.79776 8.49061
3 1 6.85569 8.02566 7.66823
ITEM: TIMESTEP
3200
ITEM: NUMBER OF ATOMS
10
ITEM: BOX BOUNDS pp pp pp
0.0000000000000000e+00 1.5000000000000000e+01
0.0000000000000000e+00 1.5000000000000000e+01
0.0000000000000000e+00 1.5000000000000000e+01
ITEM: ATOMS id type x y z
6 2 7.24413 5.5855 6.05033
1 1 8.15718 5.81037 6.55563
2 1 8.14269 6.96427 7.35756
5 2 8.97161 5.05883 6.52244
7 2 8.98911 7.25068 8.06603
8 2 6.22442 7.87938 6.83803
9 2 7.4628 9.40772 9.25013
4 1 6.77422 9.15827 8.47256
10 2 5.77235 9.67191 8.41633
3 1 7.0025 8.12809 7.57187
ITEM: TIMESTEP
3300
ITEM: NUMBER OF ATOMS
10
ITEM: BOX BOUNDS pp pp pp
0.0000000000000000e+00 1.5000000000000000e+01
0.0000000000000000e+00 1.5000000000000000e+01
0.0000000000000000e+00 1.5000000000000000e+01
ITEM: ATOMS id type x y z
6 2 7.43248 5.40792 5.79982
1 1 8.20772 5.77131 6.56742
2 1 7.95469 6.93157 7.39436
5 2 9.1443 5.2764 6.77041
7 2 8.75808 7.02426 8.13027
8 2 6.06982 8.02611 6.92677
9 2 7.64271 9.5646 9.2347
4 1 6.90589 9.23182 8.41071
10 2 6.07442 9.88788 8.24759
3 1 6.93206 8.07076 7.59075
ITEM: TIMESTEP
3400
ITEM: NUMBER OF ATOMS
10
ITEM: BOX BOUNDS pp pp pp
0.0000000000000000e+00 1.5000000000000000e+01
0.0000000000000000e+00 1.5000000000000000e+01
0.0000000000000000e+00 1.5000000000000000e+01
ITEM: ATOMS id type x y z
6 2 7.48721 5.49853 5.80519
1 1 8.09888 5.77864 6.58897
2 1 7.98513 6.90761 7.43931
5 2 8.89504 5.05885 6.83696
7 2 8.71198 6.88496 8.23463
8 2 6.16259 8.02362 6.976
9 2 7.49832 9.66211 9.07987
4 1 6.92381 9.27359 8.34077
10 2 5.98629 9.76676 8.00167
3 1 7.05595 8.09436 7.62341
ITEM: TIMESTEP
3500
ITEM: NUMBER OF ATOMS
10
ITEM: BOX BOUNDS pp pp pp
0.0000000000000000e+00 1.5000000000000000e+01
0.0000000000000000e+00 1.5000000000000000e+01
0.0000000000000000e+00 1.5000000000000000e+01
ITEM: ATOMS id type x y z
6 2 7.20425 5.46063 5.96306
1 1 8.07365 5.68733 6.69336
2 1 7.96041 6.93548 7.40642
5 2 8.86891 5.04606 7.03413
7 2 8.73056 7.12287 8.22833
8 2 6.33972 8.03919 6.66092
9 2 7.57402 9.36857 9.33888
4 1 6.93403 9.27273 8.34867
10 2 6.1774 9.9925 8.12163
3 1 7.0701 8.13615 7.47522
ITEM: TIMESTEP
3600
ITEM: NUMBER OF ATOMS
10
ITEM: BOX BOUNDS pp pp pp
0.0000000000000000e+00 1.5000000000000000e+01
0.0000000000000000e+00 1.5000000000000000e+01
0.0000000000000000e+00 1.5000000000000000e+01
ITEM: ATOMS id type x y z
6 2 7.36261 5.60055 5.92776
1 1 8.03726 5.73315 6.69056
2 1 7.93035 6.87144 7.56721
5 2 8.77612 4.97365 6.88807
7 2 8.6379 6.84779 8.35005
8 2 6.31484 8.10282 6.74057
9 2 7.63078 9.42396 9.05039
4 1 7.00139 9.32484 8.25106
10 2 6.22915 10.0502 7.91345
3 1 7.05977 8.10741 7.49428
ITEM: TIMESTEP
3700
ITEM: NUMBER OF ATOMS
10
ITEM: BOX BOUNDS pp pp pp
0.0000000000000000e+00 1.5000000000000000e+01
0.0000000000000000e+00 1.5000000000000000e+01
0.0000000000000000e+00 1.5000000000000000e+01
ITEM: ATOMS id type x y z
6 2 7.37329 5.49527 5.78957
1 1 8.01157 5.68111 6.74032
2 1 7.89916 6.83623 7.51572
5 2 8.66601 4.89095 7.14286
7 2 8.51605 6.78369 8.43715
8 2 6.35924 8.06391 6.629
9 2 7.68596 9.62494 9.1402
4 1 7.01858 9.37579 8.2196
10 2 6.21252 10.037 8.02484
3 1 7.12251 8.1609 7.4786
ITEM: TIMESTEP
3800
ITEM: NUMBER OF ATOMS
10
ITEM: BOX BOUNDS pp pp pp
0.0000000000000000e+00 1.5000000000000000e+01
0.0000000000000000e+00 1.5000000000000000e+01
0.0000000000000000e+00 1.5000000000000000e+01
ITEM: ATOMS id type x y z
6 2 7.38352 5.23163 5.99241
1 1 7.96455 5.61183 6.77698
5 2 8.72262 4.95578 7.15751
7 2 8.59781 6.82743 8.33723
2 1 7.88411 6.81672 7.4942
8 2 6.54124 8.26522 6.52743
3 1 7.10072 8.22397 7.45958
9 2 7.48437 9.47303 9.18394
4 1 7.04922 9.39128 8.24292
10 2 6.40283 10.2041 7.84843
ITEM: TIMESTEP
3900
ITEM: NUMBER OF ATOMS
10
ITEM: BOX BOUNDS pp pp pp
0.0000000000000000e+00 1.5000000000000000e+01
0.0000000000000000e+00 1.5000000000000000e+01
0.0000000000000000e+00 1.5000000000000000e+01
ITEM: ATOMS id type x y z
6 2 7.35017 5.51868 5.85029
1 1 7.94217 5.65601 6.78583
5 2 8.44339 4.71676 7.11524
7 2 8.53161 6.64957 8.49137
2 1 7.93687 6.77501 7.59901
8 2 6.46868 8.18621 6.62683
3 1 7.1356 8.18986 7.4709
9 2 7.5899 9.64134 9.12308
4 1 7.0496 9.42752 8.12082
10 2 6.35477 10.217 7.82282
ITEM: TIMESTEP
4000
ITEM: NUMBER OF ATOMS
10
ITEM: BOX BOUNDS pp pp pp
0.0000000000000000e+00 1.5000000000000000e+01
0.0000000000000000e+00 1.5000000000000000e+01
0.0000000000000000e+00 1.5000000000000000e+01
ITEM: ATOMS id type x y z
6 2 7.44106 5.37542 5.90585
1 1 7.96506 5.5711 6.86078
5 2 8.51066 4.74786 7.33083
7 2 8.40216 6.77672 8.51094
2 1 7.8481 6.77367 7.56681
8 2 6.39528 8.11126 6.47522
3 1 7.05399 8.26953 7.37713
9 2 7.71049 9.37039 9.02466
4 1 7.14042 9.45612 8.14441
10 2 6.61896 10.4158 7.94669
ITEM: TIMESTEP
4100
ITEM: NUMBER OF ATOMS
10
ITEM: BOX BOUNDS pp pp pp
0.0000000000000000e+00 1.5000000000000000e+01
0.0000000000000000e+00 1.5000000000000000e+01
0.0000000000000000e+00 1.5000000000000000e+01
ITEM: ATOMS id type x y z
6 2 7.2 5.26043 6.05416
1 1 7.82376 5.57983 6.88496
5 2 8.41841 4.71697 7.20598
7 2 8.51565 6.72005 8.53061
2 1 7.87349 6.73413 7.61335
8 2 6.69773 8.2779 6.48209
3 1 7.23001 8.28331 7.42396
9 2 7.4497 9.61976 9.08129
4 1 7.10771 9.45473 8.0588
10 2 6.63272 10.3129 7.64844
ITEM: TIMESTEP
4200
ITEM: NUMBER OF ATOMS
10
ITEM: BOX BOUNDS pp pp pp
0.0000000000000000e+00 1.5000000000000000e+01
0.0000000000000000e+00 1.5000000000000000e+01
0.0000000000000000e+00 1.5000000000000000e+01
ITEM: ATOMS id type x y z
6 2 7.32139 5.34204 5.91522
1 1 7.81966 5.52218 6.93298
5 2 8.29852 4.71217 7.48418
7 2 8.23257 6.52359 8.60309
2 1 7.80935 6.75075 7.64078
8 2 6.61599 8.26673 6.45135
3 1 7.23922 8.2665 7.34362
9 2 7.67243 9.79396 9.02798
4 1 7.20781 9.50123 8.04507
10 2 6.52687 10.3375 7.6325
ITEM: TIMESTEP
4300
ITEM: NUMBER OF ATOMS
10
ITEM: BOX BOUNDS pp pp pp
0.0000000000000000e+00 1.5000000000000000e+01
0.0000000000000000e+00 1.5000000000000000e+01
0.0000000000000000e+00 1.5000000000000000e+01
ITEM: ATOMS id type x y z
6 2 7.39542 5.28468 6.02433
1 1 7.81197 5.52843 6.97509
5 2 8.34631 4.68429 7.44896
7 2 8.06044 6.82193 8.69405
2 1 7.72566 6.75975 7.66491
8 2 6.67525 8.22995 6.3884
3 1 7.18715 8.2712 7.35455
9 2 7.71932 9.49039 8.94996
4 1 7.27726 9.49485 7.97487
10 2 6.91498 10.3834 7.5668
ITEM: TIMESTEP
4400
ITEM: NUMBER OF ATOMS
10
ITEM: BOX BOUNDS pp pp pp
0.0000000000000000e+00 1.5000000000000000e+01
0.0000000000000000e+00 1.5000000000000000e+01
0.0000000000000000e+00 1.5000000000000000e+01
ITEM: ATOMS id type x y z
6 2 7.16561 5.48251 6.03591
1 1 7.70377 5.53706 7.02584
5 2 8.01066 4.65379 7.56812
7 2 8.27172 6.66424 8.68329
2 1 7.81801 6.78214 7.66993
8 2 6.89322 8.21544 6.28963
3 1 7.31484 8.22683 7.31855
9 2 7.49537 9.69269 9.02031
4 1 7.24372 9.48422 7.97065
10 2 6.80536 10.3299 7.38189
ITEM: TIMESTEP
4500
ITEM: NUMBER OF ATOMS
10
ITEM: BOX BOUNDS pp pp pp
0.0000000000000000e+00 1.5000000000000000e+01
0.0000000000000000e+00 1.5000000000000000e+01
0.0000000000000000e+00 1.5000000000000000e+01
ITEM: ATOMS id type x y z
6 2 7.37334 5.26575 6.0661
1 1 7.72562 5.49661 7.04094
5 2 8.1061 4.71947 7.69394
7 2 8.10476 6.78937 8.64426
2 1 7.68799 6.80941 7.65743
8 2 6.83641 8.3232 6.33409
3 1 7.2713 8.22611 7.30827
9 2 7.66244 9.57912 8.99546
4 1 7.32534 9.50263 7.95622
10 2 6.97944 10.3345 7.37802
ITEM: TIMESTEP
4600
ITEM: NUMBER OF ATOMS
10
ITEM: BOX BOUNDS pp pp pp
0.0000000000000000e+00 1.5000000000000000e+01
0.0000000000000000e+00 1.5000000000000000e+01
0.0000000000000000e+00 1.5000000000000000e+01
ITEM: ATOMS id type x y z
6 2 7.35612 5.39829 5.99942
1 1 7.70501 5.54434 7.04757
5 2 8.04259 4.67447 7.63215
7 2 8.04662 6.78117 8.73795
2 1 7.66707 6.76249 7.69179
8 2 6.86369 8.18572 6.31866
3 1 7.3037 8.21993 7.34658
9 2 7.68073 9.78128 8.9078
4 1 7.36087 9.49447 7.91696
10 2 6.91431 10.2717 7.27558
ITEM: TIMESTEP
4700
ITEM: NUMBER OF ATOMS
10
ITEM: BOX BOUNDS pp pp pp
0.0000000000000000e+00 1.5000000000000000e+01
0.0000000000000000e+00 1.5000000000000000e+01
0.0000000000000000e+00 1.5000000000000000e+01
ITEM: ATOMS id type x y z
6 2 7.17454 5.35902 6.16079
1 1 7.63263 5.46948 7.11883
7 2 8.14327 6.77524 8.67336
2 1 7.70253 6.81322 7.67967
5 2 7.97004 4.66901 7.72257
8 2 7.09528 8.37119 6.20316
3 1 7.37434 8.22345 7.23664
10 2 6.89178 10.3117 7.37013
9 2 7.52957 9.56085 9.00652
4 1 7.34376 9.52269 7.9236
ITEM: TIMESTEP
4800
ITEM: NUMBER OF ATOMS
10
ITEM: BOX BOUNDS pp pp pp
0.0000000000000000e+00 1.5000000000000000e+01
0.0000000000000000e+00 1.5000000000000000e+01
0.0000000000000000e+00 1.5000000000000000e+01
ITEM: ATOMS id type x y z
6 2 7.33306 5.35584 6.07669
1 1 7.64943 5.51326 7.12525
7 2 7.87777 6.86187 8.81726
2 1 7.61377 6.75841 7.74824
5 2 7.98517 4.60217 7.68918
8 2 7.0467 8.28062 6.20883
3 1 7.30869 8.24288 7.26815
10 2 7.11336 10.3706 7.21969
9 2 7.64576 9.68862 8.92079
4 1 7.44846 9.49551 7.85113
ITEM: TIMESTEP
4900
ITEM: NUMBER OF ATOMS
10
ITEM: BOX BOUNDS pp pp pp
0.0000000000000000e+00 1.5000000000000000e+01
0.0000000000000000e+00 1.5000000000000000e+01
0.0000000000000000e+00 1.5000000000000000e+01
ITEM: ATOMS id type x y z
6 2 7.50722 5.36878 6.05936
1 1 7.60986 5.44723 7.1731
7 2 7.73764 6.72596 8.82209
2 1 7.61424 6.71824 7.74214
5 2 7.60434 4.55757 7.75045
8 2 6.9928 8.2432 6.24737
3 1 7.37733 8.26517 7.28944
10 2 7.18235 10.3175 7.14672
9 2 7.67479 9.95056 8.79307
4 1 7.46938 9.57877 7.80698
ITEM: TIMESTEP
5000
ITEM: NUMBER OF ATOMS
10
ITEM: BOX BOUNDS pp pp pp
0.0000000000000000e+00 1.5000000000000000e+01
0.0000000000000000e+00 1.5000000000000000e+01
0.0000000000000000e+00 1.5000000000000000e+01
ITEM: ATOMS id type x y z
6 2 7.21382 5.05035 6.30616
1 1 7.50175 5.41281 7.26572
7 2 7.90663 6.78194 8.77909
2 1 7.59933 6.77735 7.71511
5 2 7.70749 4.60987 8.033
8 2 7.3032 8.49681 6.095
3 1 7.4499 8.32499 7.14463
10 2 7.47096 10.4607 7.16813
9 2 7.42023 9.62577 8.90894
4 1 7.46598 9.51728 7.80765
ITEM: TIMESTEP
5100
ITEM: NUMBER OF ATOMS
10
ITEM: BOX BOUNDS pp pp pp
0.0000000000000000e+00 1.5000000000000000e+01
0.0000000000000000e+00 1.5000000000000000e+01
0.0000000000000000e+00 1.5000000000000000e+01
ITEM: ATOMS id type x y z
6 2 7.30632 5.48131 6.13289
1 1 7.47435 5.46565 7.27134
7 2 7.64503 6.76345 8.94375
2 1 7.54616 6.70211 7.85403
5 2 7.56443 4.53049 7.76775
8 2 7.20564 8.09905 6.21361
3 1 7.48339 8.26198 7.23742
10 2 7.41996 10.3865 6.97184
9 2 7.63204 9.99638 8.73499
4 1 7.55453 9.56406 7.65791
ITEM: TIMESTEP
5200
ITEM: NUMBER OF ATOMS
10
ITEM: BOX BOUNDS pp pp pp
0.0000000000000000e+00 1.5000000000000000e+01
0.0000000000000000e+00 1.5000000000000000e+01
0.0000000000000000e+00 1.5000000000000000e+01
ITEM: ATOMS id type x y z
6 2 7.36946 5.07749 6.33715
1 1 7.44051 5.41871 7.33274
7 2 7.4824 6.87272 8.86922
2 1 7.50854 6.78506 7.78489
5 2 7.52447 4.60019 8.09441
8 2 7.20862 8.25865 6.05482
3 1 7.47988 8.2746 7.1386
10 2 7.44835 10.4488 7.09251
9 2 7.76193 9.70238 8.71016
4 1 7.62587 9.56492 7.69889
ITEM: TIMESTEP
5300
ITEM: NUMBER OF ATOMS
10
ITEM: BOX BOUNDS pp pp pp
0.0000000000000000e+00 1.5000000000000000e+01
0.0000000000000000e+00 1.5000000000000000e+01
0.0000000000000000e+00 1.5000000000000000e+01
ITEM: ATOMS id type x y z
6 2 7.10793 5.21878 6.26823
1 1 7.36098 5.47332 7.35306
7 2 7.67368 6.76023 8.93225
2 1 7.51798 6.74718 7.8288
5 2 7.54475 4.66579 8.04452
8 2 7.5064 8.21355 6.09344
3 1 7.5324 8.24306 7.20132
10 2 7.62137 10.3649 6.87409
9 2 7.52356 9.91152 8.7112
4 1 7.61302 9.55064 7.61103
ITEM: TIMESTEP
5400
ITEM: NUMBER OF ATOMS
10
ITEM: BOX BOUNDS pp pp pp
0.0000000000000000e+00 1.5000000000000000e+01
0.0000000000000000e+00 1.5000000000000000e+01
0.0000000000000000e+00 1.5000000000000000e+01
ITEM: ATOMS id type x y z
6 2 7.32948 5.15693 6.36969
1 1 7.35306 5.44237 7.36667
7 2 7.49646 6.9115 8.89922
2 1 7.48771 6.79056 7.84362
5 2 7.22119 4.68205 8.11163
8 2 7.39169 7.99686 6.14551
3 1 7.5463 8.22367 7.15555
10 2 7.56859 10.3599 6.85315
9 2 7.70728 9.86797 8.62148
4 1 7.68115 9.5842 7.61554
ITEM: TIMESTEP
5500
ITEM: NUMBER OF ATOMS
10
ITEM: BOX BOUNDS pp pp pp
0.0000000000000000e+00 1.5000000000000000e+01
0.0000000000000000e+00 1.5000000000000000e+01
0.0000000000000000e+00 1.5000000000000000e+01
ITEM: ATOMS id type x y z
6 2 7.42772 4.97454 6.41266
1 1 7.37205 5.47471 7.46652
7 2 7.33367 6.98299 8.94749
2 1 7.36068 6.83969 7.81983
5 2 7.17346 4.79516 8.34955
8 2 7.46241 8.23316 5.9564
3 1 7.49724 8.2113 7.09873
10 2 7.94098 10.3826 6.92489
9 2 7.71371 9.6105 8.66443
4 1 7.78203 9.51447 7.55384
ITEM: TIMESTEP
5600
ITEM: NUMBER OF ATOMS
10
ITEM: BOX BOUNDS pp pp pp
0.0000000000000000e+00 1.5000000000000000e+01
0.0000000000000000e+00 1.5000000000000000e+01
0.0000000000000000e+00 1.5000000000000000e+01
ITEM: ATOMS id type x y z
6 2 7.16666 5.34313 6.41075
1 1 7.20648 5.50858 7.45768
7 2 7.47096 6.81965 8.98048
2 1 7.42325 6.8024 7.90503
5 2 6.97005 4.79195 8.19715
8 2 7.80946 7.85673 6.18663
3 1 7.66843 8.15193 7.19631
10 2 7.88085 10.1537 6.57859
9 2 7.50971 10.0445 8.39402
4 1 7.75455 9.57215 7.46455
ITEM: TIMESTEP
5700
ITEM: NUMBER OF ATOMS
10
ITEM: BOX BOUNDS pp pp pp
0.0000000000000000e+00 1.5000000000000000e+01
0.0000000000000000e+00 1.5000000000000000e+01
0.0000000000000000e+00 1.5000000000000000e+01
ITEM: ATOMS id type x y z
6 2 7.22386 4.85248 6.61728
1 1 7.18423 5.46852 7.52795
7 2 7.22916 7.13057 8.87517
2 1 7.34118 6.86932 7.81583
5 2 6.97221 4.96081 8.48395
8 2 7.78548 8.00831 6.03796
3 1 7.66518 8.15432 7.1234
10 2 7.96355 10.2709 6.62553
9 2 7.67069 9.79762 8.55401
4 1 7.85592 9.54104 7.48201
ITEM: TIMESTEP
5800
ITEM: NUMBER OF ATOMS
10
ITEM: BOX BOUNDS pp pp pp
0.0000000000000000e+00 1.5000000000000000e+01
0.0000000000000000e+00 1.5000000000000000e+01
0.0000000000000000e+00 1.5000000000000000e+01
ITEM: ATOMS id type x y z
6 2 7.43111 5.16517 6.57305