10
 Atoms. Timestep: 0
C 8.65436 7.65828 5.89793
C 7.76167 7.90963 6.93869
C 7.28368 7.08234 8.10814
C 6.31897 7.35663 9.07713
H 8.82982 8.50459 5.1255
H 9.11721 6.67433 5.81748
H 7.35747 8.9574 7.01817
H 7.75413 6.12269 8.13785
H 5.82886 8.33629 8.88725
H 6.12443 6.58339 9.77139
10
 Atoms. Timestep: 20
C 8.69892 7.64145 5.78833
C 7.82331 7.95922 6.92955
C 7.281 7.07376 8.1367
C 6.26893 7.37336 9.15789
H 8.87854 8.42961 5.08432
H 9.01607 6.60924 5.82438
H 7.44434 8.97378 6.8561
H 7.7683 6.10649 8.21693
H 5.67253 8.26896 9.07674
H 5.91129 6.54515 9.75568
10
 Atoms. Timestep: 40
C 8.67442 7.62238 5.8076
C 7.91865 7.94961 6.85822
C 7.21615 7.1667 8.19043
C 6.25495 7.34093 9.1457
H 8.97477 8.2638 5.02132
H 9.11958 6.62291 5.55514
H 7.47693 8.93701 6.8728
H 7.71399 6.14124 8.26785
H 5.60574 8.20785 9.34502
H 5.84799 6.56946 9.81511
10
 Atoms. Timestep: 60
C 8.71083 7.5374 5.79348
C 7.90604 7.93783 6.87039
C 7.19529 7.21228 8.20763
C 6.18764 7.35609 9.14208
H 8.97011 8.40636 4.96823
H 9.1972 6.58726 5.45737
H 7.58084 9.01782 6.87681
H 7.59857 6.22625 8.23528
H 5.64677 8.28304 9.47491
H 6.13169 6.43765 9.79497
10
 Atoms. Timestep: 80
C 8.68896 7.52903 5.83986
C 7.88086 7.91099 6.88205
C 7.19478 7.2202 8.13444
C 6.22533 7.3918 9.11983
H 8.86585 8.3467 5.22706
H 9.10488 6.58679 5.62415
H 7.71213 8.97746 6.83381
H 7.56204 6.20959 8.18486
H 5.6889 8.25598 9.43829
H 6.25062 6.53134 9.72377
10
 Atoms. Timestep: 100
C 8.71104 7.5464 5.83405
C 7.82998 7.89928 6.93389
C 7.18747 7.1928 8.02553
C 6.28339 7.42851 9.16568
H 8.98123 8.33707 5.21065
H 9.03162 6.46049 5.75152
H 7.63425 8.95583 6.89848
H 7.60211 6.14075 8.1376
H 5.69428 8.33623 9.30061
H 6.10922 6.58764 9.83526
10
 Atoms. Timestep: 120
C 8.71252 7.5541 5.85981
C 7.82744 7.93506 6.88038
C 7.13665 7.0955 8.0897
C 6.33476 7.45697 9.1624
H 9.2117 8.26538 5.07459
H 9.01324 6.49527 5.74142
H 7.46776 9.00148 7.00322
H 7.56767 6.09955 8.05816
H 5.81008 8.42023 9.15736
H 5.98535 6.68829 9.90048
10
 Atoms. Timestep: 140
C 8.73609 7.56871 5.83899
C 7.82117 7.93876 6.8394
C 7.15566 7.042 8.13249
C 6.29314 7.47065 9.17105
H 9.23313 8.24625 5.11523
H 9.0027 6.56547 5.77117
H 7.47174 8.97818 6.92498
H 7.42666 5.99418 8.08073
H 5.9978 8.52665 9.16014
H 5.95557 6.78853 9.94517
10
 Atoms. Timestep: 160
C 8.73839 7.57784 5.83035
C 7.81906 7.86879 6.86913
C 7.16515 7.08551 8.11516
C 6.28155 7.4839 9.14062
H 9.07928 8.33561 5.22487
H 9.09634 6.50245 5.77366
H 7.5429 8.89815 6.81832
H 7.31895 5.97316 8.10823
H 6.11843 8.54981 9.30538
H 5.94319 6.86461 9.92696
10
 Atoms. Timestep: 180
C 8.7293 7.51907 5.85579
C 7.84023 7.7857 6.92025
C 7.12475 7.14265 8.06627
C 6.30564 7.54232 9.1408
H 8.91013 8.45003 5.24
H 9.31056 6.56946 5.61248
H 7.51883 8.85868 6.86258
H 7.33485 6.07423 8.04018
H 6.1166 8.58845 9.40213
H 5.93351 6.74069 9.83294
10
 Atoms. Timestep: 200
C 8.75475 7.47995 5.84932
C 7.87759 7.78605 6.90931
C 7.07684 7.1427 8.07632
C 6.31726 7.57898 9.18694
H 8.84319 8.39264 5.18547
H 9.34909 6.69181 5.53337
H 7.54706 8.83463 6.87022
H 7.27221 6.07817 8.02264
H 6.02411 8.60138 9.43132
H 5.92965 6.69527 9.71466
10
 Atoms. Timestep: 220
C 8.76536 7.51225 5.81996
C 7.89119 7.82945 6.88179
C 7.08416 7.13214 8.1183
C 6.31857 7.55428 9.18703
H 8.93157 8.26585 5.1301
H 9.26838 6.55862 5.61911
H 7.62926 8.8497 6.78139
H 7.10617 6.01911 8.07197
H 5.95895 8.53877 9.44752
H 5.87399 6.81922 9.79643
10
 Atoms. Timestep: 240
C 8.74851 7.50722 5.83699
C 7.88993 7.86161 6.85692
C 7.12524 7.12749 8.11657
C 6.29327 7.53546 9.1693
H 9.0885 8.23508 5.06203
H 9.06833 6.40597 5.78142
H 7.58949 8.93418 6.82062
H 7.1316 6.04505 8.04347
H 6.0498 8.59557 9.40279
H 5.85452 6.81344 9.89996
10
 Atoms. Timestep: 260
C 8.7135 7.4422 5.87929
C 7.84296 7.90872 6.88772
C 7.13681 7.1428 8.07652
C 6.29439 7.54863 9.13619
H 9.22023 8.1244 5.13513
H 8.93815 6.40266 5.81341
H 7.55809 8.98449 6.94751
H 7.35943 6.07815 7.9701
H 6.18764 8.62248 9.31654
H 5.93448 6.75372 9.82796
10
 Atoms. Timestep: 280
C 8.72239 7.4014 5.85332
C 7.81003 7.92233 6.93244
C 7.13178 7.17755 8.01832
C 6.29443 7.5492 9.15812
H 9.23873 8.08678 5.2287
H 8.88252 6.3456 5.82045
H 7.67373 8.99133 6.95096
H 7.49287 6.11739 7.99929
H 6.12635 8.59304 9.32008
H 5.95802 6.78292 9.79629
10
 Atoms. Timestep: 300
C 8.69576 7.42343 5.86108
C 7.89372 7.88446 6.85531
C 7.10431 7.20749 8.06205
C 6.29991 7.54309 9.16721
H 9.21859 8.09498 5.24087
H 8.88235 6.28366 5.76741
H 7.82547 8.98834 6.90189
H 7.35992 6.15593 8.07552
H 5.91267 8.55386 9.37245
H 5.96277 6.79238 9.85695
10
 Atoms. Timestep: 320
C 8.72438 7.39432 5.81029
C 7.94199 7.87271 6.84816
C 7.0925 7.217 8.132
C 6.26017 7.57774 9.19068
H 9.22011 8.14759 5.11363
H 8.93126 6.33013 5.6078
H 7.8969 8.98076 6.87809
H 7.19711 6.13754 8.11802
H 5.74851 8.55333 9.40649
H 6.01587 6.7 9.87822
10
 Atoms. Timestep: 340
C 8.70829 7.36839 5.82549
C 7.96389 7.8614 6.88962
C 7.09808 7.22215 8.1427
C 6.25489 7.60564 9.1472
H 9.10573 8.09405 5.10783
H 8.96189 6.42265 5.47982
H 7.85971 8.92826 6.92757
H 7.24597 6.11637 8.12814
H 5.81531 8.52046 9.42842
H 5.98447 6.79278 9.78716
10
 Atoms. Timestep: 360
C 8.69678 7.38713 5.82286
C 7.94789 7.81664 6.94822
C 7.15033 7.20551 8.07495
C 6.23506 7.62122 9.14355
H 8.99562 8.17345 5.18317
H 8.92809 6.28332 5.51832
H 7.82641 8.91118 6.96841
H 7.38296 6.15454 8.14119
H 5.97246 8.67555 9.37422
H 5.83807 6.83898 9.76611
10
 Atoms. Timestep: 380
C 8.6775 7.4055 5.83871
C 7.91897 7.80417 6.95041
C 7.14953 7.16824 8.11619
C 6.28307 7.62404 9.0866
H 9.00803 8.21756 5.19496
H 8.84173 6.31592 5.69032
H 7.85097 8.91233 6.96653
H 7.37075 6.10182 8.14416
H 6.14743 8.73469 9.19658
H 5.73068 6.92601 9.74496
10
 Atoms. Timestep: 400
C 8.70807 7.39704 5.80823
C 7.90385 7.84639 6.92116
C 7.15399 7.09965 8.14885
C 6.26958 7.66631 9.13798
H 9.1572 8.14716 5.092
H 8.88259 6.39985 5.6536
H 7.79989 8.9179 7.02602
H 7.22823 5.96968 8.1335
H 6.15526 8.71615 9.08038
H 5.68784 7.01295 9.80619
10
 Atoms. Timestep: 420
C 8.71269 7.42021 5.82315
C 7.92361 7.82075 6.89684
C 7.10056 7.09722 8.154
C 6.30424 7.66414 9.13605
H 9.20105 8.06436 5.13251
H 8.96066 6.3415 5.56449
H 7.729 8.8917 7.0426
H 7.1711 6.02645 8.08784
H 6.06425 8.73635 9.12817
H 5.75136 7.14574 9.87315
10
 Atoms. Timestep: 440
C 8.7459 7.3954 5.81559
C 7.91297 7.76299 6.92222
C 7.05676 7.14924 8.09205
C 6.29723 7.68258 9.14993
H 9.14278 8.21488 5.23792
H 8.96672 6.28446 5.58862
H 7.78203 8.87058 6.91184
H 7.1897 6.0639 8.10204
H 6.08765 8.80988 9.21064
H 5.87804 7.03509 9.95921
10
 Atoms. Timestep: 460
C 8.72813 7.3342 5.88513
C 7.88871 7.75217 6.90549
C 7.04807 7.20148 8.04238
C 6.29936 7.70844 9.12886
H 9.06553 8.2445 5.33386
H 9.02363 6.40648 5.58049
H 7.86265 8.82595 6.8611
H 7.17062 6.08434 8.15909
H 6.16154 8.73219 9.32138
H 6.05442 6.94883 9.86183
10
 Atoms. Timestep: 480
C 8.76624 7.30235 5.85113
C 7.85615 7.78245 6.88274
C 7.05003 7.21988 8.07034
C 6.28237 7.71219 9.15792
H 9.1709 8.13947 5.24893
H 9.10428 6.30194 5.56851
H 7.82013 8.87338 6.9216
H 7.13358 6.15315 8.08415
H 6.14031 8.74083 9.45025
H 6.0261 6.91008 9.84279
10
 Atoms. Timestep: 500
C 8.74087 7.33985 5.85733
C 7.90591 7.8029 6.82435
C 7.04991 7.22606 8.10856
C 6.31623 7.67929 9.16858
H 9.28267 7.9359 5.17307
H 9.00753 6.21122 5.74146
H 7.75787 8.91223 6.85773
H 7.09149 6.1487 8.01934
H 6.07374 8.7539 9.50047
H 5.83319 6.96941 9.84401
10
 Atoms. Timestep: 520
C 8.73687 7.29621 5.85348
C 7.92267 7.88264 6.846
C 7.0857 7.21215 8.08084
C 6.31784 7.67744 9.20972
H 9.30308 7.88423 5.09404
H 8.83195 6.23182 5.94002
H 7.75149 8.94133 6.71883
H 7.03658 6.07152 8.03237
H 6.12188 8.72924 9.40366
H 5.70048 6.95119 9.75987
10
 Atoms. Timestep: 540
C 8.70588 7.24706 5.90931
C 7.91101 7.91156 6.8913
C 7.10008 7.23851 8.07044
C 6.32862 7.67456 9.15242
H 9.17108 7.81209 5.09551
H 8.81018 6.19715 5.95743
H 7.74821 8.98993 6.77174
H 7.11818 6.17402 7.94437
H 6.24272 8.69829 9.32688
H 5.76012 6.91836 9.65235
10
 Atoms. Timestep: 560
C 8.7175 7.24469 5.89152
C 7.91408 7.84694 6.90942
C 7.12097 7.28748 8.03695
C 6.26212 7.69441 9.15895
H 9.08517 7.8022 5.04758
H 8.87184 6.08785 5.89425
H 7.82592 8.9702 6.91288
H 7.20523 6.22084 7.8764
H 6.24442 8.81368 9.42705
H 5.80337 6.88407 9.74983
10
 Atoms. Timestep: 580
C 8.71291 7.24823 5.86262
C 7.97213 7.81885 6.87711
C 7.06757 7.27519 8.08201
C 6.26356 7.7279 9.12462
H 9.09017 7.85708 5.07438
H 8.88124 6.17122 5.81517
H 7.99991 8.89428 6.86422
H 7.10751 6.1303 8.07408
H 6.06859 8.73759 9.5543
H 5.87957 7.00852 9.82872
10
 Atoms. Timestep: 600
C 8.7197 7.22743 5.80784
C 8.00882 7.80358 6.86976
C 7.02403 7.22435 8.12516
C 6.2633 7.78215 9.16631
H 9.23689 7.97964 5.12664
H 8.8688 6.21033 5.64279
H 8.03624 8.88728 6.83911
H 6.9953 6.1615 8.26608
H 5.98709 8.76374 9.37233
H 5.90461 6.99245 9.82764
10
 Atoms. Timestep: 620
C 8.69434 7.25382 5.83628
C 7.97885 7.73423 6.88882
C 7.03304 7.2299 8.14431
C 6.30622 7.79797 9.1437
H 9.31404 7.94077 5.2772
H 8.82955 6.19119 5.42165
H 7.97077 8.85247 6.95952
H 7.12072 6.16282 8.16696
H 5.9982 8.88039 9.14311
H 5.81599 7.09688 9.84188
10
 Atoms. Timestep: 640
C 8.70986 7.24382 5.83553
C 7.88201 7.7093 6.95754
C 7.11292 7.20978 8.10052
C 6.29606 7.8186 9.11019
H 9.30122 8.00198 5.38056
H 8.69821 6.19793 5.38682
H 8.0351 8.7823 7.05757
H 7.24725 6.06045 8.0985
H 6.11357 8.96842 9.05282
H 5.72356 7.3199 9.89008
10
 Atoms. Timestep: 660
C 8.68488 7.23132 5.84613
C 7.92106 7.73864 6.92515
C 7.10445 7.13321 8.12417
C 6.27008 7.85955 9.06795
H 9.2439 8.05554 5.37779
H 8.64107 6.27025 5.51162
H 8.10801 8.78364 7.09243
H 7.17704 6.06612 8.26028
H 6.31249 8.88437 8.99911
H 5.75871 7.38376 9.86741
10
 Atoms. Timestep: 680
C 8.69626 7.25286 5.79165
C 8.01148 7.72271 6.9328
C 7.01678 7.14424 8.1826
C 6.25931 7.85893 9.07051
H 9.26844 7.96753 5.14648
H 8.69133 6.17362 5.55788
H 8.08085 8.83472 7.08934
H 7.07052 6.07944 8.31924
H 6.36735 8.96769 9.00212
H 5.74252 7.32457 9.90859
10
 Atoms. Timestep: 700
C 8.69467 7.24911 5.78904
C 8.05317 7.69623 6.96221
C 7.01081 7.19981 8.15834
C 6.28305 7.8621 9.09905
H 9.19992 7.82298 5.03826
H 8.81536 6.12001 5.52595
H 8.04389 8.78805 7.04432
H 6.95569 6.04623 8.18988
H 6.1701 9.02392 9.15994
H 5.68884 7.37532 9.87878
10
 Atoms. Timestep: 720
C 8.69094 7.1499 5.84767
C 8.02451 7.70578 6.9485
C 7.06721 7.23515 8.09224
C 6.29546 7.90878 9.13414
H 9.05556 7.91644 5.16204
H 8.83063 6.1563 5.56502
H 8.0944 8.77087 6.97543
H 6.88288 6.17747 8.02901
H 6.11028 8.91419 9.27258
H 5.6815 7.28706 9.74958
10
 Atoms. Timestep: 740
C 8.70237 7.08866 5.88408
C 7.95945 7.72106 6.93938
C 7.06853 7.32691 8.08391
C 6.31646 7.87687 9.11908
H 9.0759 7.94167 5.29531
H 8.76809 6.0432 5.64124
H 8.1326 8.82174 6.86928
H 6.89268 6.27731 7.98442
H 6.25961 8.95484 9.32591
H 5.71423 7.10024 9.61413
10
 Atoms. Timestep: 760
C 8.70367 7.10887 5.90685
C 7.96468 7.75338 6.88584
C 7.03892 7.35608 8.06142
C 6.29581 7.85957 9.13908
H 9.35324 7.66333 5.21233
H 8.70173 5.96009 5.70463
H 8.06237 8.85026 6.80997
H 6.89538 6.21471 8.04716
H 6.40696 8.96064 9.48836
H 5.68583 7.10354 9.66751
10
 Atoms. Timestep: 780
C 8.72779 7.09233 5.88037
C 7.98742 7.81374 6.83704
C 6.99462 7.30135 8.04694
C 6.29929 7.88071 9.16343
H 9.49176 7.44586 5.20254
H 8.62788 6.0175 5.88153
H 8.0221 8.89579 6.83913
H 6.87257 6.22575 8.00127
H 6.35455 8.84827 9.59828
H 5.70044 7.25801 9.79954
10
 Atoms. Timestep: 800
C 8.72178 7.05758 5.90628
C 7.99239 7.83561 6.81644
C 6.96713 7.29609 8.04851
C 6.33772 7.87572 9.15734
H 9.46382 7.48264 5.23385
H 8.56665 6.01539 6.02706
H 8.06582 8.94546 6.89558
H 6.79465 6.25793 7.89428
H 6.35534 8.89984 9.46527
H 5.76361 7.22878 9.80149
10
 Atoms. Timestep: 820
C 8.70761 7.0564 5.94169
C 7.96385 7.80109 6.87054
C 6.99411 7.35343 8.00411
C 6.3412 7.87293 9.17265
H 9.38511 7.53038 5.20962
H 8.61955 5.90605 5.97651
H 8.158 8.89479 6.86606
H 6.72533 6.2449 7.83828
H 6.40977 9.01362 9.28664
H 5.78559 7.12713 9.778
10
 Atoms. Timestep: 840
C 8.70595 7.03628 5.93073
C 7.96735 7.74809 6.9343
C 6.99133 7.37453 7.99988
C 6.33935 7.89987 9.13253
H 9.28422 7.58992 5.22001
H 8.71536 5.96123 5.80635
H 8.16842 8.80068 6.828
H 6.78544 6.31048 7.88052
H 6.38359 8.95366 9.40028
H 5.76309 7.25141 9.76921
10
 Atoms. Timestep: 860
C 8.72382 7.02465 5.87239
C 8.04004 7.69814 6.89806
C 6.97031 7.32266 8.06204
C 6.29269 7.98014 9.13809
H 9.25749 7.7178 5.22787
H 8.7416 5.98078 5.68647
H 8.12312 8.79688 6.88517
H 6.77973 6.28807 8.00549
H 6.38706 8.95672 9.52121
H 5.67381 7.32624 9.73929
10
 Atoms. Timestep: 880
C 8.70898 7.06726 5.86541
C 8.04333 7.6604 6.89163
C 6.97976 7.29656 8.14407
C 6.30195 7.99683 9.08695
H 9.30375 7.71858 5.19467
H 8.75295 5.98133 5.57241
H 8.18088 8.75042 6.93138
H 6.67888 6.1905 8.12904
H 6.42477 9.05406 9.47332
H 5.57866 7.39875 9.65981
10
 Atoms. Timestep: 900
C 8.71099 7.07641 5.83763
C 7.98968 7.64847 6.95941
C 7.02287 7.26642 8.14363
C 6.31288 8.00287 9.08505
H 9.34225 7.715 5.21182
H 8.6935 6.00272 5.53961
H 8.25323 8.69899 6.99075
H 6.67659 6.21795 8.11434
H 6.43824 9.11191 9.22497
H 5.50173 7.50841 9.65326
10
 Atoms. Timestep: 920
C 8.66424 7.06413 5.87813
C 8.01088 7.6353 6.97681
C 7.03056 7.24688 8.08276
C 6.32541 8.02159 9.07849
H 9.28929 7.75152 5.36644
H 8.56706 6.07005 5.58311
H 8.23718 8.70397 7.12278
H 6.82109 6.21478 8.0325
H 6.45644 9.0547 8.99694
H 5.56646 7.61761 9.69012
10
 Atoms. Timestep: 940
C 8.67803 7.03997 5.86546
C 8.03352 7.66972 7.00413
C 6.97848 7.24399 8.06331
C 6.31426 8.03131 9.06862
H 9.34281 7.75163 5.34469
H 8.45896 5.99691 5.56252
H 8.30197 8.73017 7.14024
H 6.89614 6.09282 8.0539
H 6.46953 9.13798 8.95751
H 5.62887 7.60064 9.82102
10
 Atoms. Timestep: 960
C 8.6953 7.05946 5.88575
C 8.04572 7.66929 6.96533
C 6.94986 7.27038 8.09433
C 6.2898 8.01531 9.03331
H 9.41562 7.5437 5.21224
H 8.45865 6.01861 5.52067
H 8.39938 8.68341 7.09976
H 6.79719 6.17976 8.17624
H 6.41386 9.13047 9.11779
H 5.75524 7.57742 9.88999
10
 Atoms. Timestep: 980
C 8.71215 7.01491 5.85303
C 8.05143 7.65272 6.91013
C 6.9803 7.31654 8.09423
C 6.2467 8.04593 9.08916
H 9.46635 7.52025 5.25998
H 8.46519 6.01972 5.57856
H 8.4225 8.67223 7.11314
H 6.73353 6.30256 8.18058
H 6.33179 9.08964 9.23629
H 5.76118 7.435 9.84116
10
 Atoms. Timestep: 1000
C 8.65585 6.9605 5.88564
C 8.0465 7.66979 6.92485
C 6.9993 7.3896 8.07466
C 6.31363 8.0332 9.07588
H 9.42933 7.55142 5.43042
H 8.4893 5.93227 5.60829
H 8.40583 8.69664 7.03959
H 6.79016 6.27302 8.04739
H 6.23148 9.08251 9.35648
H 5.68624 7.36559 9.64064
10
 Atoms. Timestep: 1020
C 8.63732 6.93271 5.91559
C 8.03282 7.69839 6.96239
C 7.03582 7.40929 8.01057
C 6.32152 8.02276 9.12011
H 9.43712 7.49748 5.38214
H 8.51381 5.83017 5.62991
H 8.39289 8.72003 6.92257
H 6.79949 6.32006 7.96516
H 6.27227 9.13568 9.40609
H 5.54349 7.33767 9.53118
10
 Atoms. Timestep: 1040
C 8.6811 6.94196 5.93429
C 8.07304 7.70105 6.90516
C 6.99508 7.40877 8.0629
C 6.29655 8.00209 9.11231
H 9.36378 7.35766 5.21804
H 8.45228 5.89976 5.80971
H 8.36574 8.77862 6.90676
H 6.67669 6.42223 7.94062
H 6.47322 9.02099 9.34924
H 5.51776 7.41749 9.57674
10
 Atoms. Timestep: 1060
C 8.73389 6.92243 5.91648
C 8.09449 7.74467 6.8949
C 6.95579 7.35223 8.07264
C 6.28152 8.03603 9.10058
H 9.33372 7.32055 5.08844
H 8.41621 5.89815 5.96174
H 8.33059 8.8119 6.93297
H 6.52578 6.32675 7.87009
H 6.58021 9.0104 9.43418
H 5.54339 7.5201 9.69402
10
 Atoms. Timestep: 1080
C 8.69587 6.94731 5.97003
C 8.08226 7.72919 6.91828
C 6.93146 7.32828 8.00705
C 6.33296 8.0565 9.06629
H 9.31614 7.29268 5.14489
H 8.51659 5.81381 5.95865
H 8.28213 8.79403 6.96713
H 6.52819 6.29715 7.82614
H 6.64297 9.0743 9.50453
H 5.58267 7.58042 9.71776
10
 Atoms. Timestep: 1100
C 8.7105 6.90393 5.93128
C 8.00166 7.65765 6.97203
C 6.93127 7.40182 7.97069
C 6.35139 8.06937 9.11541
H 9.41222 7.43519 5.27856
H 8.60926 5.82027 5.90217
H 8.26999 8.75493 6.96503
H 6.5794 6.4197 7.84623
H 6.72034 9.07581 9.31542
H 5.56384 7.51751 9.64512
10
 Atoms. Timestep: 1120
C 8.70199 6.89504 5.95054
C 7.9967 7.61333 6.91612
C 6.91226 7.42898 8.0192
C 6.38206 8.08185 9.10153
H 9.4474 7.5257 5.50286
H 8.66788 5.87339 5.74257
H 8.33118 8.639 6.90093
H 6.46752 6.40846 7.9066
H 6.64141 9.0674 9.2922
H 5.61048 7.5909 9.61949
10
 Atoms. Timestep: 1140
C 8.7404 6.88617 5.93126
C 8.00626 7.61309 6.87645
C 6.89633 7.34899 8.04124
C 6.35938 8.15254 9.11331
H 9.55189 7.5149 5.51412
H 8.66468 5.81636 5.52148
H 8.3877 8.61152 6.91151
H 6.37791 6.36192 7.95053
H 6.56427 9.24346 9.46739
H 5.56329 7.66709 9.75034
10
 Atoms. Timestep: 1160
C 8.75226 6.9131 5.93269
C 8.01783 7.56721 6.8886
C 6.85452 7.37384 8.10042
C 6.35523 8.15188 9.04207
H 9.5702 7.36925 5.3904
H 8.53678 5.89924 5.52997
H 8.37913 8.62993 7.07719
H 6.50001 6.38079 7.97466
H 6.64093 9.15449 9.39931
H 5.61792 7.75014 9.7348
10
 Atoms. Timestep: 1180
C 8.71617 6.89104 5.90382
C 8.05479 7.58903 6.97932
C 6.90052 7.35763 8.01531
C 6.31403 8.19019 9.07246
H 9.53673 7.38096 5.35249
H 8.41546 5.92826 5.63659
H 8.41682 8.59309 7.16501
H 6.51706 6.30222 8.05586
H 6.76641 9.13733 9.16761
H 5.55838 7.71078 9.68598
10
 Atoms. Timestep: 1200
C 8.61624 6.89743 5.95371
C 8.09639 7.62115 7.05396
C 6.94384 7.34235 7.99241
C 6.35537 8.14119 8.9858
H 9.3915 7.40788 5.42919
H 8.29575 5.86241 5.71891
H 8.56594 8.58011 7.1682
H 6.54214 6.31201 7.96118
H 6.70364 9.21844 9.06609
H 5.55398 7.82646 9.63017
10
 Atoms. Timestep: 1220
C 8.65283 6.85159 5.89056
C 8.12457 7.59777 7.03438
C 6.96705 7.36139 8.05815
C 6.29653 8.18449 9.03957
H 9.42052 7.35886 5.30604
H 8.18975 5.82025 5.69834
H 8.67174 8.59107 7.21947
H 6.60276 6.38365 7.79893
H 6.56308 9.26858 9.08889
H 5.43027 7.82616 9.64133
10
 Atoms. Timestep: 1240
C 8.63823 6.84885 5.9354
C 8.18323 7.56665 6.95665
C 6.96677 7.42986 8.11585
C 6.27293 8.19714 9.03239
H 9.40843 7.12913 5.22589
H 8.25822 5.95551 5.55203
H 8.66729 8.49892 7.19373
H 6.51042 6.42087 7.92199
H 6.46842 9.19842 9.2241
H 5.44438 7.76215 9.52955
10
 Atoms. Timestep: 1260
C 8.64272 6.77847 5.88623
C 8.17998 7.6014 7.0038
C 6.95643 7.45324 8.06937
C 6.27404 8.21839 9.02081
H 9.55748 7.16898 5.32204
H 8.1557 5.86018 5.49392
H 8.75067 8.51548 7.10034
H 6.47669 6.4805 8.17553
H 6.44171 9.25625 9.46467
H 5.42273 7.62966 9.45126
10
 Atoms. Timestep: 1280
C 8.6009 6.80771 5.95769
C 8.14368 7.54138 6.9825
C 6.97227 7.49131 8.01359
C 6.30694 8.22002 8.99231
H 9.49446 7.14711 5.54998
H 8.10477 5.85814 5.6188
H 8.73595 8.50844 7.15534
H 6.6305 6.4666 7.9782
H 6.50007 9.22123 9.44186
H 5.51546 7.65595 9.46832
10
 Atoms. Timestep: 1300
C 8.63217 6.76085 5.94103
C 8.08566 7.59812 7.02015
C 6.97675 7.4787 7.96763
C 6.29826 8.2407 9.05158
H 9.57805 7.07209 5.50048
H 8.14356 5.8242 5.69867
H 8.71618 8.43835 7.25113
H 6.5613 6.47153 7.7348
H 6.62617 9.22614 9.22646
H 5.54166 7.71748 9.59512
10
 Atoms. Timestep: 1320
C 8.64275 6.76166 5.99573
C 8.13996 7.6508 6.99099
C 6.85649 7.43375 7.98834
C 6.36777 8.20048 9.01038
H 9.56626 6.96867 5.40917
H 8.21998 5.82844 5.71838
H 8.75531 8.50132 7.24031
H 6.26158 6.53465 7.79735
H 6.72408 9.22907 9.12784
H 5.55491 7.87766 9.68327
10
 Atoms. Timestep: 1340
C 8.72076 6.76753 5.97882
C 8.16178 7.56218 6.9523
C 6.78081 7.42023 7.97723
C 6.36155 8.25138 9.05541
H 9.60387 7.05199 5.39039
H 8.14806 5.80509 5.78524
H 8.66333 8.59048 7.16074
H 6.18221 6.52264 7.83202
H 6.90476 9.2434 9.23678
H 5.47234 7.99848 9.70127
10
 Atoms. Timestep: 1360
C 8.7292 6.75631 5.98261
C 8.09324 7.49894 6.98355
C 6.79681 7.47685 7.99617
C 6.38339 8.29007 9.02265
H 9.56984 7.12599 5.46068
H 8.30082 5.77909 5.71204
H 8.49742 8.47863 7.07579
H 6.26514 6.53136 7.76508
H 6.95897 9.08817 9.40493
H 5.51602 8.08379 9.56057
10
 Atoms. Timestep: 1380
C 8.66983 6.69251 6.00235
C 8.01171 7.50628 7.02171
C 6.89611 7.47338 7.95901
C 6.4013 8.32613 9.01315
H 9.5372 7.25492 5.55997
H 8.57194 5.7332 5.58859
H 8.5134 8.45102 7.07484
H 6.18751 6.65289 7.75711
H 7.03218 9.07916 9.48763
H 5.40797 8.05896 9.44351
10
 Atoms. Timestep: 1400
C 8.65605 6.69731 6.01054
C 8.04954 7.47502 6.96596
C 6.8708 7.4845 7.99878
C 6.41164 8.31801 9.02444
H 9.48357 7.29965 5.6269
H 8.5333 5.63918 5.67182
H 8.64577 8.45597 7.05754
H 6.14991 6.74392 7.69436
H 6.99437 9.16397 9.47096
H 5.38889 8.06827 9.3691
10
 Atoms. Timestep: 1420
C 8.70799 6.69339 5.9656
C 8.11276 7.48279 6.9765
C 6.81858 7.51296 8.00084
C 6.39711 8.30779 9.05733
H 9.56272 7.0974 5.46556
H 8.29401 5.65877 5.81628
H 8.63621 8.4189 7.04653
H 6.12659 6.71259 7.68082
H 6.85727 9.20642 9.42747
H 5.42853 8.14433 9.45069
10
 Atoms. Timestep: 1440
C 8.66978 6.6816 6.01714
C 8.15828 7.53367 7.0045
C 6.83212 7.51253 7.93347
C 6.38709 8.30319 9.02876
H 9.54212 6.81309 5.35924
H 8.2199 5.75949 5.75878
H 8.63043 8.48291 7.14872
H 6.13215 6.67659 7.78358
H 6.87172 9.21093 9.38541
H 5.44405 8.0911 9.54998
10
 Atoms. Timestep: 1460
C 8.62565 6.63979 6.04042
C 8.14026 7.57104 7.01466
C 6.8732 7.527 7.93374
C 6.36564 8.3244 8.97714
H 9.575 6.83802 5.45968
H 8.00445 5.76701 5.7849
H 8.76125 8.51925 7.25871
H 6.29514 6.63008 7.72731
H 6.96826 9.1987 9.32207
H 5.49145 7.89351 9.54056
10
 Atoms. Timestep: 1480
C 8.60582 6.63391 6.02466
C 8.1288 7.56235 7.01038
C 6.92781 7.54352 7.94239
C 6.33531 8.34655 8.97498
H 9.55243 6.87241 5.6171
H 7.9059 5.79113 5.83284
H 8.85866 8.32868 7.21282
H 6.40953 6.60461 7.6785
H 6.87238 9.20856 9.32757
H 5.53868 7.89664 9.50573
10
 Atoms. Timestep: 1500
C 8.58102 6.64698 5.99949
C 8.17484 7.52222 7.00719
C 6.93547 7.55897 7.95376
C 6.33197 8.35386 8.99705
H 9.54485 6.74964 5.59037
H 8.06508 5.75699 5.69068
H 8.89373 8.28698 7.19072
H 6.33453 6.64631 7.81692
H 6.69075 9.29969 9.36367
H 5.45527 7.98823 9.49171
10
 Atoms. Timestep: 1520
C 8.59608 6.6265 5.96198
C 8.19909 7.47095 7.01295
C 6.88673 7.58076 8.01807
C 6.36016 8.36633 9.00209
H 9.63467 6.75355 5.46843
H 8.09914 5.72001 5.56211
H 8.88163 8.3687 7.24893
H 6.27941 6.69923 7.91068
H 6.62032 9.40845 9.3403
H 5.35647 8.00282 9.38797
10
 Atoms. Timestep: 1540
C 8.61566 6.63245 5.9962
C 8.19321 7.42813 7.00554
C 6.89004 7.54031 8.03165
C 6.36543 8.41779 8.98026
H 9.53349 6.92091 5.46832
H 8.03763 5.79957 5.5718
H 8.8129 8.27472 7.25688
H 6.25375 6.65553 7.86661
H 6.69598 9.40199 9.31233
H 5.40428 8.05519 9.33116
10
 Atoms. Timestep: 1560
C 8.62263 6.62719 5.99732
C 8.12816 7.44993 7.08553
C 6.93299 7.48439 7.98751
C 6.36046 8.43806 8.93075
H 9.45351 7.01265 5.50955
H 8.02159 5.81737 5.60951
H 8.83949 8.23049 7.24984
H 6.25066 6.63447 7.83336
H 6.84906 9.32978 9.26714
H 5.44429 8.19783 9.413
10
 Atoms. Timestep: 1580
C 8.59432 6.63897 6.0152
C 8.12988 7.44537 7.09674
C 6.88378 7.49586 7.99115
C 6.37607 8.41517 8.90097
H 9.51601 6.99749 5.50517
H 8.07939 5.76115 5.62062
H 8.82496 8.31727 7.33286
H 6.28179 6.61705 7.81287
H 7.06994 9.26725 9.12698
H 5.44759 8.28761 9.46617
10
 Atoms. Timestep: 1600
C 8.62542 6.63845 5.9962
C 8.16296 7.43561 7.04421
C 6.80309 7.49416 7.9879
C 6.39547 8.451 8.9727
H 9.63167 6.89053 5.51723
H 8.13008 5.71616 5.65193
H 8.74885 8.30514 7.34755
H 6.20465 6.56915 7.8023
H 7.07704 9.2967 9.0723
H 5.4101 8.32706 9.49168
10
 Atoms. Timestep: 1620
C 8.67485 6.62672 6.00298
C 8.11055 7.44246 7.02023
C 6.78069 7.50886 7.98814
C 6.44005 8.42207 8.9608
H 9.61006 6.81006 5.61395
H 8.172 5.73994 5.66854
H 8.77243 8.25008 7.24732
H 6.08433 6.66921 7.83643
H 6.91599 9.35083 9.18853
H 5.53231 8.39922 9.50141
10
 Atoms. Timestep: 1640
C 8.66903 6.5789 6.03129
C 8.05593 7.43586 6.9992
C 6.83832 7.53857 7.95396
C 6.42532 8.4444 8.97568
H 9.67849 6.87585 5.701
H 8.1791 5.6828 5.60903
H 8.76292 8.27609 7.21005
H 6.07854 6.7889 7.83316
H 6.99979 9.38624 9.2642
H 5.4936 8.22377 9.51083
10
 Atoms. Timestep: 1660
C 8.59994 6.54825 6.08903
C 8.06828 7.43106 6.98905
C 6.86849 7.61137 7.94456
C 6.42811 8.45451 8.95188
H 9.63756 6.92525 5.75459
H 8.23948 5.64173 5.59397
H 8.70016 8.3038 7.19409
H 6.18084 6.75807 7.73417
H 7.05234 9.25718 9.32572
H 5.52472 8.06284 9.43929
10
 Atoms. Timestep: 1680
C 8.62165 6.50861 6.04817
C 8.09831 7.48363 7.03423
C 6.84925 7.6176 7.91076
C 6.41083 8.46088 8.97315
H 9.56206 6.81344 5.66035
H 8.19458 5.57443 5.71012
H 8.81063 8.29035 7.09336
H 6.21736 6.74077 7.70068
H 6.97313 9.22274 9.4471
H 5.48602 8.15397 9.47949
10
 Atoms. Timestep: 1700
C 8.61332 6.55428 6.07324
C 8.17969 7.4596 6.98518
C 6.84315 7.60661 7.91735
C 6.39204 8.41545 8.97964
H 9.50128 6.66775 5.52388
H 8.08015 5.60319 5.931
H 8.86365 8.31934 7.10984
H 6.12422 6.84007 7.71382
H 6.94468 9.27609 9.43714
H 5.44086 8.29795 9.44088
10
 Atoms. Timestep: 1720
C 8.60721 6.51788 6.05902
C 8.20959 7.49084 6.99383
C 6.86553 7.59776 7.96321
C 6.3879 8.41906 8.99532
H 9.56521 6.58167 5.34973
H 7.92934 5.63051 6.04922
H 8.81248 8.39235 7.20118
H 6.07088 6.89532 7.60962
H 6.99239 9.30174 9.31543
H 5.33235 8.26517 9.29553
10
 Atoms. Timestep: 1740
C 8.56355 6.5036 6.0908
C 8.18495 7.51767 7.04845
C 6.91137 7.58331 7.95287
C 6.42044 8.43561 8.94426
H 9.39948 6.5473 5.45253
H 7.93775 5.66549 5.93474
H 8.82325 8.39774 7.18187
H 6.19177 6.85165 7.54164
H 6.92292 9.25864 9.35785
H 5.36696 8.25806 9.20211
10
 Atoms. Timestep: 1760
C 8.55614 6.49422 6.08464
C 8.16842 7.45499 7.05939
C 6.96577 7.59527 7.89423
C 6.36613 8.49997 8.95853
H 9.44667 6.6652 5.56753
H 7.87794 5.65077 5.82895
H 8.87927 8.29276 7.10891
H 6.2923 6.78848 7.66976
H 6.92877 9.28253 9.4695
H 5.36031 8.27364 9.26354
10
 Atoms. Timestep: 1780
C 8.55433 6.49477 6.06699
C 8.19861 7.38647 7.01401
C 6.89024 7.67685 7.97758
C 6.36969 8.49756 8.90591
H 9.58621 6.72638 5.62479
H 7.91279 5.63224 5.72478
H 8.95394 8.16452 7.15466
H 6.24792 6.78503 7.83507
H 6.93363 9.32514 9.43319
H 5.41233 8.25275 9.32955
10
 Atoms. Timestep: 1800
C 8.57614 6.47858 6.02084
C 8.18415 7.40006 7.02881
C 6.84283 7.62622 7.9903
C 6.39962 8.56186 8.93667
H 9.62008 6.55108 5.58584
H 8.10616 5.63702 5.57437
H 9.00097 8.08179 7.31523
H 6.0806 6.82687 7.86615
H 6.86992 9.4896 9.26198
H 5.42982 8.23327 9.42568
10
 Atoms. Timestep: 1820
C 8.58833 6.518 6.04744
C 8.13752 7.36161 7.04264
C 6.83709 7.58405 7.96698
C 6.45986 8.56171 8.91571
H 9.54868 6.55024 5.71358
H 8.05611 5.71792 5.54375
H 8.88403 8.0407 7.45326
H 6.11508 6.82241 7.80082
H 6.83355 9.53535 9.08097
H 5.54978 8.4011 9.46001
10
 Atoms. Timestep: 1840
C 8.59971 6.50244 6.03725
C 8.07657 7.34128 7.11403
C 6.85053 7.58908 7.93461
C 6.46439 8.55387 8.88752
H 9.70577 6.71323 5.84479
H 7.7943 5.81519 5.57326
H 8.84983 8.03526 7.44265
H 6.18135 6.71366 7.81413
H 7.07952 9.53763 8.92559
H 5.56606 8.48506 9.44814
10
 Atoms. Timestep: 1860
C 8.54814 6.51358 6.08757
C 8.12614 7.345 7.11822
C 6.81972 7.55514 7.93161
C 6.46215 8.60081 8.84347
H 9.61357 6.67117 5.76487
H 7.96368 5.84767 5.50124
H 8.92721 8.04538 7.42526
H 6.10204 6.68482 7.93807
H 7.25671 9.34931 8.95176
H 5.52392 8.53443 9.42258
10
 Atoms. Timestep: 1880
C 8.59793 6.45699 6.02585
C 8.15404 7.34748 7.10037
C 6.78623 7.56947 8.0098
C 6.4402 8.64143 8.8442
H 9.54942 6.59042 5.63311
H 8.03581 5.74078 5.49499
H 8.92097 8.02567 7.47629
H 6.09473 6.76458 7.85577
H 7.17371 9.32549 9.12701
H 5.47899 8.68082 9.42052
10
 Atoms. Timestep: 1900
C 8.60077 6.47694 6.04352
C 8.15083 7.28057 7.05443
C 6.81173 7.61377 8.03376
C 6.44123 8.62075 8.86927
H 9.6165 6.60367 5.61002
H 7.95088 5.60385 5.6191
H 8.89801 7.98019 7.41268
H 6.0554 6.88 7.70896
H 7.1009 9.48346 9.25737
H 5.47496 8.7167 9.27498
10
 Atoms. Timestep: 1920
C 8.53456 6.44859 6.07294
C 8.14724 7.28747 7.09746
C 6.86878 7.62942 7.9416
C 6.48038 8.61301 8.91432
H 9.59575 6.63054 5.69924
H 7.9982 5.5713 5.68688
H 8.95342 8.02903 7.28227
H 5.94484 7.02275 7.69998
H 7.05722 9.51641 9.26555
H 5.38883 8.57901 9.09719
10
 Atoms. Timestep: 1940
C 8.50949 6.37268 6.09496
C 8.13213 7.35361 7.14625
C 6.8958 7.70504 7.89359
C 6.49981 8.58274 8.89315
H 9.47808 6.56752 5.74732
H 7.96886 5.58462 5.71679
H 8.93326 8.08939 7.26585
H 6.07918 7.07151 7.62745
H 7.04728 9.35469 9.28087
H 5.39403 8.46785 9.08312
10
 Atoms. Timestep: 1960
C 8.53325 6.35909 6.16368
C 8.17591 7.35605 7.0456
C 6.888 7.72937 7.86884
C 6.43074 8.61331 8.91034
H 9.50341 6.41629 5.68415
H 7.78894 5.55434 5.77194
H 8.93292 8.07543 7.31702
H 6.15557 7.02477 7.48078
H 7.1364 9.30136 9.42395
H 5.43929 8.50087 9.28044
10
 Atoms. Timestep: 1980
C 8.54423 6.34635 6.17681
C 8.21999 7.39743 7.00642
C 6.8386 7.72589 7.86065
C 6.42229 8.61013 8.89217
H 9.54087 6.198 5.67478
H 7.72635 5.62208 5.92541
H 9.08613 8.05251 7.28486
H 6.00319 7.05772 7.48013
H 7.15232 9.26035 9.5154
H 5.46449 8.55054 9.39214
10
 Atoms. Timestep: 2000
C 8.52195 6.3283 6.15084
C 8.23442 7.41878 7.04418
C 6.81199 7.7464 7.85266
C 6.47543 8.58306 8.89666
H 9.5079 6.08999 5.79547
H 7.7763 5.64371 5.99448
H 9.05839 8.11085 7.26567
H 5.96394 7.17368 7.53348
H 7.14272 9.22587 9.37113
H 5.41201 8.51668 9.26273
10
 Atoms. Timestep: 2020
C 8.51346 6.3465 6.15644
C 8.1798 7.35728 7.06397
C 6.87905 7.75689 7.82131
C 6.48085 8.60283 8.93942
H 9.53867 6.15483 5.86938
H 7.72863 5.52309 5.93185
H 8.89265 8.13238 7.30004
H 6.04522 7.17255 7.4456
H 7.18673 9.31424 9.33663
H 5.41312 8.54191 9.11864
10
 Atoms. Timestep: 2040
C 8.50719 6.32034 6.17652
C 8.11028 7.3266 7.0864
C 6.90649 7.75328 7.85594
C 6.49782 8.61224 8.87788
H 9.54639 6.35643 5.84728
H 7.80843 5.51839 5.78969
H 8.97537 8.02297 7.28566
H 6.06666 7.1568 7.39281
H 7.12029 9.41091 9.46008
H 5.47626 8.67974 9.13306
10
 Atoms. Timestep: 2060
C 8.51854 6.27988 6.15439
C 8.16176 7.2919 7.08443
C 6.84385 7.72738 7.89977
C 6.48635 8.70555 8.85823
H 9.52332 6.47977 5.75676
H 7.95917 5.55778 5.68344
H 9.05197 7.8745 7.30711
H 5.95326 7.22329 7.55959
H 7.16768 9.31902 9.45366
H 5.40557 8.73741 9.14749
10
 Atoms. Timestep: 2080
C 8.53686 6.32628 6.13688
C 8.18863 7.22082 7.10795
C 6.7874 7.74107 7.93837
C 6.50158 8.73842 8.82928
H 9.53221 6.401 5.70756
H 7.9437 5.53655 5.61615
H 8.97845 7.873 7.40723
H 5.92482 7.17685 7.63305
H 7.21586 9.28367 9.33473
H 5.44214 8.78937 9.11538
10
 Atoms. Timestep: 2100
C 8.55136 6.35273 6.09598
C 8.13152 7.21054 7.17738
C 6.80145 7.70973 7.90567
C 6.5169 8.72098 8.81283
H 9.59462 6.30528 5.7759
H 7.80302 5.5871 5.6638
H 8.95286 7.90911 7.52868
H 5.94949 7.04958 7.56869
H 7.30432 9.4834 9.25153
H 5.51234 8.92171 9.14924
10
 Atoms. Timestep: 2120
C 8.49548 6.37217 6.14688
C 8.11507 7.24546 7.17525