LAMMPS (2 Aug 2023 - Update 2)
#13 Butadiene
units           metal
boundary        p p p
atom_style      atomic

neighbor        2.0 bin
neigh_modify    delay 0 every 1 check yes

read_data       restart.lmp
Reading data file ...
  orthogonal box = (0 0 0) to (15 15 15)
  1 by 2 by 2 MPI processor grid
  reading atoms ...
  10 atoms
  reading velocities ...
  10 velocities
  read_data CPU = 0.009 seconds
mass            1 12.0
mass            2 2

variable        sysvol          equal vol
variable        sysmass         equal mass(all)/6.0221367e+23
variable        sysdensity      equal v_sysmass/v_sysvol/1.0e-24
variable	out_freq 	equal 100

pair_style      deepmd ../files/frozen_model_1_compressed.pb ../files/frozen_model_2_compressed.pb ../files/frozen_model_3_compressed.pb ../files/frozen_model_3_compressed.pb out_file md.out out_freq 10 atomic relative 1.0
Summary of lammps deepmd module ...
  >>> Info of deepmd-kit:
  installed to:       /rs1/researchers/w/wjpfaend/rahul/MLP/DeePMD-kit/deepmd_cpu
  source:             v2.2.8-dirty
  source branch:      master
  source commit:      b875ea8
  source commit at:   2024-01-22 22:28:58 -0500
  support model ver.: 1.1 
  build variant:      cpu
  build with tf inc:  /rs1/researchers/w/wjpfaend/rahul/MLP/DeePMD-kit/tensorflow/lib/python3.11/site-packages/tensorflow/include;/rs1/researchers/w/wjpfaend/rahul/MLP/DeePMD-kit/tensorflow/lib/python3.11/site-packages/tensorflow/include
  build with tf lib:  /rs1/researchers/w/wjpfaend/rahul/MLP/DeePMD-kit/tensorflow/lib/python3.11/site-packages/tensorflow/libtensorflow_cc.so.2
  set tf intra_op_parallelism_threads: 0
  set tf inter_op_parallelism_threads: 0
  >>> Info of lammps module:
  use deepmd-kit at:  /rs1/researchers/w/wjpfaend/rahul/MLP/DeePMD-kit/deepmd_cpu
  source:             v2.2.8-dirty
  source branch:      master
  source commit:      b875ea8
  source commit at:   2024-01-22 22:28:58 -0500
  build float prec:   double
  build with tf inc:  /rs1/researchers/w/wjpfaend/rahul/MLP/DeePMD-kit/tensorflow/lib/python3.11/site-packages/tensorflow/include;/rs1/researchers/w/wjpfaend/rahul/MLP/DeePMD-kit/tensorflow/lib/python3.11/site-packages/tensorflow/include
  build with tf lib:  /rs1/researchers/w/wjpfaend/rahul/MLP/DeePMD-kit/tensorflow/lib/python3.11/site-packages/tensorflow/libtensorflow_cc.so.2
pair_coeff	* *

#
velocity        all create 300.0 2345678 rot no dist gaussian
fix             1 all nvt temp 300.0 300.0 0.05
fix             2 all plumed plumedfile plumed.dat outfile PLUMED.log

timestep        0.0005
thermo_style    custom step pe ke etotal v_sysdensity temp press vol
thermo          10

dump            10 all custom 100 btd.dump id type x y z
dump		101 all xyz 20 btd.xyz
dump_modify	101 element C H

fix		extra all print 20 "$(step), $(ke), $(pe), $(etotal), $(temp), $(press), $(vol)" file logfile screen no

restart	        20000 dump.restart

run             50000

CITE-CITE-CITE-CITE-CITE-CITE-CITE-CITE-CITE-CITE-CITE-CITE-CITE

Your simulation uses code contributions which should be cited:

- USER-DEEPMD package:

@article{Wang_ComputPhysCommun_2018_v228_p178,
  author = {Wang, Han and Zhang, Linfeng and Han, Jiequn and E, Weinan},
  doi = {10.1016/j.cpc.2018.03.016},
  url = {https://doi.org/10.1016/j.cpc.2018.03.016},
  year = 2018,
  month = {jul},
  publisher = {Elsevier {BV}},
  volume = 228,
  journal = {Comput. Phys. Commun.},
  title = {{DeePMD-kit: A deep learning package for many-body potential energy representation and molecular dynamics}},
  pages = {178--184}
}
@misc{Zeng_JChemPhys_2023_v159_p054801,
  title  = {{DeePMD-kit v2: A software package for deep potential models}},
  author =   {Jinzhe Zeng and Duo Zhang and Denghui Lu and Pinghui Mo and Zeyu Li
         and Yixiao Chen and Mari{\'a}n Rynik and Li'ang Huang and Ziyao Li and 
         Shaochen Shi and Yingze Wang and Haotian Ye and Ping Tuo and Jiabin
         Yang and Ye Ding and Yifan Li and Davide Tisi and Qiyu Zeng and Han 
         Bao and Yu Xia and Jiameng Huang and Koki Muraoka and Yibo Wang and 
         Junhan Chang and Fengbo Yuan and Sigbj{\o}rn L{\o}land Bore and Chun
         Cai and Yinnian Lin and Bo Wang and Jiayan Xu and Jia-Xin Zhu and 
         Chenxing Luo and Yuzhi Zhang and Rhys E A Goodall and Wenshuo Liang
         and Anurag Kumar Singh and Sikai Yao and Jingchao Zhang and Renata
         Wentzcovitch and Jiequn Han and Jie Liu and Weile Jia and Darrin M
         York and Weinan E and Roberto Car and Linfeng Zhang and Han Wang},
  journal =  {J. Chem. Phys.},
  volume =   159,
  issue =    5,  
  year =    2023,
  pages  =   054801,
  doi =      {10.1063/5.0155600},
}

CITE-CITE-CITE-CITE-CITE-CITE-CITE-CITE-CITE-CITE-CITE-CITE-CITE

Generated 0 of 1 mixed pair_coeff terms from geometric mixing rule
Neighbor list info ...
  update: every = 1 steps, delay = 0 steps, check = yes
  max neighbors/atom: 2000, page size: 100000
  master list distance cutoff = 8
  ghost atom cutoff = 8
  binsize = 4, bins = 4 4 4
  1 neighbor lists, perpetual/occasional/extra = 1 0 0
  (1) pair deepmd, perpetual
      attributes: full, newton on
      pair build: full/bin/atomonly
      stencil: full/bin/3d
      bin: standard
Per MPI rank memory allocation (min/avg/max) = 3.09 | 3.09 | 3.09 Mbytes
   Step         PotEng         KinEng         TotEng      v_sysdensity       Temp          Press          Volume    
         0  -56.387888      0.34900239    -56.038885      0.029520714    300            4258.7744      3375         
        10  -55.441969      0.67122808    -54.770741      0.029520714    576.98293      2519.1599      3375         
        20  -55.60466       0.72028432    -54.884376      0.029520714    619.15134     -1846.3176      3375         
        30  -55.535007      0.60948137    -54.925526      0.029520714    523.9059      -2521.2158      3375         
        40  -55.551634      0.59978816    -54.951846      0.029520714    515.57368      720.81273      3375         
        50  -55.567832      0.58883658    -54.978995      0.029520714    506.15978      1105.0134      3375         
        60  -55.386392      0.36574575    -55.020646      0.029520714    314.39247     -2707.0242      3375         
        70  -55.549501      0.49933466    -55.050166      0.029520714    429.22456     -2761.0062      3375         
        80  -55.696238      0.55861109    -55.137627      0.029520714    480.17816      2369.0029      3375         
        90  -55.549205      0.43203129    -55.117174      0.029520714    371.37105      2706.1493      3375         
       100  -55.664347      0.5325575     -55.131789      0.029520714    457.78268     -266.86828      3375         
       110  -55.785308      0.57165588    -55.213652      0.029520714    491.39137     -1217.8496      3375         
       120  -55.709762      0.44037154    -55.26939       0.029520714    378.54028      324.08801      3375         
       130  -55.517676      0.28500115    -55.232675      0.029520714    244.98498      1280.5366      3375         
       140  -55.705804      0.43134245    -55.274462      0.029520714    370.77894     -676.08424      3375         
       150  -55.585149      0.29500181    -55.290147      0.029520714    253.58148     -2421.3122      3375         
       160  -55.762142      0.44828337    -55.313859      0.029520714    385.34123     -49.779623      3375         
       170  -55.839573      0.49310531    -55.346467      0.029520714    423.86985      2469.0153      3375         
       180  -55.756705      0.46017062    -55.296535      0.029520714    395.55943      535.39875      3375         
       190  -55.549317      0.20912187    -55.340195      0.029520714    179.75969     -1115.6412      3375         
       200  -55.705078      0.32862447    -55.376453      0.029520714    282.48328     -73.012931      3375         
       210  -55.663042      0.30835525    -55.354687      0.029520714    265.06         1523.7225      3375         
       220  -55.757941      0.40322136    -55.35472       0.029520714    346.60625     -138.00073      3375         
       230  -55.670379      0.29132978    -55.379049      0.029520714    250.42503     -2868.5506      3375         
       240  -55.83884       0.44051179    -55.398328      0.029520714    378.66083     -1215.2909      3375         
       250  -55.787767      0.37091152    -55.416856      0.029520714    318.83294      2135.7123      3375         
       260  -55.824607      0.42061876    -55.403989      0.029520714    361.56093      989.49466      3375         
       270  -55.61818       0.2234132     -55.394767      0.029520714    192.04441     -1132.9237      3375         
       280  -55.689912      0.25068852    -55.439223      0.029520714    215.49009      272.43834      3375         
       290  -55.840697      0.38777112    -55.452926      0.029520714    333.32533      1950.3982      3375         
       300  -55.784159      0.40535997    -55.378799      0.029520714    348.44458      1237.6598      3375         
       310  -55.784881      0.3455457     -55.439335      0.029520714    297.02866     -1530.223       3375         
       320  -55.74245       0.29177531    -55.450675      0.029520714    250.808       -2287.2189      3375         
       330  -55.676745      0.21857024    -55.458174      0.029520714    187.88144      264.64912      3375         
       340  -55.75062       0.29342473    -55.457195      0.029520714    252.22583      885.83668      3375         
       350  -55.864141      0.40505552    -55.459086      0.029520714    348.18288     -1371.143       3375         
       360  -55.786802      0.31956392    -55.467238      0.029520714    274.6949      -987.62685      3375         
       370  -55.807181      0.30545334    -55.501728      0.029520714    262.56554      1768.0012      3375         
       380  -55.778453      0.31046765    -55.467985      0.029520714    266.87581      1957.6424      3375         
       390  -55.808618      0.3631883     -55.44543       0.029520714    312.19411      141.62954      3375         
       400  -55.688139      0.20937531    -55.478764      0.029520714    179.97754     -1166.3016      3375         
       410  -55.748442      0.25781785    -55.490624      0.029520714    221.61841     -813.48172      3375         
       420  -55.74362       0.2706373     -55.472983      0.029520714    232.63792      594.145        3375         
       430  -55.758014      0.28837294    -55.469641      0.029520714    247.88335     -51.0836        3375         
       440  -55.83096       0.35658207    -55.474378      0.029520714    306.51544     -1765.1667      3375         
       450  -55.907892      0.42067562    -55.487217      0.029520714    361.6098       163.74619      3375         
       460  -55.674545      0.18351817    -55.491027      0.029520714    157.75093      2378.8379      3375         
       470  -55.661883      0.22475052    -55.437132      0.029520714    193.19397      981.94679      3375         
       480  -55.832199      0.38558093    -55.446618      0.029520714    331.44265     -1097.1442      3375         
       490  -55.849601      0.39449976    -55.455102      0.029520714    339.10922     -1224.87        3375         
       500  -55.749053      0.30634663    -55.442706      0.029520714    263.33341      304.34363      3375         
       510  -55.825159      0.41089074    -55.414269      0.029520714    353.19879      390.24508      3375         
       520  -55.751728      0.33837305    -55.413355      0.029520714    290.8631      -1768.1863      3375         
       530  -55.683854      0.26167129    -55.422183      0.029520714    224.9308      -1025.3397      3375         
       540  -55.743908      0.34300567    -55.400902      0.029520714    294.84526      2450.5592      3375         
       550  -55.731483      0.39458312    -55.3369        0.029520714    339.18087      1764.4492      3375         
       560  -55.581795      0.2647173     -55.317078      0.029520714    227.54913     -858.75226      3375         
       570  -55.737545      0.42370059    -55.313845      0.029520714    364.21005     -517.02405      3375         
       580  -55.845684      0.54616696    -55.299517      0.029520714    469.48127      631.54917      3375         
       590  -55.654015      0.41864844    -55.235367      0.029520714    359.86725      569.67652      3375         
       600  -55.60002       0.37006938    -55.229951      0.029520714    318.10903     -1544.3115      3375         
       610  -55.676453      0.46340831    -55.213045      0.029520714    398.34252     -2352.0011      3375         
       620  -55.77196       0.5608382     -55.211122      0.029520714    482.09257      572.25622      3375         
       630  -55.627134      0.4568148     -55.170319      0.029520714    392.67479      1872.0213      3375         
       640  -55.555173      0.38615782    -55.169015      0.029520714    331.93854     -566.15157      3375         
       650  -55.610161      0.44219977    -55.167961      0.029520714    380.11181     -464.64309      3375         
       660  -55.55729       0.39214815    -55.165142      0.029520714    337.08779      1941.3599      3375         
       670  -55.516396      0.37346788    -55.142929      0.029520714    321.03036      1152.6144      3375         
       680  -55.66418       0.54388873    -55.120291      0.029520714    467.52292     -749.72794      3375         
       690  -55.498857      0.34943236    -55.149425      0.029520714    300.3696      -1762.3355      3375         
       700  -55.561779      0.39060214    -55.171177      0.029520714    335.75885     -1158.3497      3375         
       710  -55.726951      0.57563014    -55.151321      0.029520714    494.80762      751.9119       3375         
       720  -55.717465      0.55779706    -55.159668      0.029520714    479.47843      449.79107      3375         
       730  -55.559319      0.36677797    -55.192541      0.029520714    315.27976     -1490.0221      3375         
       740  -55.730026      0.52170938    -55.208316      0.029520714    448.45771      1063.01        3375         
       750  -55.708765      0.48198903    -55.226776      0.029520714    414.31438      2993.8682      3375         
       760  -55.696536      0.46508014    -55.231456      0.029520714    399.77962     -370.82408      3375         
       770  -55.760475      0.47577282    -55.284702      0.029520714    408.97097     -1944.4273      3375         
       780  -55.736606      0.40479013    -55.331816      0.029520714    347.95475     -896.53303      3375         
       790  -55.515168      0.15035137    -55.364817      0.029520714    129.24098      393.62382      3375         
       800  -55.726659      0.38165029    -55.345008      0.029520714    328.0639       501.79748      3375         
       810  -55.750503      0.3540486     -55.396455      0.029520714    304.33769     -1213.244       3375         
       820  -55.693401      0.25309572    -55.440306      0.029520714    217.5593      -693.986        3375         
       830  -55.728682      0.29801433    -55.430668      0.029520714    256.17102      2798.6591      3375         
       840  -55.857891      0.43152207    -55.426369      0.029520714    370.93333      1711.6356      3375         
       850  -55.77686       0.34047853    -55.436381      0.029520714    292.67295     -1895.1105      3375         
       860  -55.813946      0.34397797    -55.469968      0.029520714    295.68104     -1068.8148      3375         
       870  -55.836493      0.3390528     -55.49744       0.029520714    291.4474       895.84224      3375         
       880  -55.761805      0.29573113    -55.466073      0.029520714    254.2084      -97.218559      3375         
       890  -55.707004      0.22002708    -55.486976      0.029520714    189.13373     -1668.2067      3375         
       900  -55.880729      0.36861057    -55.512119      0.029520714    316.85506     -1240.8573      3375         
       910  -55.860209      0.35056632    -55.509642      0.029520714    301.34434      1260.3183      3375         
       920  -55.712341      0.23511522    -55.477226      0.029520714    202.10339      2281.8145      3375         
       930  -55.716529      0.22753491    -55.488995      0.029520714    195.58741     -515.59428      3375         
       940  -55.7657        0.27335176    -55.492348      0.029520714    234.97125     -970.39784      3375         
       950  -55.785049      0.28411814    -55.500931      0.029520714    244.22595      1568.6531      3375         
       960  -55.768577      0.29980087    -55.468776      0.029520714    257.70672      769.01893      3375         
       970  -55.769927      0.30736597    -55.462561      0.029520714    264.20963     -1860.7166      3375         
       980  -55.726356      0.25134953    -55.475007      0.029520714    216.05829     -1563.5382      3375         
       990  -55.874454      0.38012458    -55.49433       0.029520714    326.75242      348.86693      3375         
      1000  -55.874592      0.42839762    -55.446195      0.029520714    368.24758      1107.0917      3375         
      1010  -55.717269      0.26075706    -55.456512      0.029520714    224.14494      162.25771      3375         
      1020  -55.656356      0.19451207    -55.461844      0.029520714    167.20121     -678.94944      3375         
      1030  -55.878434      0.44105251    -55.437382      0.029520714    379.12564      1066.54        3375         
      1040  -55.86453       0.43547836    -55.429051      0.029520714    374.33413      1300.2802      3375         
      1050  -55.696966      0.28314932    -55.413817      0.029520714    243.39317     -1415.4071      3375         
      1060  -55.72          0.30065108    -55.419349      0.029520714    258.43755     -1753.302       3375         
      1070  -55.739176      0.29328719    -55.445888      0.029520714    252.10761      360.93715      3375         
      1080  -55.617726      0.21857263    -55.399154      0.029520714    187.8835       777.11761      3375         
      1090  -55.837279      0.47479936    -55.362479      0.029520714    408.13419     -35.589455      3375         
      1100  -55.788007      0.40499134    -55.383016      0.029520714    348.1277      -597.75449      3375         
      1110  -55.701479      0.32133802    -55.380141      0.029520714    276.2199       907.41422      3375         
      1120  -55.722934      0.39263552    -55.330298      0.029520714    337.50673      2527.2811      3375         
      1130  -55.804276      0.48012045    -55.324156      0.029520714    412.70816     -378.27207      3375         
      1140  -55.552761      0.23277134    -55.31999       0.029520714    200.08861     -2841.3835      3375         
      1150  -55.696051      0.38036867    -55.315682      0.029520714    326.96223     -600.70857      3375         
      1160  -55.642797      0.33248066    -55.310317      0.029520714    285.79803      1336.3711      3375         
      1170  -55.758879      0.49073641    -55.268142      0.029520714    421.83356     -791.05264      3375         
      1180  -55.685405      0.41945856    -55.265946      0.029520714    360.56363     -2027.1547      3375         
      1190  -55.874066      0.55602414    -55.318042      0.029520714    477.95444      596.06932      3375         
      1200  -55.557054      0.31309613    -55.243958      0.029520714    269.13523      3491.3852      3375         
      1210  -55.574043      0.41827936    -55.155764      0.029520714    359.55         1950.828       3375         
      1220  -55.630571      0.43477698    -55.195794      0.029520714    373.73124     -2443.3442      3375         
      1230  -55.73125       0.53199204    -55.199257      0.029520714    457.29661     -1600.4817      3375         
      1240  -55.563953      0.37769027    -55.186262      0.029520714    324.6599       1780.6665      3375         
      1250  -55.693764      0.53637773    -55.157386      0.029520714    461.06652      150.80677      3375         
      1260  -55.48669       0.33484252    -55.151848      0.029520714    287.82828     -3031.5298      3375         
      1270  -55.615712      0.46340338    -55.152309      0.029520714    398.33829     -1369.346       3375         
      1280  -55.668065      0.48348985    -55.184575      0.029520714    415.60447      2527.1932      3375         
      1290  -55.601222      0.53420776    -55.067014      0.029520714    459.20123      2477.9438      3375         
      1300  -55.606947      0.5119502     -55.094997      0.029520714    440.06879     -1019.5679      3375         
      1310  -55.695986      0.57426277    -55.121723      0.029520714    493.63223     -1962.3223      3375         
      1320  -55.63895       0.51677819    -55.122171      0.029520714    444.21889      1778.8906      3375         
      1330  -55.503487      0.44488651    -55.058601      0.029520714    382.42132      2032.5171      3375         
      1340  -55.547006      0.45898767    -55.088018      0.029520714    394.54257     -2244.9599      3375         
      1350  -55.549652      0.43907468    -55.110577      0.029520714    377.42551     -2767.421       3375         
      1360  -55.771355      0.62095562    -55.1504        0.029520714    533.76909      796.85722      3375         
      1370  -55.680286      0.51129476    -55.168991      0.029520714    439.50538      1922.0775      3375         
      1380  -55.591681      0.44033479    -55.151346      0.029520714    378.50868      194.23935      3375         
      1390  -55.453411      0.24757365    -55.205838      0.029520714    212.81256     -985.79401      3375         
      1400  -55.701548      0.44565271    -55.255896      0.029520714    383.07994      632.07353      3375         
      1410  -55.656449      0.42603397    -55.230415      0.029520714    366.2158       2075.0931      3375         
      1420  -55.755655      0.46666299    -55.288992      0.029520714    401.14023     -1277.1047      3375         
      1430  -55.67371       0.34446758    -55.329242      0.029520714    296.10191     -2972.3105      3375         
      1440  -55.809683      0.43760122    -55.372082      0.029520714    376.15893      2.2645359      3375         
      1450  -55.758488      0.36063788    -55.39785       0.029520714    310.00179      1837.8494      3375         
      1460  -55.769762      0.38794138    -55.38182       0.029520714    333.47168      23.288481      3375         
      1470  -55.690445      0.2743881     -55.416057      0.029520714    235.86208     -833.44575      3375         
      1480  -55.787501      0.31474598    -55.472755      0.029520714    270.55343      833.05169      3375         
      1490  -55.691158      0.23788188    -55.453276      0.029520714    204.48159      2163.1872      3375         
      1500  -55.861234      0.4381672     -55.423067      0.029520714    376.64544      609.16273      3375         
      1510  -55.802967      0.32522835    -55.477738      0.029520714    279.564       -2539.4893      3375         
      1520  -55.700488      0.20973678    -55.490751      0.029520714    180.28826     -1552.5961      3375         
      1530  -55.718963      0.22893667    -55.490026      0.029520714    196.79235      1272.4137      3375         
      1540  -55.900121      0.40121814    -55.498903      0.029520714    344.88429      100.50037      3375         
      1550  -55.781618      0.2836087     -55.498009      0.029520714    243.78804     -1998.3374      3375         
      1560  -55.837281      0.31550368    -55.521778      0.029520714    271.20474      277.1196       3375         
      1570  -55.844959      0.2876586     -55.5573        0.029520714    247.26931      2345.1041      3375         
      1580  -55.764702      0.31162714    -55.453075      0.029520714    267.8725       1326.9069      3375         
      1590  -55.735401      0.23811749    -55.497284      0.029520714    204.68412     -846.16598      3375         
      1600  -55.805308      0.28135015    -55.523958      0.029520714    241.84661     -1472.1717      3375         
      1610  -55.827757      0.31784051    -55.509917      0.029520714    273.21347      280.20118      3375         
      1620  -55.730499      0.23097904    -55.49952       0.029520714    198.54796      911.79937      3375         
      1630  -55.765632      0.26720778    -55.498424      0.029520714    229.68993     -1322.8001      3375         
      1640  -55.881162      0.38765723    -55.493504      0.029520714    333.22742     -1442.2568      3375         
      1650  -55.822973      0.31532415    -55.507649      0.029520714    271.05042      1382.7438      3375         
      1660  -55.672347      0.18637438    -55.485972      0.029520714    160.2061       1704.088       3375         
      1670  -55.784069      0.33611035    -55.447958      0.029520714    288.91809     -29.722925      3375         
      1680  -55.803503      0.3371088     -55.466394      0.029520714    289.77636     -1024.3683      3375         
      1690  -55.825878      0.35969295    -55.466185      0.029520714    309.18953     -400.0101       3375         
      1700  -55.817302      0.40890431    -55.408397      0.029520714    351.49127      936.77877      3375         
      1710  -55.786478      0.37682104    -55.409657      0.029520714    323.91272     -300.98289      3375         
      1720  -55.602556      0.20310212    -55.399454      0.029520714    174.58515     -1835.0096      3375         
      1730  -55.738068      0.34562382    -55.392444      0.029520714    297.0958      -232.81575      3375         
      1740  -55.772119      0.37199768    -55.400121      0.029520714    319.76659      1893.7474      3375         
      1750  -55.637144      0.33320132    -55.303942      0.029520714    286.41751      994.42306      3375         
      1760  -55.678849      0.39499133    -55.283858      0.029520714    339.53177     -354.31263      3375         
      1770  -55.756669      0.46464047    -55.292029      0.029520714    399.40168     -524.24644      3375         
      1780  -55.642548      0.3871807     -55.255367      0.029520714    332.8178       965.74517      3375         
      1790  -55.716711      0.49831053    -55.2184        0.029520714    428.34423      589.84162      3375         
      1800  -55.694894      0.48517208    -55.209722      0.029520714    417.0505      -2522.0081      3375         
      1810  -55.548872      0.34436011    -55.204512      0.029520714    296.00953     -2046.2467      3375         
      1820  -55.700747      0.5096335     -55.191113      0.029520714    438.07737      1405.1721      3375         
      1830  -55.760051      0.58155943    -55.178492      0.029520714    499.90439      1059.41        3375         
      1840  -55.46473       0.31124376    -55.153486      0.029520714    267.54295     -659.43412      3375         
      1850  -55.602042      0.42040435    -55.181637      0.029520714    361.37662      931.67955      3375         
      1860  -55.695274      0.49315415    -55.20212       0.029520714    423.91183      1667.8257      3375         
      1870  -55.523937      0.40971234    -55.114224      0.029520714    352.18585      626.05352      3375         
      1880  -55.587582      0.42832184    -55.15926       0.029520714    368.18244     -982.93114      3375         
      1890  -55.610333      0.43216425    -55.178169      0.029520714    371.48535     -2282.1617      3375         
      1900  -55.622743      0.43895142    -55.183791      0.029520714    377.31955     -496.3339       3375         
      1910  -55.595485      0.40233295    -55.193152      0.029520714    345.84257      1225.5567      3375         
      1920  -55.789829      0.57996247    -55.209867      0.029520714    498.53166     -830.2564       3375         
      1930  -55.624625      0.4071058     -55.21752       0.029520714    349.94528     -532.78587      3375         
      1940  -55.581849      0.33610172    -55.245747      0.029520714    288.91067      1943.1148      3375         
      1950  -55.783097      0.54325499    -55.239842      0.029520714    466.97816      1203.2675      3375         
      1960  -55.790619      0.5515696     -55.239049      0.029520714    474.12534     -251.79449      3375         
      1970  -55.584212      0.30414666    -55.280065      0.029520714    261.44233     -1156.5806      3375         
      1980  -55.687812      0.37732164    -55.310491      0.029520714    324.34303     -1248.2316      3375         
      1990  -55.642299      0.33637827    -55.305921      0.029520714    289.1484       691.22608      3375         
      2000  -55.595544      0.29617775    -55.299366      0.029520714    254.59231      819.03371      3375         
      2010  -55.650448      0.3422971     -55.308151      0.029520714    294.23618     -1585.1007      3375         
      2020  -55.754915      0.42846377    -55.326451      0.029520714    368.30444     -226.55123      3375         
      2030  -55.723706      0.38088321    -55.342822      0.029520714    327.40452      2219.0027      3375         
      2040  -55.662703      0.35181606    -55.310887      0.029520714    302.41861      851.63368      3375         
      2050  -55.809456      0.49213346    -55.317322      0.029520714    423.03446     -593.49514      3375         
      2060  -55.777804      0.43296802    -55.344836      0.029520714    372.17626     -949.73828      3375         
      2070  -55.593753      0.23903398    -55.354719      0.029520714    205.47193     -67.44883       3375         
      2080  -55.726677      0.38377422    -55.342902      0.029520714    329.88961      472.26538      3375         
      2090  -55.793591      0.4342271     -55.359364      0.029520714    373.25856     -1510.8862      3375         
      2100  -55.70704       0.32876549    -55.378274      0.029520714    282.6045      -1826.9947      3375         
      2110  -55.79548       0.39899727    -55.396483      0.029520714    342.97524      1590.8121      3375         
      2120  -55.757833      0.37795691    -55.379876      0.029520714    324.8891       2048.1732      3375         
      2130  -55.619281      0.25931383    -55.359967      0.029520714    222.90434     -269.70563      3375         
      2140  -55.686077      0.30772109    -55.378356      0.029520714    264.51489      159.25855      3375         
      2150  -55.824099      0.42285269    -55.401246      0.029520714    363.4812       645.03941      3375         
      2160  -55.736622      0.35274939    -55.383873      0.029520714    303.2209      -151.85417      3375         
      2170  -55.649373      0.2548181     -55.394555      0.029520714    219.03985     -1002.6049      3375         
      2180  -55.736046      0.32545041    -55.410595      0.029520714    279.75488     -1895.2382      3375         
      2190  -55.807009      0.38525363    -55.421756      0.029520714    331.16131     -269.32214      3375         
      2200  -55.684085      0.27871768    -55.405367      0.029520714    239.58375      1864.0774      3375         
      2210  -55.782169      0.36066601    -55.421503      0.029520714    310.02596      65.175855      3375         
      2220  -55.766625      0.3410898     -55.425535      0.029520714    293.19839     -447.17557      3375         
      2230  -55.719522      0.29356353    -55.425958      0.029520714    252.34515      1675.6665      3375         
      2240  -55.829457      0.39988127    -55.429576      0.029520714    343.73513      262.27099      3375         
      2250  -55.763211      0.34780731    -55.415404      0.029520714    298.97272     -1299.0483      3375         
      2260  -55.619463      0.18223445    -55.437229      0.029520714    156.64745     -846.88237      3375         
      2270  -55.761231      0.29560857    -55.465623      0.029520714    254.10305     -524.05163      3375         
      2280  -55.81472       0.37171251    -55.443007      0.029520714    319.52146      586.89004      3375         
      2290  -55.781254      0.34079722    -55.440457      0.029520714    292.94689      1023.4445      3375         
      2300  -55.764672      0.29992226    -55.46475       0.029520714    257.81107     -591.52817      3375         
      2310  -55.855433      0.40716154    -55.448272      0.029520714    349.99319      442.30516      3375         
      2320  -55.700065      0.2430492     -55.457016      0.029520714    208.92338      1791.2705      3375         
      2330  -55.670816      0.2129411     -55.457875      0.029520714    183.04267     -571.5699       3375         
      2340  -55.812532      0.34684982    -55.465683      0.029520714    298.14966     -2030.2296      3375         
      2350  -55.763805      0.28690061    -55.476904      0.029520714    246.61774     -643.66641      3375         
      2360  -55.691481      0.19871018    -55.492771      0.029520714    170.80988      393.74964      3375         
      2370  -55.948585      0.49764006    -55.450944      0.029520714    427.76789      119.4645       3375         
      2380  -55.842749      0.36107655    -55.481673      0.029520714    310.37886     -750.77838      3375         
      2390  -55.72727       0.21271406    -55.514556      0.029520714    182.84751     -71.072532      3375         
      2400  -55.78148       0.30845619    -55.473023      0.029520714    265.14677      2701.0902      3375         
      2410  -55.843104      0.38165844    -55.461445      0.029520714    328.07091      1603.496       3375         
      2420  -55.716788      0.26037472    -55.456414      0.029520714    223.81628     -1933.8037      3375         
      2430  -55.823636      0.34979693    -55.473839      0.029520714    300.68298     -1198.9235      3375         
      2440  -55.788853      0.30027509    -55.488578      0.029520714    258.11435      961.17945      3375         
      2450  -55.726249      0.27177017    -55.454479      0.029520714    233.61172     -137.83258      3375         
      2460  -55.725544      0.2587666     -55.466778      0.029520714    222.43395     -1971.9616      3375         
      2470  -55.871352      0.39004099    -55.481311      0.029520714    335.27649     -1088.5695      3375         
      2480  -55.722263      0.24116726    -55.481096      0.029520714    207.30568      1780.2447      3375         
      2490  -55.691637      0.28209089    -55.409546      0.029520714    242.48334      2641.6512      3375         
      2500  -55.85481       0.43131341    -55.423497      0.029520714    370.75397     -1098.052       3375         
      2510  -55.791439      0.36854404    -55.422895      0.029520714    316.79787     -1644.3933      3375         
      2520  -55.699798      0.28352298    -55.416275      0.029520714    243.71436      1758.7031      3375         
      2530  -55.731864      0.34173183    -55.390132      0.029520714    293.75028      803.54715      3375         
      2540  -55.695631      0.33662139    -55.359009      0.029520714    289.35738     -2248.2716      3375         
      2550  -55.711197      0.34344353    -55.367753      0.029520714    295.22164     -1942.9704      3375         
      2560  -55.937847      0.53788092    -55.399966      0.029520714    462.35865      854.95328      3375         
      2570  -55.659253      0.36572767    -55.293525      0.029520714    314.37693      2730.5042      3375         
      2580  -55.606399      0.31101869    -55.29538       0.029520714    267.34948      801.19206      3375         
      2590  -55.581101      0.27092122    -55.31018       0.029520714    232.88197     -1805.4804      3375         
      2600  -55.829213      0.53674171    -55.292472      0.029520714    461.3794       542.00047      3375         
      2610  -55.653027      0.3903472     -55.26268       0.029520714    335.5397       1955.3197      3375         
      2620  -55.585245      0.34103754    -55.244207      0.029520714    293.15347     -1813.9552      3375         
      2630  -55.615405      0.3677432     -55.247662      0.029520714    316.10947     -3744.9236      3375         
      2640  -55.799455      0.55166036    -55.247795      0.029520714    474.20336     -71.616757      3375         
      2650  -55.667159      0.41326855    -55.25389       0.029520714    355.24274      2431.1623      3375         
      2660  -55.779206      0.61473942    -55.164466      0.029520714    528.42568      1108.5322      3375         
      2670  -55.423953      0.223903      -55.20005       0.029520714    192.46544     -388.91793      3375         
      2680  -55.672475      0.44611167    -55.226364      0.029520714    383.47446     -6.7664762      3375         
      2690  -55.701209      0.52487658    -55.176333      0.029520714    451.18022      2344.2686      3375         
      2700  -55.678737      0.51142111    -55.167315      0.029520714    439.61399      808.92351      3375         
      2710  -55.581364      0.3848124     -55.196552      0.029520714    330.78203     -3476.4139      3375         
      2720  -55.654795      0.45292888    -55.201866      0.029520714    389.33448     -2545.1134      3375         
      2730  -55.566192      0.33230623    -55.233886      0.029520714    285.6481       2006.6546      3375         
      2740  -55.740189      0.54185782    -55.198332      0.029520714    465.77717      1029.7064      3375         
      2750  -55.70838       0.47940397    -55.228976      0.029520714    412.09228     -2016.8533      3375         
      2760  -55.642624      0.36766885    -55.274956      0.029520714    316.04556     -303.05831      3375         
      2770  -55.665083      0.33055875    -55.334525      0.029520714    284.14597      2753.5004      3375         
      2780  -55.712867      0.48155674    -55.23131       0.029520714    413.94278      2419.1078      3375         
      2790  -55.773705      0.45052833    -55.323177      0.029520714    387.27099     -1772.5426      3375         
      2800  -55.615345      0.24607155    -55.369274      0.029520714    211.52137     -2679.9621      3375         
      2810  -55.721068      0.31898545    -55.402082      0.029520714    274.19765      841.62905      3375         
      2820  -55.732578      0.32396912    -55.408609      0.029520714    278.48157      1650.2882      3375         
      2830  -55.784196      0.35602655    -55.42817       0.029520714    306.03791     -1742.3805      3375         
      2840  -55.776291      0.30808674    -55.468204      0.029520714    264.82919     -2174.8705      3375         
      2850  -55.904741      0.35883546    -55.545905      0.029520714    308.45244      1739.3907      3375         
      2860  -55.652616      0.17674658    -55.47587       0.029520714    151.93012      3232.9356      3375         
      2870  -55.841799      0.36421546    -55.477584      0.029520714    313.07704      20.134154      3375         
      2880  -55.787034      0.26247121    -55.524563      0.029520714    225.61841     -2605.5628      3375         
      2890  -55.906335      0.35627663    -55.550058      0.029520714    306.25288     -269.45836      3375         
      2900  -55.749572      0.2173465     -55.532226      0.029520714    186.82953      1590.2523      3375         
      2910  -55.852547      0.31533782    -55.537209      0.029520714    271.06217     -940.70999      3375         
      2920  -55.750804      0.20695959    -55.543844      0.029520714    177.90101     -2665.4102      3375         
      2930  -55.89949       0.32965572    -55.569834      0.029520714    283.36974      130.31429      3375         
      2940  -55.778747      0.18671591    -55.592031      0.029520714    160.49968      3140.0069      3375         
      2950  -55.743466      0.26246905    -55.480997      0.029520714    225.61655      1784.2136      3375         
      2960  -55.759723      0.23188667    -55.527837      0.029520714    199.32815     -1318.2447      3375         
      2970  -55.931836      0.37905065    -55.552785      0.029520714    325.82927     -1329.1371      3375         
      2980  -55.790147      0.26405102    -55.526096      0.029520714    226.9764       1222.6503      3375         
      2990  -55.783778      0.27789799    -55.50588       0.029520714    238.87915      549.74309      3375         
      3000  -55.793805      0.27938935    -55.514416      0.029520714    240.16112     -2644.1344      3375         
      3010  -55.809376      0.29682042    -55.512556      0.029520714    255.14475     -1866.5448      3375         
      3020  -55.806777      0.27599948    -55.530777      0.029520714    237.24721      1863.4614      3375         
      3030  -55.818874      0.32278821    -55.496086      0.029520714    277.46648      1917.7365      3375         
      3040  -55.740285      0.29237627    -55.447909      0.029520714    251.32458     -249.98645      3375         
      3050  -55.74692       0.26596411    -55.480956      0.029520714    228.62088     -910.66979      3375         
      3060  -55.865511      0.37253396    -55.492977      0.029520714    320.22757      707.80474      3375         
      3070  -55.699913      0.29005492    -55.409858      0.029520714    249.32917      1717.7389      3375         
      3080  -55.705944      0.2728161     -55.433128      0.029520714    234.5108      -1137.9612      3375         
      3090  -55.612217      0.17750202    -55.434715      0.029520714    152.57949     -2735.1862      3375         
      3100  -55.868058      0.44018475    -55.427873      0.029520714    378.37971      143.5          3375         
      3110  -55.821074      0.40598697    -55.415087      0.029520714    348.98354      2000.5232      3375         
      3120  -55.756956      0.4054207     -55.351535      0.029520714    348.49678     -101.32385      3375         
      3130  -55.603211      0.24036672    -55.362845      0.029520714    206.61754     -971.46701      3375         
      3140  -55.839825      0.45175819    -55.388067      0.029520714    388.32816      630.56878      3375         
      3150  -55.731636      0.39008887    -55.341547      0.029520714    335.31765      2142.0383      3375         
      3160  -55.766206      0.45879262    -55.307413      0.029520714    394.37491      181.41704      3375         
      3170  -55.622478      0.29409268    -55.328385      0.029520714    252.8         -3162.8632      3375         
      3180  -55.731467      0.39432725    -55.33714       0.029520714    338.96093     -1261.8128      3375         
      3190  -55.570587      0.24905924    -55.321527      0.029520714    214.08957      1972.6833      3375         
      3200  -55.758578      0.44775895    -55.31082       0.029520714    384.89044      256.94225      3375         
      3210  -55.638142      0.33796417    -55.300178      0.029520714    290.51163     -1889.897       3375         
      3220  -55.640663      0.30913683    -55.331527      0.029520714    265.73184      813.91336      3375         
      3230  -55.707427      0.36253333    -55.344893      0.029520714    311.6311       2959.8561      3375         
      3240  -55.804561      0.58611025    -55.218451      0.029520714    503.81625      1324.5952      3375         
      3250  -55.741036      0.44110518    -55.299931      0.029520714    379.17091     -1945.9893      3375         
      3260  -55.679974      0.37780601    -55.302168      0.029520714    324.75938     -2356.7564      3375         
      3270  -55.612015      0.30302468    -55.30899       0.029520714    260.47788      769.62728      3375         
      3280  -55.642272      0.34027701    -55.301995      0.029520714    292.49972      744.30547      3375         
      3290  -55.716846      0.40574908    -55.311097      0.029520714    348.77906     -2401.5599      3375         
      3300  -55.82033       0.50100219    -55.319328      0.029520714    430.65795     -1069.4432      3375         
      3310  -55.764496      0.41218504    -55.352311      0.029520714    354.31136      2645.4145      3375         
      3320  -55.619803      0.3076771     -55.312126      0.029520714    264.47707      1807.1868      3375         
      3330  -55.673263      0.3787526     -55.294511      0.029520714    325.57307     -157.75022      3375         
      3340  -55.705783      0.36966629    -55.336117      0.029520714    317.76254     -510.08473      3375         
      3350  -55.705229      0.35649859    -55.34873       0.029520714    306.44368     -467.05126      3375         
      3360  -55.637755      0.32157502    -55.31618       0.029520714    276.42363      537.36095      3375         
      3370  -55.668445      0.33559725    -55.332848      0.029520714    288.47704     -481.73729      3375         
      3380  -55.705762      0.36172845    -55.344034      0.029520714    310.93923     -2244.9024      3375         
      3390  -55.819392      0.46205099    -55.357341      0.029520714    397.17578      255.33614      3375         
      3400  -55.688909      0.31738555    -55.371523      0.029520714    272.82239      2250.3625      3375         
      3410  -55.600991      0.26673932    -55.334252      0.029520714    229.28724      456.7777       3375         
      3420  -55.784085      0.44033729    -55.343748      0.029520714    378.51084     -447.54874      3375         
      3430  -55.803044      0.43486932    -55.368175      0.029520714    373.81061     -330.16484      3375         
      3440  -55.668875      0.30498822    -55.363887      0.029520714    262.16573      109.89841      3375         
      3450  -55.83363       0.46890126    -55.364729      0.029520714    403.06422     -55.113447      3375         
      3460  -55.712402      0.33082573    -55.381576      0.029520714    284.37547     -1569.7674      3375         
      3470  -55.646593      0.24788533    -55.398708      0.029520714    213.08049     -1086.5149      3375         
      3480  -55.859187      0.46154178    -55.397646      0.029520714    396.73807      1985.1663      3375         
      3490  -55.815492      0.44246426    -55.373028      0.029520714    380.33917      1235.032       3375         
      3500  -55.55611       0.17766065    -55.378449      0.029520714    152.71585     -874.64414      3375         
      3510  -55.839229      0.43775813    -55.401471      0.029520714    376.29381      562.14018      3375         
      3520  -55.891051      0.47946837    -55.411583      0.029520714    412.14763      1137.8261      3375         
      3530  -55.606899      0.22280566    -55.384094      0.029520714    191.52218     -321.29864      3375         
      3540  -55.622873      0.21667531    -55.406198      0.029520714    186.25257     -1291.2894      3375         
      3550  -55.85591       0.43892278    -55.416987      0.029520714    377.29493     -1551.7621      3375         
      3560  -55.729698      0.30770075    -55.421997      0.029520714    264.4974       69.684868      3375         
      3570  -55.704368      0.28868384    -55.415684      0.029520714    248.1506       864.12243      3375         
      3580  -55.89255       0.45713522    -55.435415      0.029520714    392.95022     -909.97096      3375         
      3590  -55.803019      0.35490064    -55.448118      0.029520714    305.07009      215.32465      3375         
      3600  -55.643668      0.21382266    -55.429845      0.029520714    183.80046      2725.7425      3375         
      3610  -55.768552      0.352499      -55.416053      0.029520714    303.00566      576.95009      3375         
      3620  -55.822356      0.39422995    -55.428126      0.029520714    338.87729     -1202.7784      3375         
      3630  -55.661543      0.2123487     -55.449194      0.029520714    182.53345     -621.34579      3375         
      3640  -55.702982      0.23459244    -55.468389      0.029520714    201.65401     -711.92228      3375         
      3650  -55.876095      0.41991392    -55.456181      0.029520714    360.95505     -359.77838      3375         
      3660  -55.758771      0.29047879    -55.468292      0.029520714    249.69353      30.552129      3375         
      3670  -55.697788      0.2077004     -55.490088      0.029520714    178.5378      -685.11727      3375         
      3680  -55.834076      0.3474168     -55.486659      0.029520714    298.63704      961.97632      3375         
      3690  -55.808104      0.31544365    -55.49266       0.029520714    271.15314      2007.7032      3375         
      3700  -55.78329       0.28571622    -55.497573      0.029520714    245.59965     -511.91031      3375         
      3710  -55.882868      0.37694911    -55.505919      0.029520714    324.02281     -957.59584      3375         
      3720  -55.845762      0.31412855    -55.531634      0.029520714    270.02269     -44.164256      3375         
      3730  -55.715779      0.17941461    -55.536365      0.029520714    154.22354     -334.63154      3375         
      3740  -55.839521      0.31369699    -55.525824      0.029520714    269.65172     -164.35403      3375         
      3750  -55.875961      0.32134473    -55.554616      0.029520714    276.22567     -404.49573      3375         
      3760  -55.805032      0.22436673    -55.580665      0.029520714    192.86406     -296.80388      3375         
      3770  -55.799215      0.24402482    -55.55519       0.029520714    209.76202      1802.608       3375         
      3780  -55.820367      0.25846548    -55.561901      0.029520714    222.17511      1157.6775      3375         
      3790  -55.782955      0.22568557    -55.557269      0.029520714    193.99773     -1370.608       3375         
      3800  -55.866278      0.29728224    -55.568996      0.029520714    255.54172     -310.78739      3375         
      3810  -55.831346      0.24753657    -55.583809      0.029520714    212.7807       700.95223      3375         
      3820  -55.771469      0.20543289    -55.566036      0.029520714    176.58867     -880.7051       3375         
      3830  -55.823201      0.25092676    -55.572274      0.029520714    215.69488     -1390.7837      3375         
      3840  -55.964637      0.36284877    -55.601788      0.029520714    311.90225     -279.31529      3375         
      3850  -55.845438      0.27657427    -55.568864      0.029520714    237.7413       911.47985      3375         
      3860  -55.765835      0.22702132    -55.538814      0.029520714    195.14593      1489.1415      3375         
      3870  -55.766819      0.2067396     -55.560079      0.029520714    177.71191     -192.96651      3375         
      3880  -55.814488      0.27102059    -55.543467      0.029520714    232.96739     -349.23341      3375         
      3890  -55.802128      0.27226435    -55.529863      0.029520714    234.03652      1439.3381      3375         
      3900  -55.803955      0.291599      -55.512356      0.029520714    250.65644      83.381645      3375         
      3910  -55.779036      0.29291513    -55.48612       0.029520714    251.78778     -2098.0308      3375         
      3920  -55.779486      0.29594217    -55.483544      0.029520714    254.38981     -1060.5212      3375         
      3930  -55.78533       0.30080095    -55.484529      0.029520714    258.56638      689.12134      3375         
      3940  -55.835184      0.41917257    -55.416012      0.029520714    360.3178       386.89238      3375         
      3950  -55.719751      0.30138748    -55.418363      0.029520714    259.07055     -123.6158       3375         
      3960  -55.660067      0.23032787    -55.429739      0.029520714    197.98822      78.260482      3375         
      3970  -55.836363      0.48332813    -55.353035      0.029520714    415.46546      1608.872       3375         
      3980  -55.815103      0.47547358    -55.339629      0.029520714    408.71374      1046.6802      3375         
      3990  -55.563843      0.24117317    -55.322669      0.029520714    207.31076     -1733.4935      3375         
      4000  -55.700565      0.38405294    -55.316512      0.029520714    330.12921     -1742.7867      3375         
      4010  -55.683927      0.3553156     -55.328611      0.029520714    305.42679      344.89784      3375         
      4020  -55.557649      0.25968676    -55.297962      0.029520714    223.22491      618.17471      3375         
      4030  -55.800396      0.54943008    -55.250966      0.029520714    472.28623     -457.62148      3375         
      4040  -55.755908      0.47424436    -55.281663      0.029520714    407.65712     -582.46636      3375         
      4050  -55.571837      0.28094444    -55.290893      0.029520714    241.49787      1238.2752      3375         
      4060  -55.629677      0.41008666    -55.219591      0.029520714    352.5076       2880.35        3375         
      4070  -55.88999       0.64844167    -55.241549      0.029520714    557.3959      -312.07465      3375         
      4080  -55.548476      0.30359409    -55.244882      0.029520714    260.96734     -2957.081       3375         
      4090  -55.690243      0.43706867    -55.253175      0.029520714    375.70116     -666.7193       3375         
      4100  -55.742897      0.47036177    -55.272535      0.029520714    404.31966      1382.0211      3375         
      4110  -55.66471       0.43162411    -55.233086      0.029520714    371.02105     -614.57274      3375         
      4120  -55.605753      0.34402971    -55.261723      0.029520714    295.72552     -2048.5763      3375         
      4130  -55.840993      0.51217453    -55.328818      0.029520714    440.26162      313.71529      3375         
      4140  -55.496826      0.21159604    -55.28523       0.029520714    181.88646      3049.4274      3375         
      4150  -55.611269      0.38989461    -55.221375      0.029520714    335.15066      2122.3095      3375         
      4160  -55.721305      0.44061557    -55.28069       0.029520714    378.75005     -2135.161       3375         
      4170  -55.741456      0.44129815    -55.300158      0.029520714    379.33678     -1832.3713      3375         
      4180  -55.702809      0.38460459    -55.318204      0.029520714    330.6034       1807.3972      3375         
      4190  -55.72468       0.40926338    -55.315416      0.029520714    351.79993      489.22356      3375         
      4200  -55.643396      0.31565966    -55.327736      0.029520714    271.33882     -2637.1552      3375         
      4210  -55.798033      0.44576434    -55.352269      0.029520714    383.17589     -1552.9944      3375         
      4220  -55.837145      0.41629901    -55.420846      0.029520714    357.8477       1676.3147      3375         
      4230  -55.644919      0.30296277    -55.341957      0.029520714    260.42466      2415.1051      3375         
      4240  -55.693093      0.30844377    -55.384649      0.029520714    265.13609     -354.18719      3375         
      4250  -55.825104      0.39380528    -55.431299      0.029520714    338.51225     -1772.4502      3375         
      4260  -55.825489      0.37204013    -55.453448      0.029520714    319.80308      1344.8589      3375         
      4270  -55.630027      0.20047839    -55.429549      0.029520714    172.32982      1689.3712      3375         
      4280  -55.709044      0.25774511    -55.451299      0.029520714    221.55589     -1947.3132      3375         
      4290  -55.735718      0.25844478    -55.477273      0.029520714    222.15732     -2284.5992      3375         
      4300  -55.838959      0.3238401     -55.515119      0.029520714    278.37067      499.2311       3375         
      4310  -55.831725      0.3126423     -55.519082      0.029520714    268.74512      1491.9073      3375         
      4320  -55.864138      0.36268826    -55.501449      0.029520714    311.76428      504.48666      3375         
      4330  -55.718051      0.17498993    -55.543061      0.029520714    150.42012     -666.34011      3375         
      4340  -55.889472      0.31428154    -55.57519       0.029520714    270.1542       401.9302       3375         
      4350  -55.86813       0.31726336    -55.550867      0.029520714    272.71735      2131.4891      3375         
      4360  -55.900783      0.31779181    -55.582991      0.029520714    273.1716      -769.80289      3375         
      4370  -55.720159      0.11367932    -55.60648       0.029520714    97.717946     -3040.3031      3375         
      4380  -55.85735       0.22569369    -55.631656      0.029520714    194.00471     -437.23526      3375         
      4390  -55.862471      0.21259197    -55.649879      0.029520714    182.74256      1507.953       3375         
      4400  -55.893416      0.26468044    -55.628736      0.029520714    227.51744      54.037626      3375         
      4410  -55.807091      0.15220014    -55.654891      0.029520714    130.83017     -600.6646       3375         
      4420  -55.909838      0.21117316    -55.698665      0.029520714    181.52296      551.33336      3375         
      4430  -55.844548      0.15147771    -55.69307       0.029520714    130.20917      1936.3529      3375         
      4440  -55.919206      0.25250899    -55.666697      0.029520714    217.05495      899.70284      3375         
      4450  -55.914917      0.19697663    -55.71794       0.029520714    169.31972     -2227.373       3375         
      4460  -55.916525      0.17534021    -55.741185      0.029520714    150.72121     -1686.4726      3375         
      4470  -55.869527      0.1176817     -55.751846      0.029520714    101.15836      1278.2522      3375         
      4480  -55.940407      0.1877307     -55.752676      0.029520714    161.37199      481.91538      3375         
      4490  -55.938054      0.17378122    -55.764272      0.029520714    149.38111     -1510.3186      3375         
      4500  -55.963119      0.16944736    -55.793671      0.029520714    145.65576      7.0906243      3375         
      4510  -55.949151      0.12672675    -55.822424      0.029520714    108.93343      1672.0581      3375         
      4520  -55.915768      0.15682457    -55.758944      0.029520714    134.8053       1180.9221      3375         
      4530  -55.934733      0.14750539    -55.787228      0.029520714    126.7946      -849.75289      3375         
      4540  -55.943184      0.13081031    -55.812374      0.029520714    112.44362     -1713.0098      3375         
      4550  -55.961268      0.1455764     -55.815691      0.029520714    125.13645      508.96035      3375         
      4560  -55.912948      0.11184154    -55.801107      0.029520714    96.138202      1241.6957      3375         
      4570  -55.935683      0.13693684    -55.798746      0.029520714    117.70994     -1250.6838      3375         
      4580  -55.965611      0.16182438    -55.803787      0.029520714    139.1031      -1196.7871      3375         
      4590  -55.985002      0.16505326    -55.819949      0.029520714    141.87862      1360.8154      3375         
      4600  -55.875766      0.096009455   -55.779756      0.029520714    82.529052      1561.7645      3375         
      4610  -55.956339      0.21051896    -55.74582       0.029520714    180.96062     -144.6518       3375         
      4620  -55.919129      0.16316461    -55.755964      0.029520714    140.25515     -1342.8752      3375         
      4630  -55.911945      0.16626428    -55.745681      0.029520714    142.9196      -282.89872      3375         
      4640  -55.848128      0.15830366    -55.689824      0.029520714    136.07671      1294.2695      3375         
      4650  -55.938826      0.26425055    -55.674576      0.029520714    227.14792     -634.28221      3375         
      4660  -55.81782       0.15999179    -55.657828      0.029520714    137.52782     -2462.4622      3375         
      4670  -55.961664      0.30779009    -55.653874      0.029520714    264.5742       292.90538      3375         
      4680  -55.887702      0.23164507    -55.656057      0.029520714    199.12048      2572.4629      3375         
      4690  -55.770984      0.20661652    -55.564368      0.029520714    177.60611      782.89246      3375         
      4700  -55.798844      0.21603148    -55.582812      0.029520714    185.69914     -734.35202      3375         
      4710  -55.937107      0.33499841    -55.602108      0.029520714    287.96228     -451.20087      3375         
      4720  -55.748549      0.18759945    -55.560949      0.029520714    161.25916      907.08528      3375         
      4730  -55.793519      0.24630444    -55.547215      0.029520714    211.72156      168.95243      3375         
      4740  -55.769562      0.22204558    -55.547516      0.029520714    190.86882     -2462.6752      3375         
      4750  -55.81266       0.26985083    -55.542809      0.029520714    231.96188     -1666.2079      3375         
      4760  -55.818341      0.27963417    -55.538707      0.029520714    240.37157      2113.1978      3375         
      4770  -55.857465      0.36390838    -55.493556      0.029520714    312.81308      1471.7889      3375         
      4780  -55.743198      0.28652099    -55.456677      0.029520714    246.29143     -915.74516      3375         
      4790  -55.783139      0.30616327    -55.476975      0.029520714    263.17579      112.12421      3375         
      4800  -55.861528      0.38791158    -55.473616      0.029520714    333.44607      1237.2174      3375         
      4810  -55.77869       0.40017301    -55.378517      0.029520714    343.9859       500.75538      3375         
      4820  -55.668799      0.26650866    -55.40229       0.029520714    229.08897     -1473.0436      3375         
      4830  -55.670645      0.26828478    -55.40236       0.029520714    230.61571     -2119.6922      3375         
      4840  -55.79121       0.41078805    -55.380422      0.029520714    353.11051      476.07129      3375         
      4850  -55.741422      0.37443511    -55.366987      0.029520714    321.86178      1983.0281      3375         
      4860  -55.659746      0.33391885    -55.325827      0.029520714    287.03429     -592.48109      3375         
      4870  -55.631254      0.31093698    -55.320317      0.029520714    267.27924     -598.4163       3375         
      4880  -55.697347      0.35572226    -55.341624      0.029520714    305.77636      1604.7735      3375         
      4890  -55.592516      0.3267912     -55.265725      0.029520714    280.90742      1180.2319      3375         
      4900  -55.743476      0.47704401    -55.266432      0.029520714    410.06367     -1051.914       3375         
      4910  -55.685995      0.42657647    -55.259418      0.029520714    366.68213     -2287.7802      3375         
      4920  -55.699445      0.43401846    -55.265426      0.029520714    373.07921     -636.78409      3375         
      4930  -55.673289      0.43487953    -55.238409      0.029520714    373.81938      1470.793       3375         
      4940  -55.786869      0.55337809    -55.23349       0.029520714    475.67991      261.23304      3375         
      4950  -55.626051      0.41239326    -55.213657      0.029520714    354.49034     -1355.8696      3375         
      4960  -55.626295      0.39088668    -55.235409      0.029520714    336.00344      889.94195      3375         
      4970  -55.613009      0.36506549    -55.247943      0.029520714    313.80773      2255.6833      3375         
      4980  -55.602336      0.42417006    -55.178166      0.029520714    364.6136       309.73444      3375         
      4990  -55.648191      0.4277566     -55.220435      0.029520714    367.69656     -1469.56        3375         
      5000  -55.697409      0.45358261    -55.243826      0.029520714    389.89642     -997.14674      3375         
      5010  -55.538467      0.31480662    -55.22366       0.029520714    270.60555      496.77021      3375         
      5020  -55.659328      0.43047293    -55.228855      0.029520714    370.0315       256.51709      3375         
      5030  -55.764085      0.51579049    -55.248295      0.029520714    443.36988     -1841.0955      3375         
      5040  -55.675813      0.41135569    -55.264457      0.029520714    353.59846     -953.41093      3375         
      5050  -55.714566      0.41527736    -55.299289      0.029520714    356.9695       2203.7795      3375         
      5060  -55.760767      0.47461197    -55.286155      0.029520714    407.97311      1626.74        3375         
      5070  -55.605364      0.3325573     -55.272807      0.029520714    285.86392     -444.51672      3375         
      5080  -55.625258      0.30177182    -55.323486      0.029520714    259.40093     -539.52722      3375         
      5090  -55.812111      0.45206752    -55.360044      0.029520714    388.59406      117.54319      3375         
      5100  -55.657946      0.3092311     -55.348715      0.029520714    265.81288      285.96709      3375         
      5110  -55.595094      0.21798222    -55.377112      0.029520714    187.37599     -852.63803      3375         
      5120  -55.778891      0.36668231    -55.412208      0.029520714    315.19753     -1817.1793      3375         
      5130  -55.817113      0.38471964    -55.432393      0.029520714    330.7023       283.40902      3375         
      5140  -55.620893      0.18942911    -55.431464      0.029520714    162.83193      2130.9737      3375         
      5150  -55.707471      0.26891229    -55.438559      0.029520714    231.15511      321.02535      3375         
      5160  -55.831696      0.37855316    -55.453142      0.029520714    325.40164     -498.46375      3375         
      5170  -55.799159      0.31881635    -55.480342      0.029520714    274.05229      470.58052      3375         
      5180  -55.738278      0.24524606    -55.493032      0.029520714    210.81179      197.81566      3375         
      5190  -55.853547      0.36997696    -55.48357       0.029520714    318.02959     -733.15731      3375         
      5200  -55.782185      0.27441289    -55.507772      0.029520714    235.88339     -1386.8146      3375         
      5210  -55.756446      0.22099563    -55.535451      0.029520714    189.96629     -553.10233      3375         
      5220  -55.837302      0.31413972    -55.523162      0.029520714    270.03229      1437.5435      3375         
      5230  -55.834846      0.31612298    -55.518723      0.029520714    271.73709      865.90693      3375         
      5240  -55.695288      0.16101863    -55.53427       0.029520714    138.41048     -790.93701      3375         
      5250  -55.81484       0.28424839    -55.530591      0.029520714    244.33791      406.76079      3375         
      5260  -55.897813      0.3669839     -55.530829      0.029520714    315.45678      1092.8483      3375         
      5270  -55.819265      0.30269285    -55.516572      0.029520714    260.19264     -360.60231      3375         
      5280  -55.774558      0.25449648    -55.520061      0.029520714    218.76338     -1176.6577      3375         
      5290  -55.856413      0.32334888    -55.533065      0.029520714    277.94842     -880.91094      3375         
      5300  -55.826718      0.28165298    -55.545065      0.029520714    242.10692      387.0524       3375         
      5310  -55.799602      0.30171097    -55.497891      0.029520714    259.34862      964.83953      3375         
      5320  -55.791304      0.27659937    -55.514705      0.029520714    237.76288     -725.75655      3375         
      5330  -55.748351      0.22628112    -55.52207       0.029520714    194.50966     -545.18782      3375         
      5340  -55.729636      0.24378118    -55.485855      0.029520714    209.55258      1901.8563      3375         
      5350  -55.814614      0.33571751    -55.478897      0.029520714    288.58041      638.42495      3375         
      5360  -55.772163      0.31701899    -55.455144      0.029520714    272.50729     -1369.6473      3375         
      5370  -55.697053      0.25845301    -55.4386        0.029520714    222.16438     -478.39844      3375         
      5380  -55.769082      0.33125753    -55.437825      0.029520714    284.74664      104.59708      3375         
      5390  -55.75631       0.39090064    -55.365409      0.029520714    336.01544      226.32189      3375         
      5400  -55.726692      0.40550793    -55.321184      0.029520714    348.57177     -397.8807       3375         
      5410  -55.744012      0.44072922    -55.303283      0.029520714    378.84774     -1429.9953      3375         
      5420  -55.743599      0.47201714    -55.271582      0.029520714    405.74261      1158.2309      3375         
      5430  -55.543757      0.35616879    -55.187589      0.029520714    306.16018      3296.5812      3375         
      5440  -55.637812      0.47064447    -55.167167      0.029520714    404.56268     -942.12605      3375         
      5450  -55.678381      0.52999968    -55.148381      0.029520714    455.584       -2113.8255      3375         
      5460  -55.557753      0.41363243    -55.144121      0.029520714    355.55553      570.18285      3375         
      5470  -55.421658      0.27712304    -55.144535      0.029520714    238.21301      467.57712      3375         
      5480  -55.674351      0.56650558    -55.107846      0.029520714    486.96421     -1320.6045      3375         
      5490  -55.525246      0.40197816    -55.123268      0.029520714    345.5376      -1564.5576      3375         
      5500  -55.626365      0.43985586    -55.186509      0.029520714    378.097        89.280719      3375         
      5510  -55.648206      0.56152745    -55.086678      0.029520714    482.68505      3081.1893      3375         
      5520  -55.640198      0.53883807    -55.10136       0.029520714    463.18141      1404.0088      3375         
      5530  -55.498333      0.36041468    -55.137919      0.029520714    309.80992     -2427.8026      3375         
      5540  -55.888714      0.73269175    -55.156022      0.029520714    629.81668     -76.354337      3375         
      5550  -55.663948      0.47898042    -55.184967      0.029520714    411.7282       2072.4725      3375         
      5560  -55.513317      0.34811283    -55.165204      0.029520714    299.23534     -870.92699      3375         
      5570  -55.63475       0.42803548    -55.206715      0.029520714    367.93628     -2523.3766      3375         
      5580  -55.780836      0.54355383    -55.237282      0.029520714    467.23504     -777.04969      3375         
      5590  -55.497672      0.22145748    -55.276215      0.029520714    190.3633       1712.124       3375         
      5600  -55.718857      0.48748787    -55.231369      0.029520714    419.04114      1619.5589      3375         
      5610  -55.737205      0.4461856     -55.29102       0.029520714    383.538       -1044.5398      3375         
      5620  -55.608551      0.28816215    -55.320389      0.029520714    247.70216     -965.03962      3375         
      5630  -55.641952      0.331517      -55.310435      0.029520714    284.96968      2209.5008      3375         
      5640  -55.81752       0.50040755    -55.317112      0.029520714    430.14681      941.92379      3375         
      5650  -55.627023      0.29182316    -55.3352        0.029520714    250.84913     -2413.0255      3375         
      5660  -55.68543       0.32404575    -55.361384      0.029520714    278.54745     -1540.4486      3375         
      5670  -55.891972      0.47064271    -55.42133       0.029520714    404.56116      1037.7223      3375         
      5680  -55.765135      0.40541536    -55.35972       0.029520714    348.49219      981.41793      3375         
      5690  -55.698201      0.30425318    -55.393948      0.029520714    261.53389     -371.266        3375         
      5700  -55.744755      0.31139624    -55.433359      0.029520714    267.67401     -964.60502      3375         
      5710  -55.819105      0.38389668    -55.435209      0.029520714    329.99489      1459.6787      3375         
      5720  -55.768297      0.34751968    -55.420777      0.029520714    298.72547      2127.1812      3375         
      5730  -55.727513      0.28523729    -55.442276      0.029520714    245.18796     -1846.7411      3375         
      5740  -55.704734      0.24780543    -55.456929      0.029520714    213.01181     -2507.3142      3375         
      5750  -55.795593      0.30775852    -55.487835      0.029520714    264.54706      1095.6271      3375         
      5760  -55.757174      0.2988962     -55.458278      0.029520714    256.92907      1347.7651      3375         
      5770  -55.800995      0.35223724    -55.448758      0.029520714    302.78065     -1195.5466      3375         
      5780  -55.748772      0.26584409    -55.482928      0.029520714    228.51771     -1073.5227      3375         
      5790  -55.863347      0.3348154     -55.528531      0.029520714    287.80496      1301.4676      3375         
      5800  -55.715776      0.27031901    -55.445457      0.029520714    232.36432      2718.2143      3375         
      5810  -55.849557      0.39542773    -55.45413       0.029520714    339.90689     -70.940344      3375         
      5820  -55.737219      0.25793443    -55.479285      0.029520714    221.71862     -2834.0584      3375         
      5830  -55.79226       0.30403489    -55.488225      0.029520714    261.34625     -403.70455      3375         
      5840  -55.662817      0.17644673    -55.486371      0.029520714    151.67236      1803.1779      3375         
      5850  -55.86527       0.40028881    -55.464981      0.029520714    344.08545     -1062.7593      3375         
      5860  -55.811669      0.33840175    -55.473268      0.029520714    290.88776     -2436.7542      3375         
      5870  -55.897999      0.38475038    -55.513249      0.029520714    330.72872      706.49317      3375         
      5880  -55.675796      0.19937143    -55.476424      0.029520714    171.37828      2889.9875      3375         
      5890  -55.79154       0.38647682    -55.405063      0.029520714    332.21276      1449.419       3375         
      5900  -55.76363       0.3216847     -55.441945      0.029520714    276.51791     -1734.2475      3375         
      5910  -55.812435      0.36014256    -55.452293      0.029520714    309.57601     -1433.8135      3375         
      5920  -55.692517      0.26254548    -55.429972      0.029520714    225.68225      1569.0275      3375         
      5930  -55.729239      0.33908846    -55.390151      0.029520714    291.47805      600.42566      3375         
      5940  -55.650963      0.27280633    -55.378157      0.029520714    234.5024      -2815.7624      3375         
      5950  -55.785736      0.42309624    -55.36264       0.029520714    363.69055     -1455.7571      3375         
      5960  -55.78711       0.4286972     -55.358413      0.029520714    368.5051       2554.5859      3375         
      5970  -55.620226      0.3711842     -55.249042      0.029520714    319.06733      1997.2046      3375         
      5980  -55.538229      0.31603905    -55.22219       0.029520714    271.66495     -583.63326      3375         
      5990  -55.776432      0.56016424    -55.216268      0.029520714    481.51324     -1506.8626      3375         
      6000  -55.770998      0.59692558    -55.174072      0.029520714    513.11303      748.04007      3375         
      6010  -55.514645      0.41807174    -55.096574      0.029520714    359.37153      1656.2082      3375         
      6020  -55.579356      0.47690897    -55.102447      0.029520714    409.94759     -1934.298       3375         
      6030  -55.535496      0.43857041    -55.096925      0.029520714    376.99204     -2773.696       3375         
      6040  -55.657518      0.55153918    -55.105979      0.029520714    474.0992       1090.5539      3375         
      6050  -55.645034      0.54906284    -55.095971      0.029520714    471.97056      2256.7625      3375         
      6060  -55.56907       0.54032848    -55.028741      0.029520714    464.46256     -123.40508      3375         
      6070  -55.310649      0.23582005    -55.074829      0.029520714    202.70926     -924.10405      3375         
      6080  -55.57547       0.4554575     -55.120012      0.029520714    391.50806      636.70204      3375         
      6090  -55.591344      0.53106337    -55.060281      0.029520714    456.49834      2193.5775      3375         
      6100  -55.671974      0.58453677    -55.087437      0.029520714    502.46369     -545.62083      3375         
      6110  -55.474621      0.35672569    -55.117895      0.029520714    306.63889     -3334.6794      3375         
      6120  -55.719438      0.57606415    -55.143374      0.029520714    495.18069     -914.30827      3375         
      6130  -55.698807      0.5345601     -55.164247      0.029520714    459.5041       2107.9406      3375         
      6140  -55.727555      0.54212736    -55.185428      0.029520714    466.00886     -2.4793521      3375         
      6150  -55.621109      0.41227879    -55.20883       0.029520714    354.39195     -1217.3446      3375         
      6160  -55.678721      0.40794668    -55.270774      0.029520714    350.66809      1112.3822      3375         
      6170  -55.617948      0.31411953    -55.303828      0.029520714    270.01494      2281.5695      3375         
      6180  -55.690288      0.47039496    -55.219893      0.029520714    404.3482       969.20903      3375         
      6190  -55.654286      0.34599892    -55.308287      0.029520714    297.41824     -2033.8959      3375         
      6200  -55.621557      0.28742015    -55.334137      0.029520714    247.06434     -1964.5677      3375         
      6210  -55.733474      0.39713935    -55.336334      0.029520714    341.37819      518.83341      3375         
      6220  -55.70903       0.35466723    -55.354363      0.029520714    304.86945      447.55661      3375         
      6230  -55.680562      0.31620359    -55.364359      0.029520714    271.80638     -1564.8788      3375         
      6240  -55.848269      0.47704563    -55.371224      0.029520714    410.06507     -95.212275      3375         
      6250  -55.783596      0.36560352    -55.417993      0.029520714    314.27021      2097.2054      3375         
      6260  -55.627175      0.25988936    -55.367286      0.029520714    223.39907      1423.8417      3375         
      6270  -55.824453      0.45238129    -55.372072      0.029520714    388.86378     -69.385367      3375         
      6280  -55.828101      0.41280046    -55.415301      0.029520714    354.84037     -1460.2065      3375         
      6290  -55.676601      0.25299583    -55.423605      0.029520714    217.47343     -700.57049      3375         
      6300  -55.697936      0.29204528    -55.405891      0.029520714    251.04007      813.74007      3375         
      6310  -55.814389      0.38502374    -55.429365      0.029520714    330.9637      -429.40856      3375         
      6320  -55.645475      0.2246275     -55.420847      0.029520714    193.08822     -1540.9367      3375         
      6330  -55.744209      0.30976138    -55.434447      0.029520714    266.2687       622.21406      3375         
      6340  -55.844738      0.37607438    -55.468664      0.029520714    323.27089      1531.1814      3375         
      6350  -55.660676      0.26543337    -55.395242      0.029520714    228.16466      539.64971      3375         
      6360  -55.72179       0.3021616     -55.419628      0.029520714    259.73599      6.6915515      3375         
[...]
     48420  -55.779721      0.34733688    -55.432384      0.029520714    298.56834      535.87172      3375         
     48430  -55.870056      0.45354572    -55.416511      0.029520714    389.86471      1288.8799      3375         
     48440  -55.705638      0.33834705    -55.367291      0.029520714    290.84075      129.12897      3375         
     48450  -55.753678      0.3887384     -55.36494       0.029520714    334.15679     -1336.5939      3375         
     48460  -55.676583      0.31233714    -55.364246      0.029520714    268.48281     -649.83544      3375         
     48470  -55.553831      0.21146418    -55.342367      0.029520714    181.77312      385.06139      3375         
     48480  -55.800004      0.47060184    -55.329402      0.029520714    404.52603     -687.68117      3375         
     48490  -55.828088      0.50176969    -55.326318      0.029520714    431.3177      -1082.8151      3375         
     48500  -55.68935       0.36941521    -55.319934      0.029520714    317.54671      479.87525      3375         
     48510  -55.740011      0.43698676    -55.303024      0.029520714    375.63074      1466.7011      3375         
     48520  -55.733045      0.45622795    -55.276817      0.029520714    392.17033      420.29822      3375         
     48530  -55.558148      0.28667587    -55.271472      0.029520714    246.42456     -345.39832      3375         
     48540  -55.716479      0.42789802    -55.288581      0.029520714    367.81813      121.62481      3375         
     48550  -55.714211      0.44040893    -55.273803      0.029520714    378.57241      586.58587      3375         
     48560  -55.577769      0.31894367    -55.258826      0.029520714    274.16174     -214.15595      3375         
     48570  -55.679427      0.40853512    -55.270892      0.029520714    351.17391     -1256.9664      3375         
     48580  -55.759549      0.4816218     -55.277927      0.029520714    413.99871     -591.03462      3375         
     48590  -55.626497      0.35394537    -55.272552      0.029520714    304.24895      1121.8771      3375         
     48600  -55.660149      0.39190236    -55.268247      0.029520714    336.87651      85.768103      3375         
     48610  -55.667238      0.38479956    -55.282438      0.029520714    330.771       -712.63412      3375         
     48620  -55.664332      0.3710561     -55.293276      0.029520714    318.95722      691.45042      3375         
     48630  -55.856816      0.56867848    -55.288138      0.029520714    488.83202      655.26546      3375         
     48640  -55.836852      0.53922597    -55.297626      0.029520714    463.51485     -638.80953      3375         
     48650  -55.599666      0.277563      -55.322103      0.029520714    238.59121     -769.07427      3375         
     48660  -55.616273      0.27548171    -55.340791      0.029520714    236.80214     -241.28452      3375         
     48670  -55.660721      0.304806      -55.355915      0.029520714    262.00909      466.97541      3375         
     48680  -55.733392      0.37372358    -55.359668      0.029520714    321.25016      756.6241       3375         
     48690  -55.760561      0.3823449     -55.378216      0.029520714    328.66099     -70.433022      3375         
     48700  -55.706028      0.29669527    -55.409332      0.029520714    255.03717     -63.341737      3375         
     48710  -55.752849      0.3299222     -55.422926      0.029520714    283.5988       871.766        3375         
     48720  -55.773192      0.32887178    -55.44432       0.029520714    282.69587     -3.1955347      3375         
     48730  -55.764882      0.28902317    -55.475858      0.029520714    248.44228     -997.06902      3375         
     48740  -55.789331      0.28356342    -55.505767      0.029520714    243.74912     -524.05215      3375         
     48750  -55.799599      0.26957854    -55.53002       0.029520714    231.72782     -263.54551      3375         
     48760  -55.844078      0.29357817    -55.5505        0.029520714    252.35773      44.805691      3375         
     48770  -55.876506      0.31528275    -55.561223      0.029520714    271.01483      147.92859      3375         
     48780  -55.917629      0.32983839    -55.58779       0.029520714    283.52676     -271.85855      3375         
     48790  -55.843865      0.22543042    -55.618434      0.029520714    193.77841      683.21925      3375         
     48800  -55.753288      0.15882295    -55.594465      0.029520714    136.52309      1453.0339      3375         
     48810  -55.83988       0.24245739    -55.597423      0.029520714    208.41466     -369.01389      3375         
     48820  -55.817761      0.19854083    -55.61922       0.029520714    170.6643      -1088.336       3375         
     48830  -55.839472      0.22357901    -55.615893      0.029520714    192.18694      66.228158      3375         
     48840  -55.924472      0.31073024    -55.613742      0.029520714    267.10153      165.64362      3375         
     48850  -55.850621      0.23654384    -55.614077      0.029520714    203.33142     -406.40293      3375         
     48860  -55.768974      0.15675074    -55.612223      0.029520714    134.74184     -345.98663      3375         
     48870  -55.878655      0.25613876    -55.622517      0.029520714    220.17508      47.94654       3375         
     48880  -55.871059      0.25899674    -55.612062      0.029520714    222.63178      989.94462      3375         
     48890  -55.870622      0.28757011    -55.583052      0.029520714    247.19324      602.59477      3375         
     48900  -55.865583      0.27441537    -55.591168      0.029520714    235.88552     -1049.6212      3375         
     48910  -55.817105      0.22125312    -55.595851      0.029520714    190.18762     -647.90635      3375         
     48920  -55.773539      0.19165706    -55.581882      0.029520714    164.74706      730.00574      3375         
     48930  -55.832508      0.25746551    -55.575042      0.029520714    221.31554      26.665435      3375         
     48940  -55.830781      0.26859967    -55.562182      0.029520714    230.88639     -603.86471      3375         
     48950  -55.74119       0.18287097    -55.558319      0.029520714    157.1946       56.762491      3375         
     48960  -55.866162      0.30584554    -55.560316      0.029520714    262.90267      521.62012      3375         
     48970  -55.852997      0.32819837    -55.524799      0.029520714    282.11701      731.41678      3375         
     48980  -55.735532      0.22279612    -55.512736      0.029520714    191.51397      257.2606       3375         
     48990  -55.867854      0.35042619    -55.517428      0.029520714    301.22389     -925.67052      3375         
     49000  -55.817891      0.31296085    -55.50493       0.029520714    269.01894      17.828176      3375         
     49010  -55.618284      0.12969052    -55.488594      0.029520714    111.48106      642.68678      3375         
     49020  -55.866331      0.38487763    -55.481453      0.029520714    330.8381      -1181.9102      3375         
     49030  -55.874243      0.40231167    -55.471931      0.029520714    345.82428     -1323.3151      3375         
     49040  -55.721374      0.24545       -55.475924      0.029520714    210.9871       661.6685       3375         
     49050  -55.77345       0.3122531     -55.461197      0.029520714    268.41056      1040.0086      3375         
     49060  -55.738992      0.31816261    -55.42083       0.029520714    273.49034      424.15182      3375         
     49070  -55.607164      0.17591736    -55.431247      0.029520714    151.21732      79.010858      3375         
     49080  -55.79017       0.36239008    -55.42778       0.029520714    311.50797     -23.941214      3375         
     49090  -55.83909       0.44779294    -55.391297      0.029520714    384.91966      673.16589      3375         
     49100  -55.742975      0.35692358    -55.386052      0.029520714    306.809       -18.142508      3375         
     49110  -55.657511      0.27456482    -55.382947      0.029520714    236.01398     -1952.3689      3375         
     49120  -55.82959       0.44518993    -55.3844        0.029520714    382.68213     -719.67254      3375         
     49130  -55.778017      0.39292786    -55.385089      0.029520714    337.75803      1592.1703      3375         
     49140  -55.661502      0.32059504    -55.340907      0.029520714    275.58124      458.89687      3375         
     49150  -55.72426       0.37422729    -55.350032      0.029520714    321.68314     -841.09941      3375         
     49160  -55.670069      0.30259265    -55.367476      0.029520714    260.10651      142.57958      3375         
     49170  -55.688652      0.34334541    -55.345307      0.029520714    295.1373       790.59247      3375         
     49180  -55.829863      0.50281206    -55.327051      0.029520714    432.21371      296.33554      3375         
     49190  -55.594227      0.26326538    -55.330962      0.029520714    226.30107     -954.13913      3375         
     49200  -55.642242      0.30987027    -55.332372      0.029520714    266.3623      -1262.4854      3375         
     49210  -55.77419       0.43135253    -55.342837      0.029520714    370.7876       773.82443      3375         
     49220  -55.691196      0.37937386    -55.311822      0.029520714    326.1071       1340.24        3375         
     49230  -55.759517      0.45988308    -55.299634      0.029520714    395.31226     -906.09127      3375         
     49240  -55.79197       0.46289382    -55.329076      0.029520714    397.90027     -367.74032      3375         
     49250  -55.645192      0.31515403    -55.330038      0.029520714    270.90419      1712.0444      3375         
     49260  -55.70616       0.42110622    -55.285054      0.029520714    361.97994      717.40056      3375         
     49270  -55.738662      0.42520482    -55.313458      0.029520714    365.50307     -1310.061       3375         
     49280  -55.604146      0.28272582    -55.32142       0.029520714    243.02913     -1402.8043      3375         
     49290  -55.696336      0.36715173    -55.329185      0.029520714    315.60104     -253.2413       3375         
     49300  -55.742275      0.40455397    -55.337721      0.029520714    347.75174      800.56971      3375         
     49310  -55.707149      0.38039457    -55.326754      0.029520714    326.9845      -301.02715      3375         
     49320  -55.651663      0.30861258    -55.34305       0.029520714    265.28121     -1136.3871      3375         
     49330  -55.775965      0.39504085    -55.380924      0.029520714    339.57433      1099.8278      3375         
     49340  -55.705409      0.35826849    -55.34714       0.029520714    307.96507      1939.4431      3375         
     49350  -55.698998      0.35015649    -55.348841      0.029520714    300.99205     -48.801313      3375         
     49360  -55.713578      0.32151987    -55.392058      0.029520714    276.37622     -1038.0726      3375         
     49370  -55.755836      0.33421914    -55.421617      0.029520714    287.29242     -168.45221      3375         
     49380  -55.821349      0.38294145    -55.438408      0.029520714    329.17378      296.40209      3375         
     49390  -55.849702      0.38316418    -55.466538      0.029520714    329.36523     -111.3089       3375         
     49400  -55.742123      0.24251866    -55.499604      0.029520714    208.46734     -891.88151      3375         
     49410  -55.805504      0.27346968    -55.532034      0.029520714    235.07262     -583.15205      3375         
     49420  -55.775992      0.21652164    -55.55947       0.029520714    186.12048      1116.049       3375         
     49430  -55.764085      0.2181913     -55.545894      0.029520714    187.5557       1042.018       3375         
     49440  -55.892011      0.32471957    -55.567291      0.029520714    279.12666     -735.92276      3375         
     49450  -55.865524      0.26999192    -55.595532      0.029520714    232.08315     -659.2696       3375         
     49460  -55.780698      0.17738239    -55.603315      0.029520714    152.47665      529.05209      3375         
     49470  -55.864574      0.26452886    -55.600045      0.029520714    227.38715      264.49703      3375         
     49480  -55.867551      0.25908887    -55.608462      0.029520714    222.71097     -769.48129      3375         
     49490  -55.826159      0.20313094    -55.623028      0.029520714    174.60993     -625.15289      3375         
     49500  -55.892281      0.25902497    -55.633256      0.029520714    222.65604      742.78192      3375         
     49510  -55.852493      0.24156353    -55.610929      0.029520714    207.64631      1342.1955      3375         
     49520  -55.819696      0.21633851    -55.603358      0.029520714    185.96306      32.402232      3375         
     49530  -55.853858      0.23933879    -55.614519      0.029520714    205.73394     -917.01195      3375         
     49540  -55.893949      0.27369169    -55.620257      0.029520714    235.26345      55.051576      3375         
     49550  -55.790052      0.18475042    -55.605302      0.029520714    158.81016      411.66791      3375         
     49560  -55.765789      0.16844107    -55.597348      0.029520714    144.79076     -1052.4179      3375         
     49570  -55.86002       0.25777983    -55.60224       0.029520714    221.58573     -1182.3112      3375         
     49580  -55.915651      0.31587223    -55.599779      0.029520714    271.52155      576.4544       3375         
     49590  -55.891834      0.32967552    -55.562158      0.029520714    283.38676      1220.4172      3375         
     49600  -55.773385      0.22599767    -55.547387      0.029520714    194.26601      217.23498      3375         
     49610  -55.680301      0.13922349    -55.541077      0.029520714    119.67553     -57.934731      3375         
     49620  -55.840126      0.31399846    -55.526127      0.029520714    269.91087      265.53742      3375         
     49630  -55.807715      0.30277834    -55.504937      0.029520714    260.26613      413.06508      3375         
     49640  -55.765236      0.30002631    -55.46521       0.029520714    257.90051     -230.81482      3375         
     49650  -55.83272       0.37417641    -55.458544      0.029520714    321.63941     -1292.4283      3375         
     49660  -55.733481      0.27917911    -55.454302      0.029520714    239.9804      -476.37587      3375         
     49670  -55.706687      0.27928239    -55.427405      0.029520714    240.06918      910.61803      3375         
     49680  -55.817509      0.41410565    -55.403403      0.029520714    355.9623       68.381251      3375         
     49690  -55.723874      0.32531025    -55.398564      0.029520714    279.6344      -406.77609      3375         
     49700  -55.664635      0.28529999    -55.379335      0.029520714    245.24187      645.65122      3375         
     49710  -55.798536      0.43441165    -55.364124      0.029520714    373.4172       546.55993      3375         
     49720  -55.859385      0.50277333    -55.356611      0.029520714    432.18042     -446.40124      3375         
     49730  -55.645119      0.29768263    -55.347436      0.029520714    255.88589     -612.53589      3375         
     49740  -55.635387      0.27950033    -55.355887      0.029520714    240.25652     -649.96839      3375         
     49750  -55.73617       0.37631906    -55.359851      0.029520714    323.48122      486.08452      3375         
     49760  -55.658865      0.34408073    -55.314784      0.029520714    295.76937      883.11701      3375         
     49770  -55.603444      0.27553972    -55.327904      0.029520714    236.85201     -715.51088      3375         
     49780  -55.723974      0.38035243    -55.343621      0.029520714    326.94827     -192.56623      3375         
     49790  -55.799995      0.4760487     -55.323946      0.029520714    409.20812      1600.2949      3375         
     49800  -55.663446      0.35025384    -55.313192      0.029520714    301.07574      444.48368      3375         
     49810  -55.620205      0.30623597    -55.313969      0.029520714    263.23829     -1137.6529      3375         
     49820  -55.746264      0.42640312    -55.319861      0.029520714    366.53312     -712.95128      3375         
     49830  -55.786687      0.457808      -55.328879      0.029520714    393.52854     -370.416        3375         
     49840  -55.753385      0.42434545    -55.32904       0.029520714    364.76436     -30.222721      3375         
     49850  -55.712702      0.38059871    -55.332103      0.029520714    327.15997      9.147369       3375         
     49860  -55.693662      0.33615455    -55.357507      0.029520714    288.95609     -429.21874      3375         
     49870  -55.602269      0.24836981    -55.353899      0.029520714    213.49694      971.97839      3375         
     49880  -55.667203      0.34193958    -55.325264      0.029520714    293.92886      1791.0978      3375         
     49890  -55.76321       0.42468518    -55.338525      0.029520714    365.05639     -364.82642      3375         
     49900  -55.662808      0.31111315    -55.351695      0.029520714    267.43067     -1077.1637      3375         
     49910  -55.667197      0.30199657    -55.3652        0.029520714    259.59412     -5.2642966      3375         
     49920  -55.710915      0.3374149     -55.3735        0.029520714    290.03948     -190.11641      3375         
     49930  -55.759085      0.39557875    -55.363506      0.029520714    340.03671     -390.31697      3375         
     49940  -55.7058        0.32797098    -55.377829      0.029520714    281.92154     -216.33324      3375         
     49950  -55.750023      0.35110737    -55.398916      0.029520714    301.80942     -422.18175      3375         
     49960  -55.815194      0.41297265    -55.402221      0.029520714    354.98838      1113.6257      3375         
     49970  -55.74542       0.33855413    -55.406866      0.029520714    291.01875      1185.8083      3375         
     49980  -55.738339      0.31979675    -55.418543      0.029520714    274.89503     -784.93396      3375         
     49990  -55.809288      0.36970795    -55.43958       0.029520714    317.79836     -620.19043      3375         
     50000  -55.733731      0.26744986    -55.466281      0.029520714    229.89802      592.20012      3375         
Loop time of 266.176 on 4 procs for 50000 steps with 10 atoms

Performance: 8.115 ns/day, 2.958 hours/ns, 187.845 timesteps/s, 1.878 katom-step/s
91.0% CPU use with 4 MPI tasks x no OpenMP threads

MPI task timing breakdown:
Section |  min time  |  avg time  |  max time  |%varavg| %total
---------------------------------------------------------------
Pair    | 142.56     | 158.59     | 173.88     | 101.7 | 59.58
Neigh   | 0.00053472 | 0.00055466 | 0.00057396 |   0.0 |  0.00
Comm    | 74.352     | 87.222     | 100.82     | 117.8 | 32.77
Output  | 2.5955     | 2.7426     | 3.0487     |  10.9 |  1.03
Modify  | 12.912     | 15.296     | 17.782     |  48.3 |  5.75
Other   |            | 2.328      |            |       |  0.87

Nlocal:            2.5 ave           3 max           2 min
Histogram: 2 0 0 0 0 0 0 0 0 2
Nghost:             49 ave          52 max          44 min
Histogram: 1 0 0 0 0 0 1 0 1 1
Neighs:              0 ave           0 max           0 min
Histogram: 4 0 0 0 0 0 0 0 0 0
FullNghs:         22.5 ave          27 max          18 min
Histogram: 2 0 0 0 0 0 0 0 0 2

Total # of neighbors = 90
Ave neighs/atom = 9
Neighbor list builds = 78
Dangerous builds = 0

write_data	restart.data
System init for write_data ...
Generated 0 of 1 mixed pair_coeff terms from geometric mixing rule
#
Total wall time: 0:04:29
