LAMMPS data file via write_data, version 2 Aug 2023, timestep = 50000, units = metal

10 atoms
2 atom types

0 15 xlo xhi
0 15 ylo yhi
0 15 zlo zhi

Masses

1 12
2 2

Atoms # atomic

4 1 8.841715335263123 6.181352575532608 6.734886913664101 0 0 0
9 2 8.566555967997306 6.259924411103962 5.6513784664538855 0 0 0
10 2 9.53640510905142 5.3998797109708345 6.982183593383198 0 0 0
8 2 8.455030861945945 6.974088666103076 8.634130594621094 0 0 0
3 1 8.189131702448343 6.9725676739766245 7.648352609658556 0 0 0
7 2 6.824479847224503 8.195958384568629 6.325441201605492 0 0 0
2 1 6.925418575340454 8.032276427105874 7.416856236973955 0 0 0
1 1 6.072710068153107 8.81222968384441 8.24342348293301 0 0 0
6 2 6.17189417340948 8.934328885613228 9.325091962582375 0 0 0
5 2 5.395779953948134 9.465261780403594 7.7096587205018805 0 0 0

Velocities

4 -3.3979184476392534 3.6442358131122594 -3.852547970660516
9 -11.5252570132007 -0.6222540001792058 9.580632769855027
10 -2.932131815325122 -6.135483568742854 14.447722227938712
8 0.9304720200743251 13.384593246843194 5.347651816763392
3 4.120264640176028 -8.993452455620133 1.5965349015684913
7 2.5988422890073934 3.1461589961361045 -11.67036455050367
2 4.493755058646005 4.001546955406985 3.1220560339800794
1 -2.633574980523338 -2.411035728140474 -5.218656843767913
6 7.641359298252906 8.83962803148807 -0.6176644532432443
5 -12.208442402761827 3.939589785903508 9.027705462470433
