ITEM: TIMESTEP
0
ITEM: NUMBER OF ATOMS
10
ITEM: BOX BOUNDS pp pp pp
0.0000000000000000e+00 1.5000000000000000e+01
0.0000000000000000e+00 1.5000000000000000e+01
0.0000000000000000e+00 1.5000000000000000e+01
ITEM: ATOMS id type x y z
6 2 6.17755 5.97186 6.2128
1 1 6.93804 5.81404 6.9798
5 2 7.10847 4.72613 7.07357
7 2 8.20204 6.51068 8.45499
2 1 7.51054 6.78242 7.66101
8 2 6.62405 8.51936 6.59378
3 1 7.4057 8.23881 7.38779
9 2 8.85102 8.82111 8.74037
10 2 7.93653 10.2708 7.78333
4 1 8.18311 9.2314 7.97643
ITEM: TIMESTEP
100
ITEM: NUMBER OF ATOMS
10
ITEM: BOX BOUNDS pp pp pp
0.0000000000000000e+00 1.5000000000000000e+01
0.0000000000000000e+00 1.5000000000000000e+01
0.0000000000000000e+00 1.5000000000000000e+01
ITEM: ATOMS id type x y z
6 2 5.77003 6.01099 6.79675
1 1 6.75677 5.7196 7.20121
5 2 7.01962 4.70662 7.42454
7 2 8.59432 6.51878 8.03475
2 1 7.66592 6.73848 7.54833
8 2 6.58869 8.40921 6.72361
3 1 7.4385 8.16122 7.33915
9 2 9.04226 9.18946 8.49828
10 2 7.77238 10.377 7.8232
4 1 8.19492 9.38203 7.84262
ITEM: TIMESTEP
200
ITEM: NUMBER OF ATOMS
10
ITEM: BOX BOUNDS pp pp pp
0.0000000000000000e+00 1.5000000000000000e+01
0.0000000000000000e+00 1.5000000000000000e+01
0.0000000000000000e+00 1.5000000000000000e+01
ITEM: ATOMS id type x y z
6 2 5.78279 5.62214 7.03749
1 1 6.81601 5.67609 7.31646
5 2 7.20808 4.64471 7.46687
7 2 8.57484 6.45361 7.87748
2 1 7.53001 6.75082 7.55905
8 2 6.35779 8.59722 7.12341
3 1 7.38774 8.32159 7.48133
9 2 9.25152 9.15506 8.10567
10 2 7.88452 10.3323 7.38936
4 1 8.27699 9.32065 7.62462
ITEM: TIMESTEP
300
ITEM: NUMBER OF ATOMS
10
ITEM: BOX BOUNDS pp pp pp
0.0000000000000000e+00 1.5000000000000000e+01
0.0000000000000000e+00 1.5000000000000000e+01
0.0000000000000000e+00 1.5000000000000000e+01
ITEM: ATOMS id type x y z
6 2 5.66796 5.76092 7.15336
1 1 6.72664 5.6707 7.41663
5 2 7.14947 4.71285 7.72928
7 2 8.66102 6.47017 7.80604
2 1 7.6309 6.72604 7.55694
8 2 6.36673 8.58405 7.48991
3 1 7.40167 8.2351 7.495
9 2 9.33989 9.36356 7.65848
10 2 7.7822 10.3504 7.35865
4 1 8.26692 9.3645 7.48031
ITEM: TIMESTEP
400
ITEM: NUMBER OF ATOMS
10
ITEM: BOX BOUNDS pp pp pp
0.0000000000000000e+00 1.5000000000000000e+01
0.0000000000000000e+00 1.5000000000000000e+01
0.0000000000000000e+00 1.5000000000000000e+01
ITEM: ATOMS id type x y z
6 2 5.67721 5.84591 7.68939
1 1 6.77762 5.71227 7.60686
5 2 7.10342 4.68109 7.69004
7 2 8.64667 6.53366 7.47759
2 1 7.61848 6.80194 7.48763
8 2 6.30768 8.44299 7.43593
3 1 7.38474 8.22021 7.41634
9 2 9.33677 9.1918 7.62037
10 2 7.88443 10.2905 7.3524
4 1 8.24714 9.3046 7.42638
ITEM: TIMESTEP
500
ITEM: NUMBER OF ATOMS
10
ITEM: BOX BOUNDS pp pp pp
0.0000000000000000e+00 1.5000000000000000e+01
0.0000000000000000e+00 1.5000000000000000e+01
0.0000000000000000e+00 1.5000000000000000e+01
ITEM: ATOMS id type x y z
6 2 5.74144 5.90203 7.96385
1 1 6.75045 5.68528 7.70973
5 2 7.12131 4.65156 7.52017
7 2 8.75888 6.53706 7.41236
2 1 7.64706 6.78216 7.53911
8 2 6.29805 8.56444 7.5729
3 1 7.34266 8.25277 7.4468
9 2 9.30039 9.05389 7.25552
10 2 7.9122 10.3771 7.34513
4 1 8.25846 9.30211 7.2742
ITEM: TIMESTEP
600
ITEM: NUMBER OF ATOMS
10
ITEM: BOX BOUNDS pp pp pp
0.0000000000000000e+00 1.5000000000000000e+01
0.0000000000000000e+00 1.5000000000000000e+01
0.0000000000000000e+00 1.5000000000000000e+01
ITEM: ATOMS id type x y z
7 2 8.74624 6.43594 7.51498
2 1 7.64355 6.702 7.56182
6 2 5.71546 5.9984 8.03314
5 2 6.95858 4.66011 7.74068
1 1 6.75205 5.69729 7.8036
9 2 9.19099 9.25616 6.61546
4 1 8.18874 9.31669 7.09583
10 2 7.99398 10.3043 7.41695
8 2 6.46644 8.5065 7.94229
3 1 7.42439 8.29377 7.47633
ITEM: TIMESTEP
700
ITEM: NUMBER OF ATOMS
10
ITEM: BOX BOUNDS pp pp pp
0.0000000000000000e+00 1.5000000000000000e+01
0.0000000000000000e+00 1.5000000000000000e+01
0.0000000000000000e+00 1.5000000000000000e+01
ITEM: ATOMS id type x y z
7 2 8.36207 6.43747 6.944
2 1 7.55965 6.80763 7.48248
6 2 5.92523 5.82749 8.72208
5 2 7.10195 4.64124 7.74537
1 1 6.78597 5.70668 8.01291
9 2 9.22361 9.05434 6.63947
4 1 8.22983 9.25061 6.96456
10 2 7.8932 10.3156 7.04298
8 2 6.52148 8.66518 8.00245
3 1 7.44063 8.28154 7.50549
ITEM: TIMESTEP
800
ITEM: NUMBER OF ATOMS
10
ITEM: BOX BOUNDS pp pp pp
0.0000000000000000e+00 1.5000000000000000e+01
0.0000000000000000e+00 1.5000000000000000e+01
0.0000000000000000e+00 1.5000000000000000e+01
ITEM: ATOMS id type x y z
7 2 8.198 6.32266 6.61758
2 1 7.50299 6.76421 7.38817
1 1 6.81462 5.79563 8.18056
6 2 6.07887 6.12024 8.91787
5 2 7.21595 4.80849 8.14856
9 2 9.12908 9.10965 6.32431
4 1 8.18889 9.21628 6.88836
10 2 7.90571 10.2315 7.01695
3 1 7.47068 8.22856 7.4838
8 2 6.73335 8.59936 8.21845
ITEM: TIMESTEP
900
ITEM: NUMBER OF ATOMS
10
ITEM: BOX BOUNDS pp pp pp
0.0000000000000000e+00 1.5000000000000000e+01
0.0000000000000000e+00 1.5000000000000000e+01
0.0000000000000000e+00 1.5000000000000000e+01
ITEM: ATOMS id type x y z
7 2 8.20099 6.40779 6.65086
2 1 7.51677 6.79546 7.50105
1 1 6.80793 5.78172 8.22224
6 2 6.08082 6.06704 8.97982
5 2 7.0848 4.72592 8.11338
9 2 8.70943 8.76425 5.87581
4 1 8.10352 9.17842 6.68551
10 2 8.00901 10.2705 6.84475
3 1 7.56353 8.3079 7.58059
8 2 7.08843 8.60348 8.48804
ITEM: TIMESTEP
1000
ITEM: NUMBER OF ATOMS
10
ITEM: BOX BOUNDS pp pp pp
0.0000000000000000e+00 1.5000000000000000e+01
0.0000000000000000e+00 1.5000000000000000e+01
0.0000000000000000e+00 1.5000000000000000e+01
ITEM: ATOMS id type x y z
7 2 7.91392 6.29169 6.59007
2 1 7.50038 6.6969 7.4731
1 1 6.87385 5.84513 8.38449
6 2 6.50225 6.28218 9.32365
5 2 6.7875 4.77178 8.10155
9 2 8.61062 8.90462 5.7428
4 1 8.0626 9.18399 6.62846
10 2 8.13448 10.2428 6.83427
8 2 7.07241 8.70829 8.38416
3 1 7.58032 8.27709 7.49937
ITEM: TIMESTEP
1100
ITEM: NUMBER OF ATOMS
10
ITEM: BOX BOUNDS pp pp pp
0.0000000000000000e+00 1.5000000000000000e+01
0.0000000000000000e+00 1.5000000000000000e+01
0.0000000000000000e+00 1.5000000000000000e+01
ITEM: ATOMS id type x y z
7 2 7.67303 6.21393 6.5947
2 1 7.38097 6.79709 7.47643
1 1 6.99092 5.87805 8.49468
6 2 6.79278 6.12355 9.54319
5 2 6.82799 4.82879 8.30247
9 2 8.48902 8.81064 5.53405
4 1 8.07187 9.12339 6.52346
10 2 8.39767 10.0747 6.88022
8 2 7.1556 8.77208 8.39132
3 1 7.52089 8.26753 7.44593
ITEM: TIMESTEP
1200
ITEM: NUMBER OF ATOMS
10
ITEM: BOX BOUNDS pp pp pp
0.0000000000000000e+00 1.5000000000000000e+01
0.0000000000000000e+00 1.5000000000000000e+01
0.0000000000000000e+00 1.5000000000000000e+01
ITEM: ATOMS id type x y z
7 2 7.58288 6.3155 6.56059
2 1 7.41286 6.81713 7.5722
1 1 6.96708 5.92587 8.57593
6 2 6.81814 6.24281 9.60228
5 2 6.73348 4.94599 8.18736
9 2 8.14011 8.71173 5.39298
4 1 7.96481 9.04294 6.4056
10 2 8.15501 10.1388 6.55461
8 2 7.66907 8.7678 8.39442
3 1 7.65947 8.2303 7.47906
ITEM: TIMESTEP
1300
ITEM: NUMBER OF ATOMS
10
ITEM: BOX BOUNDS pp pp pp
0.0000000000000000e+00 1.5000000000000000e+01
0.0000000000000000e+00 1.5000000000000000e+01
0.0000000000000000e+00 1.5000000000000000e+01
ITEM: ATOMS id type x y z
7 2 7.26277 6.23594 6.5814
1 1 7.02777 6.02721 8.68831
6 2 6.98898 6.55697 9.66112
5 2 6.89937 4.91438 8.71763
2 1 7.30142 6.72948 7.52889
9 2 7.86528 8.63183 5.3066
4 1 7.93449 9.0528 6.31761
10 2 8.08737 10.062 6.60171
3 1 7.73388 8.23865 7.39923
8 2 8.03479 8.52999 8.41627
ITEM: TIMESTEP
1400
ITEM: NUMBER OF ATOMS
10
ITEM: BOX BOUNDS pp pp pp
0.0000000000000000e+00 1.5000000000000000e+01
0.0000000000000000e+00 1.5000000000000000e+01
0.0000000000000000e+00 1.5000000000000000e+01
ITEM: ATOMS id type x y z
7 2 6.74952 6.45602 6.70045
1 1 7.14856 5.99939 8.75947
6 2 7.56119 6.43292 9.66124
5 2 6.81586 4.96104 8.68178
2 1 7.1495 6.83106 7.63916
9 2 7.79879 8.37137 5.30992
4 1 7.91923 8.93242 6.20917
10 2 8.18961 9.99367 6.01154
3 1 7.76207 8.27211 7.42231
8 2 8.13297 8.79504 8.34342
ITEM: TIMESTEP
1500
ITEM: NUMBER OF ATOMS
10
ITEM: BOX BOUNDS pp pp pp
0.0000000000000000e+00 1.5000000000000000e+01
0.0000000000000000e+00 1.5000000000000000e+01
0.0000000000000000e+00 1.5000000000000000e+01
ITEM: ATOMS id type x y z
7 2 6.66375 6.29976 6.81336
1 1 7.18637 6.13058 8.83114
6 2 7.68815 6.45182 9.73848
5 2 6.67704 5.21494 9.00963
2 1 7.19007 6.84614 7.65835
9 2 7.38048 8.50969 5.1974
4 1 7.81275 8.9252 6.16159
10 2 8.34385 9.86143 6.15121
3 1 7.8175 8.13985 7.32232
8 2 8.33055 8.63182 8.13851
ITEM: TIMESTEP
1600
ITEM: NUMBER OF ATOMS
10
ITEM: BOX BOUNDS pp pp pp
0.0000000000000000e+00 1.5000000000000000e+01
0.0000000000000000e+00 1.5000000000000000e+01
0.0000000000000000e+00 1.5000000000000000e+01
ITEM: ATOMS id type x y z
7 2 6.66883 6.3827 6.9402
1 1 7.20533 6.18265 8.92259
6 2 7.75754 6.49878 9.8175
5 2 6.56326 5.28921 8.93426
2 1 7.22066 6.85734 7.72341
9 2 7.06337 8.73049 5.25084
4 1 7.71484 8.88484 6.08313
10 2 8.51613 9.64473 5.9522
3 1 7.85293 8.10553 7.27494
8 2 8.59232 8.4919 7.96955
ITEM: TIMESTEP
1700
ITEM: NUMBER OF ATOMS
10
ITEM: BOX BOUNDS pp pp pp
0.0000000000000000e+00 1.5000000000000000e+01
0.0000000000000000e+00 1.5000000000000000e+01
0.0000000000000000e+00 1.5000000000000000e+01
ITEM: ATOMS id type x y z
7 2 6.2586 6.68335 7.17164
1 1 7.28589 6.20033 8.95219
6 2 8.1036 6.25388 9.67125
5 2 6.53996 5.42724 9.17056
2 1 7.14985 6.87767 7.81126
9 2 7.10683 8.43852 5.20863
4 1 7.74364 8.81036 6.01281
10 2 8.42693 9.61503 5.86438
3 1 7.83499 8.14808 7.20717
8 2 8.60188 8.58336 7.90192
ITEM: TIMESTEP
1800
ITEM: NUMBER OF ATOMS
10
ITEM: BOX BOUNDS pp pp pp
0.0000000000000000e+00 1.5000000000000000e+01
0.0000000000000000e+00 1.5000000000000000e+01
0.0000000000000000e+00 1.5000000000000000e+01
ITEM: ATOMS id type x y z
7 2 6.08552 6.72386 7.41417
1 1 7.31035 6.27177 9.02287
6 2 8.22238 6.5334 9.5094
5 2 6.81014 5.39532 9.36605
2 1 7.06569 6.96613 7.85131
9 2 6.84289 8.50147 5.31019
4 1 7.68839 8.76585 5.95031
10 2 8.49629 9.49742 5.56121
3 1 7.90155 8.05163 7.17745
8 2 8.87087 8.23618 7.71631
ITEM: TIMESTEP
1900
ITEM: NUMBER OF ATOMS
10
ITEM: BOX BOUNDS pp pp pp
0.0000000000000000e+00 1.5000000000000000e+01
0.0000000000000000e+00 1.5000000000000000e+01
0.0000000000000000e+00 1.5000000000000000e+01
ITEM: ATOMS id type x y z
7 2 6.162 6.94536 7.37381
1 1 7.3616 6.42124 9.08228
6 2 8.30517 6.521 9.68465
5 2 6.65479 5.72655 9.52043
2 1 7.10001 7.05022 7.89842
9 2 6.53302 8.50297 5.63278
4 1 7.5901 8.70191 5.97174
10 2 8.13222 9.37283 5.37872
3 1 7.99508 7.85982 7.05167
8 2 9.05602 7.95218 7.274
ITEM: TIMESTEP
2000
ITEM: NUMBER OF ATOMS
10
ITEM: BOX BOUNDS pp pp pp
0.0000000000000000e+00 1.5000000000000000e+01
0.0000000000000000e+00 1.5000000000000000e+01
0.0000000000000000e+00 1.5000000000000000e+01
ITEM: ATOMS id type x y z
7 2 5.96307 7.11369 7.91587
1 1 7.48834 6.42772 9.11771
6 2 8.56204 6.3339 9.29814
5 2 6.75884 5.96677 9.82721
2 1 7.05954 7.16927 8.0481
9 2 6.56245 8.56696 5.41275
4 1 7.54302 8.61568 5.80484
10 2 8.45303 9.04702 5.32121
3 1 7.89125 7.85621 7.0008
8 2 8.93168 7.77839 7.28517
ITEM: TIMESTEP
2100
ITEM: NUMBER OF ATOMS
10
ITEM: BOX BOUNDS pp pp pp
0.0000000000000000e+00 1.5000000000000000e+01
0.0000000000000000e+00 1.5000000000000000e+01
0.0000000000000000e+00 1.5000000000000000e+01
ITEM: ATOMS id type x y z
7 2 6.04037 7.34366 7.96248
1 1 7.52122 6.47213 9.18489
6 2 8.46758 6.1321 9.49103
5 2 6.70149 6.18978 9.83271
2 1 7.16111 7.20654 8.13985
9 2 6.41606 8.68466 5.52328
4 1 7.48853 8.50155 5.78714
10 2 8.18657 8.77853 4.97599
3 1 7.88282 7.88917 6.92538
8 2 8.98989 7.67497 6.87998
ITEM: TIMESTEP
2200
ITEM: NUMBER OF ATOMS
10
ITEM: BOX BOUNDS pp pp pp
0.0000000000000000e+00 1.5000000000000000e+01
0.0000000000000000e+00 1.5000000000000000e+01
0.0000000000000000e+00 1.5000000000000000e+01
ITEM: ATOMS id type x y z
8 2 8.88475 7.35034 6.82024
1 1 7.57146 6.59156 9.24448
6 2 8.60676 6.18025 9.42342
5 2 6.88523 6.48775 10.0865
2 1 7.13846 7.20822 8.07637
7 2 6.11103 7.39131 8.1423
9 2 6.38686 8.83526 5.60522
4 1 7.42577 8.50407 5.75428
10 2 8.1962 8.71006 5.00234
3 1 7.87318 7.74032 6.89302
ITEM: TIMESTEP
2300
ITEM: NUMBER OF ATOMS
10
ITEM: BOX BOUNDS pp pp pp
0.0000000000000000e+00 1.5000000000000000e+01
0.0000000000000000e+00 1.5000000000000000e+01
0.0000000000000000e+00 1.5000000000000000e+01
ITEM: ATOMS id type x y z
8 2 8.7927 7.22034 6.78457
1 1 7.64925 6.65658 9.20383
6 2 8.63639 6.20549 9.17652
5 2 6.98034 6.46017 10.07
2 1 7.14168 7.3447 8.15887
7 2 6.09852 7.71465 8.18009
9 2 6.42106 8.77881 5.69975
4 1 7.42052 8.38859 5.76282
10 2 8.02915 8.42861 4.86112
3 1 7.81619 7.67879 6.89396
ITEM: TIMESTEP
2400
ITEM: NUMBER OF ATOMS
10
ITEM: BOX BOUNDS pp pp pp
0.0000000000000000e+00 1.5000000000000000e+01
0.0000000000000000e+00 1.5000000000000000e+01
0.0000000000000000e+00 1.5000000000000000e+01
ITEM: ATOMS id type x y z
8 2 8.89092 7.07587 6.73424
1 1 7.62943 6.69089 9.31918
6 2 8.44946 5.99374 9.16759
5 2 7.07154 6.62627 10.1772
2 1 7.28292 7.49217 8.19338
7 2 6.35107 8.15796 8.298
9 2 6.2236 8.58701 5.88844
4 1 7.29474 8.32455 5.69129
10 2 7.75403 8.37249 4.68709
3 1 7.8568 7.56016 6.78555
ITEM: TIMESTEP
2500
ITEM: NUMBER OF ATOMS
10
ITEM: BOX BOUNDS pp pp pp
0.0000000000000000e+00 1.5000000000000000e+01
0.0000000000000000e+00 1.5000000000000000e+01
0.0000000000000000e+00 1.5000000000000000e+01
ITEM: ATOMS id type x y z
8 2 8.36367 6.68129 6.48759
3 1 7.61219 7.43873 6.71505
1 1 7.79727 6.85178 9.31484
6 2 8.56052 6.10929 9.12807
5 2 7.37556 6.9206 10.3739
9 2 6.50326 8.91794 5.69539
4 1 7.33379 8.24411 5.68456
10 2 7.7589 8.02671 4.67588
2 1 7.26492 7.51925 8.2921
7 2 6.51303 8.24095 8.48883
ITEM: TIMESTEP
2600
ITEM: NUMBER OF ATOMS
10
ITEM: BOX BOUNDS pp pp pp
0.0000000000000000e+00 1.5000000000000000e+01
0.0000000000000000e+00 1.5000000000000000e+01
0.0000000000000000e+00 1.5000000000000000e+01
ITEM: ATOMS id type x y z
8 2 8.0454 6.45992 6.45483
3 1 7.59527 7.38987 6.77133
1 1 7.85733 6.91455 9.36914
6 2 8.52898 5.96437 9.42212
5 2 7.39896 7.21539 10.3061
9 2 6.5669 9.06699 5.66303
4 1 7.22546 8.17076 5.64723
10 2 7.36643 7.73619 4.67838
2 1 7.39609 7.57873 8.20241
7 2 6.77244 8.45367 8.42386
ITEM: TIMESTEP
2700
ITEM: NUMBER OF ATOMS
10
ITEM: BOX BOUNDS pp pp pp
0.0000000000000000e+00 1.5000000000000000e+01
0.0000000000000000e+00 1.5000000000000000e+01
0.0000000000000000e+00 1.5000000000000000e+01
ITEM: ATOMS id type x y z
8 2 8.04971 6.41153 6.58567
3 1 7.56562 7.40256 6.77679
1 1 7.85616 6.94398 9.32598
6 2 8.08026 5.93635 9.33056
5 2 7.81705 7.42271 10.2771
9 2 6.47848 8.88854 5.58129
4 1 7.12571 8.04642 5.65994
10 2 7.30356 7.4842 4.7483
2 1 7.48819 7.66304 8.21668
7 2 7.18087 8.74071 8.4898
ITEM: TIMESTEP
2800
ITEM: NUMBER OF ATOMS
10
ITEM: BOX BOUNDS pp pp pp
0.0000000000000000e+00 1.5000000000000000e+01
0.0000000000000000e+00 1.5000000000000000e+01
0.0000000000000000e+00 1.5000000000000000e+01
ITEM: ATOMS id type x y z
8 2 7.63426 6.20906 6.6021
3 1 7.48487 7.28409 6.76535
1 1 7.93788 7.04419 9.39571
6 2 8.18537 5.96159 9.30021
5 2 7.93103 7.62989 10.3593
9 2 6.77669 9.02085 5.7564
4 1 7.11342 7.97433 5.61115
10 2 6.93099 7.45161 4.64196
2 1 7.54868 7.73117 8.21461
7 2 7.15658 8.74435 8.30814
ITEM: TIMESTEP
2900
ITEM: NUMBER OF ATOMS
10
ITEM: BOX BOUNDS pp pp pp
0.0000000000000000e+00 1.5000000000000000e+01
0.0000000000000000e+00 1.5000000000000000e+01
0.0000000000000000e+00 1.5000000000000000e+01
ITEM: ATOMS id type x y z
8 2 7.33661 6.11235 6.8558
3 1 7.34575 7.18915 6.75435
1 1 7.99358 7.15946 9.36574
6 2 8.15124 6.06532 9.32309
5 2 8.25885 7.58672 10.3398
9 2 6.92953 8.9585 5.62864
4 1 7.09721 7.88133 5.62589
10 2 6.86661 7.44765 4.69185
2 1 7.60882 7.80911 8.21023
7 2 7.30902 8.8151 8.31268
ITEM: TIMESTEP
3000
ITEM: NUMBER OF ATOMS
10
ITEM: BOX BOUNDS pp pp pp
0.0000000000000000e+00 1.5000000000000000e+01
0.0000000000000000e+00 1.5000000000000000e+01
0.0000000000000000e+00 1.5000000000000000e+01
ITEM: ATOMS id type x y z
8 2 7.18588 6.1506 6.82152
3 1 7.32191 7.24578 6.8601
1 1 7.9989 7.18229 9.39907
6 2 7.82474 6.11033 9.4671
5 2 8.3695 7.83326 10.2307
9 2 6.76723 8.84283 5.57616
4 1 6.97749 7.76289 5.62175
10 2 6.72525 7.16433 4.70448
2 1 7.7693 7.8275 8.11137
7 2 7.84576 9.00796 8.1353
ITEM: TIMESTEP
3100
ITEM: NUMBER OF ATOMS
10
ITEM: BOX BOUNDS pp pp pp
0.0000000000000000e+00 1.5000000000000000e+01
0.0000000000000000e+00 1.5000000000000000e+01
0.0000000000000000e+00 1.5000000000000000e+01
ITEM: ATOMS id type x y z
8 2 6.82618 6.20522 7.15127
3 1 7.20609 7.15857 6.8437
10 2 6.44512 7.08212 4.98941
1 1 8.09113 7.36361 9.37239
6 2 7.89193 6.38517 9.83658
9 2 6.93452 8.75388 5.33989
4 1 6.92802 7.72322 5.67226
2 1 7.85548 7.73447 8.04387
7 2 8.19232 8.78458 7.95503
5 2 8.34958 8.1298 10.0236
ITEM: TIMESTEP
3200
ITEM: NUMBER OF ATOMS
10
ITEM: BOX BOUNDS pp pp pp
0.0000000000000000e+00 1.5000000000000000e+01
0.0000000000000000e+00 1.5000000000000000e+01
0.0000000000000000e+00 1.5000000000000000e+01
ITEM: ATOMS id type x y z
8 2 6.46208 6.39477 7.29528
3 1 7.05012 7.26287 6.93528
10 2 6.23115 6.8145 5.03396
1 1 8.23041 7.3828 9.3703
6 2 7.80267 6.50505 9.84856
9 2 7.20805 8.42611 5.13699
4 1 6.88511 7.49832 5.60663
2 1 7.86578 7.88291 8.06712
7 2 8.3511 8.75886 7.76113
5 2 8.88038 8.15928 9.93707
ITEM: TIMESTEP
3300
ITEM: NUMBER OF ATOMS
10
ITEM: BOX BOUNDS pp pp pp
0.0000000000000000e+00 1.5000000000000000e+01
0.0000000000000000e+00 1.5000000000000000e+01
0.0000000000000000e+00 1.5000000000000000e+01
ITEM: ATOMS id type x y z
8 2 6.41385 6.37045 7.4333
3 1 7.00241 7.18565 6.9826
10 2 5.95117 7.03753 5.156
4 1 6.81498 7.41647 5.67666
1 1 8.25761 7.56409 9.3188
6 2 7.60333 6.8249 9.85915
9 2 7.25487 8.24461 5.11417
2 1 7.97257 7.82911 7.98945
7 2 8.65091 8.66346 7.61928
5 2 8.96451 8.10717 9.90205
ITEM: TIMESTEP
3400
ITEM: NUMBER OF ATOMS
10
ITEM: BOX BOUNDS pp pp pp
0.0000000000000000e+00 1.5000000000000000e+01
0.0000000000000000e+00 1.5000000000000000e+01
0.0000000000000000e+00 1.5000000000000000e+01
ITEM: ATOMS id type x y z
8 2 6.37234 6.43621 7.54756
3 1 6.99862 7.16565 7.06318
10 2 5.77509 7.08665 5.26072
4 1 6.74061 7.35154 5.6919
1 1 8.25765 7.67213 9.32907
6 2 7.50377 7.21156 9.92524
9 2 7.30632 8.12644 5.16882
2 1 8.05024 7.7822 7.89273
7 2 8.76179 8.42362 7.27797
5 2 9.12202 8.10645 9.84742
ITEM: TIMESTEP
3500
ITEM: NUMBER OF ATOMS
10
ITEM: BOX BOUNDS pp pp pp
0.0000000000000000e+00 1.5000000000000000e+01
0.0000000000000000e+00 1.5000000000000000e+01
0.0000000000000000e+00 1.5000000000000000e+01
ITEM: ATOMS id type x y z
8 2 6.0998 6.8702 7.73593
3 1 6.90576 7.28274 7.07942
10 2 5.79758 6.81791 5.36715
4 1 6.73655 7.22888 5.74299
1 1 8.34369 7.70405 9.26552
6 2 7.5586 7.23271 9.86476
9 2 7.37744 7.72702 5.01917
2 1 8.05454 7.81118 7.91225
7 2 8.74935 8.31687 7.29522
5 2 9.29802 8.09421 9.60571
ITEM: TIMESTEP
3600
ITEM: NUMBER OF ATOMS
10
ITEM: BOX BOUNDS pp pp pp
0.0000000000000000e+00 1.5000000000000000e+01
0.0000000000000000e+00 1.5000000000000000e+01
0.0000000000000000e+00 1.5000000000000000e+01
ITEM: ATOMS id type x y z
9 2 7.3663 7.47833 4.98935
3 1 6.87715 7.25917 7.10073
10 2 5.67281 6.80381 5.46049
4 1 6.63244 7.16078 5.72997
6 2 7.74074 7.50755 10.0813
8 2 5.95184 7.2096 7.72329
7 2 8.91602 8.09047 7.19051
2 1 8.11439 7.71358 7.88279
1 1 8.40491 7.82902 9.25949
5 2 9.30295 8.35494 9.60611
ITEM: TIMESTEP
3700
ITEM: NUMBER OF ATOMS
10
ITEM: BOX BOUNDS pp pp pp
0.0000000000000000e+00 1.5000000000000000e+01
0.0000000000000000e+00 1.5000000000000000e+01
0.0000000000000000e+00 1.5000000000000000e+01
ITEM: ATOMS id type x y z
9 2 7.10254 7.36588 4.93942
3 1 6.8924 7.29595 7.16326
10 2 5.58733 6.61914 5.52148
4 1 6.55504 7.09134 5.83958
6 2 7.62005 8.10892 9.87781
8 2 6.00022 7.29284 7.73806
7 2 9.06123 7.62615 7.2183
2 1 8.17194 7.61885 7.86227
1 1 8.42799 7.99004 9.15921
5 2 9.46842 8.22996 9.44802
ITEM: TIMESTEP
3800
ITEM: NUMBER OF ATOMS
10
ITEM: BOX BOUNDS pp pp pp
0.0000000000000000e+00 1.5000000000000000e+01
0.0000000000000000e+00 1.5000000000000000e+01
0.0000000000000000e+00 1.5000000000000000e+01
ITEM: ATOMS id type x y z
9 2 7.35144 6.7472 5.17669
3 1 6.8189 7.37826 7.212
10 2 5.45061 6.88631 5.67926
4 1 6.51536 6.8786 5.89742
7 2 8.9684 7.61496 7.11545
2 1 8.13959 7.61773 7.79189
1 1 8.51571 8.09181 9.06862
5 2 9.56903 8.19588 9.33069
6 2 7.84824 8.3181 9.89591
8 2 5.99893 7.65911 7.87147
ITEM: TIMESTEP
3900
ITEM: NUMBER OF ATOMS
10
ITEM: BOX BOUNDS pp pp pp
0.0000000000000000e+00 1.5000000000000000e+01
0.0000000000000000e+00 1.5000000000000000e+01
0.0000000000000000e+00 1.5000000000000000e+01
ITEM: ATOMS id type x y z
9 2 7.0984 6.36929 5.31243
3 1 6.84833 7.39926 7.18428
10 2 5.40339 6.85689 5.63273
4 1 6.4085 6.79367 6.00702
7 2 8.99812 7.41609 7.03425
2 1 8.22251 7.66958 7.79965
1 1 8.55825 8.16267 9.02417
5 2 9.59843 8.08704 9.28949
6 2 7.76935 8.53544 9.69101
8 2 6.03079 7.80418 7.83836
ITEM: TIMESTEP
4000
ITEM: NUMBER OF ATOMS
10
ITEM: BOX BOUNDS pp pp pp
0.0000000000000000e+00 1.5000000000000000e+01
0.0000000000000000e+00 1.5000000000000000e+01
0.0000000000000000e+00 1.5000000000000000e+01
ITEM: ATOMS id type x y z
9 2 7.16604 6.36556 5.34127
3 1 6.78043 7.37857 7.21152
10 2 5.29995 6.83944 5.75161
4 1 6.36106 6.74895 6.03195
7 2 9.02641 7.06888 7.3367
2 1 8.21711 7.61187 7.80041
1 1 8.62863 8.25538 8.92501
5 2 9.67696 8.24663 9.28447
6 2 8.01886 8.91735 9.52582
8 2 6.01233 7.8135 7.8358
ITEM: TIMESTEP
4100
ITEM: NUMBER OF ATOMS
10
ITEM: BOX BOUNDS pp pp pp
0.0000000000000000e+00 1.5000000000000000e+01
0.0000000000000000e+00 1.5000000000000000e+01
0.0000000000000000e+00 1.5000000000000000e+01
ITEM: ATOMS id type x y z
9 2 7.01696 6.10816 5.52268
3 1 6.82852 7.45863 7.2428
10 2 5.29395 6.71614 5.75295
4 1 6.34547 6.67839 6.1435
7 2 8.87041 6.85156 7.32161
2 1 8.17873 7.56913 7.80645
1 1 8.66875 8.30346 8.84981
5 2 9.71442 8.39681 8.94511
6 2 8.03867 8.97823 9.43372
8 2 6.06072 8.11148 7.65755
ITEM: TIMESTEP
4200
ITEM: NUMBER OF ATOMS
10
ITEM: BOX BOUNDS pp pp pp
0.0000000000000000e+00 1.5000000000000000e+01
0.0000000000000000e+00 1.5000000000000000e+01
0.0000000000000000e+00 1.5000000000000000e+01
ITEM: ATOMS id type x y z
9 2 6.90371 5.82156 5.79625
3 1 6.89249 7.54499 7.1227
10 2 5.2061 6.69385 6.20388
4 1 6.24957 6.55179 6.29962
7 2 8.86484 6.7674 7.37215
2 1 8.19822 7.55741 7.76596
1 1 8.68081 8.35426 8.76774
5 2 9.76695 8.41537 9.01258
6 2 8.04005 9.08199 9.25574
8 2 6.21578 8.38903 7.51232
ITEM: TIMESTEP
4300
ITEM: NUMBER OF ATOMS
10
ITEM: BOX BOUNDS pp pp pp
0.0000000000000000e+00 1.5000000000000000e+01
0.0000000000000000e+00 1.5000000000000000e+01
0.0000000000000000e+00 1.5000000000000000e+01
ITEM: ATOMS id type x y z
9 2 6.79301 5.65265 6.02942
3 1 6.78478 7.5071 7.18739
10 2 5.19624 6.67951 5.91881
4 1 6.20667 6.49298 6.37442
7 2 8.70652 6.64334 7.61254
2 1 8.18987 7.5174 7.90302
1 1 8.83429 8.48872 8.57873
5 2 9.86237 8.36405 8.86846
6 2 8.36529 9.45403 8.79673
8 2 6.10691 8.38928 7.40165
ITEM: TIMESTEP
4400
ITEM: NUMBER OF ATOMS
10
ITEM: BOX BOUNDS pp pp pp
0.0000000000000000e+00 1.5000000000000000e+01
0.0000000000000000e+00 1.5000000000000000e+01
0.0000000000000000e+00 1.5000000000000000e+01
ITEM: ATOMS id type x y z
9 2 6.51451 5.42562 6.30062
3 1 6.80775 7.46144 7.20603
10 2 5.16976 6.68719 6.03426
4 1 6.12274 6.45703 6.50775
7 2 8.7673 6.5761 7.80884
8 2 6.22987 8.33013 7.17557
2 1 8.19322 7.55539 7.87685
1 1 8.88932 8.55742 8.43146
5 2 9.78052 8.4148 9.01155
6 2 8.58386 9.59846 8.42561
ITEM: TIMESTEP
4500
ITEM: NUMBER OF ATOMS
10
ITEM: BOX BOUNDS pp pp pp
0.0000000000000000e+00 1.5000000000000000e+01
0.0000000000000000e+00 1.5000000000000000e+01
0.0000000000000000e+00 1.5000000000000000e+01
ITEM: ATOMS id type x y z
9 2 6.36432 5.3453 6.78016
3 1 6.85678 7.48347 7.16381
10 2 5.14459 6.69624 6.15773
4 1 6.08666 6.3899 6.67202
7 2 8.71933 6.58199 7.8217
8 2 6.45832 8.49077 6.83297
2 1 8.18584 7.56412 7.78876
1 1 8.88373 8.58597 8.37083
5 2 9.77312 8.32709 8.97835
6 2 8.58624 9.63789 8.34555
ITEM: TIMESTEP
4600
ITEM: NUMBER OF ATOMS
10
ITEM: BOX BOUNDS pp pp pp
0.0000000000000000e+00 1.5000000000000000e+01
0.0000000000000000e+00 1.5000000000000000e+01
0.0000000000000000e+00 1.5000000000000000e+01
ITEM: ATOMS id type x y z
9 2 6.41975 5.39072 6.92872
3 1 6.84247 7.47679 7.18678
10 2 5.17338 6.56111 6.16897
4 1 6.07135 6.39504 6.73204
7 2 8.48701 6.56118 8.05931
8 2 6.54968 8.49209 6.77918
2 1 8.15839 7.53786 7.88671
1 1 8.92316 8.61951 8.23602
5 2 9.86529 8.38703 8.70229
6 2 8.65667 9.65265 8.00127
ITEM: TIMESTEP
4700
ITEM: NUMBER OF ATOMS
10
ITEM: BOX BOUNDS pp pp pp
0.0000000000000000e+00 1.5000000000000000e+01
0.0000000000000000e+00 1.5000000000000000e+01
0.0000000000000000e+00 1.5000000000000000e+01
ITEM: ATOMS id type x y z
9 2 6.4611 5.37167 7.03864
3 1 6.8458 7.49084 7.08502
10 2 4.9803 6.44534 6.35561
4 1 6.00132 6.36413 6.84082
7 2 8.49761 6.60626 8.47105
8 2 6.56464 8.45704 6.78383
2 1 8.14185 7.55507 7.93081
1 1 8.9951 8.61868 8.13366
5 2 9.92404 8.61876 8.69638
6 2 8.79188 9.54856 7.60157
ITEM: TIMESTEP
4800
ITEM: NUMBER OF ATOMS
10
ITEM: BOX BOUNDS pp pp pp
0.0000000000000000e+00 1.5000000000000000e+01
0.0000000000000000e+00 1.5000000000000000e+01
0.0000000000000000e+00 1.5000000000000000e+01
ITEM: ATOMS id type x y z
9 2 6.15859 5.52907 7.6314
3 1 6.90568 7.39565 7.02859
10 2 5.1286 6.25434 6.37408
4 1 5.93999 6.42337 7.04655
7 2 8.4838 6.641 8.417
8 2 6.59633 8.21975 6.35789
2 1 8.15264 7.58995 7.90079
1 1 8.99719 8.66028 8.03366
5 2 9.94877 8.54299 8.49664
6 2 8.8349 9.61729 7.55449
ITEM: TIMESTEP
4900
ITEM: NUMBER OF ATOMS
10
ITEM: BOX BOUNDS pp pp pp
0.0000000000000000e+00 1.5000000000000000e+01
0.0000000000000000e+00 1.5000000000000000e+01
0.0000000000000000e+00 1.5000000000000000e+01
ITEM: ATOMS id type x y z
4 1 5.88244 6.3657 7.20335
3 1 6.92614 7.3393 7.0903
10 2 5.18726 6.39886 6.36888
7 2 8.31701 6.96711 8.65
9 2 5.96802 5.47584 7.83188
8 2 6.79213 8.16315 6.33123
6 2 9.06655 9.51951 7.06348
2 1 8.12926 7.61475 7.87921
1 1 9.037 8.68926 7.84831
5 2 9.94394 8.64143 8.51651
ITEM: TIMESTEP
5000
ITEM: NUMBER OF ATOMS
10
ITEM: BOX BOUNDS pp pp pp
0.0000000000000000e+00 1.5000000000000000e+01
0.0000000000000000e+00 1.5000000000000000e+01
0.0000000000000000e+00 1.5000000000000000e+01
ITEM: ATOMS id type x y z
4 1 5.93378 6.36234 7.29661
3 1 6.85703 7.33929 7.13624
10 2 5.15139 6.31012 6.50947
7 2 8.10732 7.21033 8.88679
9 2 5.98865 5.53637 7.99087
8 2 6.68851 7.93899 6.28195
6 2 9.27337 9.15495 6.7833
2 1 8.1336 7.71081 7.87843
1 1 9.0927 8.65328 7.68033
5 2 9.81208 8.67495 8.48698
ITEM: TIMESTEP
5100
ITEM: NUMBER OF ATOMS
10
ITEM: BOX BOUNDS pp pp pp
0.0000000000000000e+00 1.5000000000000000e+01
0.0000000000000000e+00 1.5000000000000000e+01
0.0000000000000000e+00 1.5000000000000000e+01
ITEM: ATOMS id type x y z
4 1 5.85741 6.38581 7.4174
3 1 6.8903 7.29409 7.10324
10 2 5.19134 6.07857 6.62387
7 2 8.22698 7.20014 8.90475
9 2 5.79293 5.86805 8.40928
8 2 6.9139 7.55697 6.01893
6 2 9.16208 9.18192 6.62683
2 1 8.09663 7.74991 7.87325
1 1 9.13529 8.66101 7.61091
5 2 9.95891 8.78947 8.27657
ITEM: TIMESTEP
5200
ITEM: NUMBER OF ATOMS
10
ITEM: BOX BOUNDS pp pp pp
0.0000000000000000e+00 1.5000000000000000e+01
0.0000000000000000e+00 1.5000000000000000e+01
0.0000000000000000e+00 1.5000000000000000e+01
ITEM: ATOMS id type x y z
4 1 5.86804 6.46695 7.51525
3 1 6.94664 7.16956 7.08604
10 2 5.05018 6.15491 6.89005
7 2 8.16524 7.38802 8.87921
9 2 5.76776 6.07134 8.49582
8 2 7.03469 7.37787 6.00315
6 2 9.16075 8.90425 6.43339
2 1 8.09152 7.77315 7.91612
1 1 9.10924 8.61882 7.49045
5 2 9.85277 9.15276 8.14024
ITEM: TIMESTEP
5300
ITEM: NUMBER OF ATOMS
10
ITEM: BOX BOUNDS pp pp pp
0.0000000000000000e+00 1.5000000000000000e+01
0.0000000000000000e+00 1.5000000000000000e+01
0.0000000000000000e+00 1.5000000000000000e+01
ITEM: ATOMS id type x y z
4 1 5.87413 6.41405 7.61486
3 1 6.92193 7.20634 7.13948
10 2 5.16667 5.92394 6.92506
7 2 7.94962 7.74094 8.95481
9 2 5.91393 6.17555 8.7001
8 2 6.99271 7.22405 6.06695
6 2 9.30889 8.56334 6.26584
2 1 7.99329 7.9334 7.87386
1 1 9.19792 8.54461 7.35291
5 2 9.86856 9.00177 8.08963
ITEM: TIMESTEP
5400
ITEM: NUMBER OF ATOMS
10
ITEM: BOX BOUNDS pp pp pp
0.0000000000000000e+00 1.5000000000000000e+01
0.0000000000000000e+00 1.5000000000000000e+01
0.0000000000000000e+00 1.5000000000000000e+01
ITEM: ATOMS id type x y z
4 1 5.86379 6.49056 7.75364
3 1 6.92139 7.08381 7.18101
10 2 5.21819 5.93333 7.0912
7 2 7.93094 8.06367 8.95939
9 2 5.64888 6.39626 8.80756
8 2 7.24704 6.93996 6.10764
6 2 9.40008 8.4907 6.2074
2 1 8.04136 7.92175 7.77301
1 1 9.14956 8.55787 7.26242
5 2 9.82226 9.07217 7.89533
ITEM: TIMESTEP
5500
ITEM: NUMBER OF ATOMS
10
ITEM: BOX BOUNDS pp pp pp
0.0000000000000000e+00 1.5000000000000000e+01
0.0000000000000000e+00 1.5000000000000000e+01
0.0000000000000000e+00 1.5000000000000000e+01
ITEM: ATOMS id type x y z
8 2 7.11502 6.49425 6.3583
3 1 6.99093 6.99184 7.294
10 2 5.18001 5.84308 7.25999
9 2 5.52363 6.74049 8.85655
4 1 5.80167 6.53471 7.82335
6 2 9.51093 8.347 6.05633
1 1 9.15279 8.59099 7.07955
2 1 8.07703 7.91916 7.76685
7 2 7.9147 8.3101 8.78025
5 2 9.74529 9.26489 7.79502
ITEM: TIMESTEP
5600
ITEM: NUMBER OF ATOMS
10
ITEM: BOX BOUNDS pp pp pp
0.0000000000000000e+00 1.5000000000000000e+01
0.0000000000000000e+00 1.5000000000000000e+01
0.0000000000000000e+00 1.5000000000000000e+01
ITEM: ATOMS id type x y z
8 2 7.23547 6.51342 6.36879
3 1 6.9721 6.95866 7.32536
10 2 5.41223 5.63242 7.62927
9 2 5.45862 6.83468 8.94954
4 1 5.86525 6.56643 7.9542
6 2 9.56254 7.97884 6.13314
1 1 9.14632 8.48758 7.03343
2 1 7.9804 8.05711 7.6666
7 2 7.83153 8.66289 8.47022
5 2 9.83915 9.17914 7.46054
ITEM: TIMESTEP
5700
ITEM: NUMBER OF ATOMS
10
ITEM: BOX BOUNDS pp pp pp
0.0000000000000000e+00 1.5000000000000000e+01
0.0000000000000000e+00 1.5000000000000000e+01
0.0000000000000000e+00 1.5000000000000000e+01
ITEM: ATOMS id type x y z
8 2 7.22888 6.33056 6.48058
3 1 7.03848 6.92589 7.41408
10 2 5.35047 5.64309 7.82485
9 2 5.61278 7.1225 8.92309
4 1 5.84901 6.58871 8.02299
6 2 9.5808 7.76372 6.18831
1 1 9.1743 8.44415 6.90709
2 1 7.96779 8.07974 7.6131
7 2 7.5168 8.7452 8.4593
5 2 9.65678 9.38397 7.26929
ITEM: TIMESTEP
5800
ITEM: NUMBER OF ATOMS
10
ITEM: BOX BOUNDS pp pp pp
0.0000000000000000e+00 1.5000000000000000e+01
0.0000000000000000e+00 1.5000000000000000e+01
0.0000000000000000e+00 1.5000000000000000e+01
ITEM: ATOMS id type x y z
8 2 7.51566 6.14228 6.79216