10
 Atoms. Timestep: 0
C 6.93804 5.81404 6.9798
C 7.51054 6.78242 7.66101
C 7.4057 8.23881 7.38779
C 8.18311 9.2314 7.97643
H 7.10847 4.72613 7.07357
H 6.17755 5.97186 6.2128
H 8.20204 6.51068 8.45499
H 6.62405 8.51936 6.59378
H 8.85102 8.82111 8.74037
H 7.93653 10.2708 7.78333
10
 Atoms. Timestep: 20
C 6.82443 5.66405 6.9654
C 7.54674 6.80392 7.62893
C 7.42866 8.26717 7.45253
C 8.21643 9.31018 7.9432
H 7.17616 4.61013 7.18231
H 5.98987 5.94102 6.29327
H 8.37696 6.56969 8.36846
H 6.68703 8.43508 6.63863
H 8.87481 9.03582 8.79488
H 7.92166 10.3563 7.67104
10
 Atoms. Timestep: 40
C 6.8306 5.71863 7.0648
C 7.54568 6.69227 7.5561
C 7.45 8.25854 7.43674
C 8.16294 9.31218 7.94309
H 7.0859 4.74553 7.2549
H 5.97106 5.80446 6.42837
H 8.39942 6.44525 8.154
H 6.73066 8.61192 6.75988
H 8.94201 9.42387 8.67045
H 8.05965 10.2993 7.61701
10
 Atoms. Timestep: 60
C 6.76999 5.68971 7.10987
C 7.61256 6.76399 7.54186
C 7.47959 8.22403 7.40885
C 8.15903 9.35312 7.9705
H 7.0793 4.62219 7.39218
H 5.8386 5.79634 6.48424
H 8.46468 6.28811 8.0347
H 6.66192 8.64819 6.76144
H 9.08255 9.37771 8.62395
H 7.86991 10.3023 7.40604
10
 Atoms. Timestep: 80
C 6.76568 5.75134 7.16147
C 7.61367 6.74782 7.52047
C 7.52477 8.2567 7.42094
C 8.14453 9.30308 7.89176
H 7.05028 4.73495 7.43337
H 5.83586 5.87668 6.66618
H 8.58281 6.45317 8.03362
H 6.65513 8.38981 6.7329
H 9.00946 9.16163 8.50345
H 7.69857 10.2502 7.55164
10
 Atoms. Timestep: 100
C 6.75677 5.7196 7.20121
C 7.66592 6.73848 7.54833
C 7.4385 8.16122 7.33915
C 8.19492 9.38203 7.84262
H 7.01962 4.70662 7.42454
H 5.77003 6.01099 6.79675
H 8.59432 6.51878 8.03475
H 6.58869 8.40921 6.72361
H 9.04226 9.18946 8.49828
H 7.77238 10.377 7.8232
10
 Atoms. Timestep: 120
C 6.79142 5.7038 7.26031
C 7.67408 6.729 7.56174
C 7.43981 8.28321 7.31845
C 8.15381 9.29815 7.78363
H 6.92603 4.65065 7.37245
H 5.79792 6.03251 6.89111
H 8.61074 6.42144 8.02985
H 6.49486 8.47339 6.78223
H 9.0737 9.23091 8.41086
H 7.86605 10.3261 7.85773
10
 Atoms. Timestep: 140
C 6.77852 5.67275 7.29345
C 7.62626 6.73499 7.53894
C 7.44093 8.27018 7.34541
C 8.20463 9.37011 7.80771
H 6.9929 4.5568 7.41018
H 5.80524 5.92269 6.8974
H 8.65237 6.4664 7.96541
H 6.44967 8.52825 6.87345
H 9.16703 9.04458 8.25911
H 7.75475 10.4131 7.57042
10
 Atoms. Timestep: 160
C 6.7634 5.7155 7.30095
C 7.6101 6.77761 7.5239
C 7.41803 8.22567 7.42414
C 8.19493 9.2985 7.76192
H 7.18872 4.75759 7.52184
H 5.76748 5.75692 6.89006
H 8.60255 6.56573 7.85891
H 6.50632 8.52004 6.96222
H 9.1848 9.23621 8.13894
H 7.95537 10.2798 7.4516
10
 Atoms. Timestep: 180
C 6.75645 5.65503 7.29478
C 7.58677 6.79361 7.53138
C 7.36542 8.24953 7.47898
C 8.27433 9.32629 7.6995
H 7.29933 4.77936 7.57223
H 5.69346 5.66461 6.92192
H 8.58819 6.49443 7.83449
H 6.40484 8.50633 7.00125
H 9.28584 9.32756 8.15686
H 7.95451 10.3009 7.37442
10
 Atoms. Timestep: 200
C 6.81601 5.67609 7.31646
C 7.53001 6.75082 7.55905
C 7.38774 8.32159 7.48133
C 8.27699 9.32065 7.62462
H 7.20808 4.64471 7.46687
H 5.78279 5.62214 7.03749
H 8.57484 6.45361 7.87748
H 6.35779 8.59722 7.12341
H 9.25152 9.15506 8.10567
H 7.88452 10.3323 7.38936
10
 Atoms. Timestep: 220
C 6.78253 5.63693 7.33585
C 7.59235 6.8189 7.61718
C 7.36069 8.26269 7.43791
C 8.25265 9.31397 7.58701
H 7.23647 4.59301 7.37228
H 5.72961 5.72725 7.05729
H 8.59941 6.57844 7.9459
H 6.37941 8.65658 7.23858
H 9.26092 9.07899 7.90445
H 7.98886 10.3908 7.50285
10
 Atoms. Timestep: 240
C 6.79947 5.69849 7.37922
C 7.60204 6.7625 7.62034
C 7.32095 8.25052 7.41953
C 8.26187 9.29411 7.58346
H 7.22367 4.7648 7.39954
H 5.76624 5.86195 7.03966
H 8.62443 6.6886 7.96807
H 6.2579 8.48084 7.24011
H 9.32945 9.07803 7.66236
H 8.01627 10.3121 7.56392
10
 Atoms. Timestep: 260
C 6.774 5.65601 7.40665
C 7.60928 6.79609 7.59103
C 7.35058 8.27971 7.45888
C 8.26828 9.32979 7.56096
H 7.16591 4.63708 7.51666
H 5.76241 5.88322 7.01153
H 8.66736 6.54264 7.94113
H 6.2593 8.38255 7.24113
H 9.35088 9.03785 7.52335
H 7.90524 10.3671 7.55007
10
 Atoms. Timestep: 280
C 6.77868 5.70462 7.41132
C 7.62553 6.7647 7.56857
C 7.39638 8.25223 7.49901
C 8.22414 9.32488 7.51057
H 7.04523 4.63055 7.65359
H 5.76036 5.72565 7.07172
H 8.60835 6.44595 7.84583
H 6.37338 8.58155 7.33984
H 9.28636 9.18234 7.56527
H 7.90193 10.3754 7.47598
10
 Atoms. Timestep: 300
C 6.72664 5.6707 7.41663
C 7.6309 6.72604 7.55694
C 7.40167 8.2351 7.495
C 8.26692 9.3645 7.48031
H 7.14947 4.71285 7.72928
H 5.66796 5.76092 7.15336
H 8.66102 6.47017 7.80604
H 6.36673 8.58405 7.48991
H 9.33989 9.36356 7.65848
H 7.7822 10.3504 7.35865
10
 Atoms. Timestep: 320
C 6.74536 5.69377 7.46139
C 7.60167 6.7577 7.54996
C 7.43852 8.25307 7.47821
C 8.25424 9.31634 7.46981
H 7.12731 4.73417 7.62642
H 5.67529 5.86211 7.27717
H 8.67336 6.47291 7.77528
H 6.34288 8.39456 7.49587
H 9.33847 9.41223 7.63782
H 7.72791 10.2187 7.32024
10
 Atoms. Timestep: 340
C 6.74403 5.71069 7.51651
C 7.6505 6.76944 7.56761
C 7.41061 8.18477 7.47306
C 8.24388 9.36225 7.46484
H 7.053 4.6166 7.47002
H 5.66244 5.88755 7.40298
H 8.67151 6.46819 7.69588
H 6.35431 8.48374 7.31394
H 9.35297 9.25805 7.52305
H 7.73568 10.3429 7.35095
10
 Atoms. Timestep: 360
C 6.73188 5.70601 7.55193
C 7.69217 6.69918 7.58825
C 7.39082 8.27994 7.44836
C 8.20757 9.33305 7.45859
H 7.04386 4.65799 7.42658
H 5.68641 5.92629 7.52557
H 8.76699 6.45858 7.59565
H 6.36001 8.49645 7.2067
H 9.25199 9.19239 7.45228
H 7.88008 10.3792 7.39943
10
 Atoms. Timestep: 380
C 6.75798 5.6761 7.57655
C 7.65225 6.73739 7.56172
C 7.35851 8.24846 7.41993
C 8.25306 9.36752 7.44565
H 7.04474 4.66052 7.5238
H 5.6878 5.95507 7.63181
H 8.74519 6.45325 7.51202
H 6.26767 8.40301 7.28746
H 9.34221 9.17021 7.52099
H 7.90558 10.4011 7.38983
10
 Atoms. Timestep: 400
C 6.77762 5.71227 7.60686
C 7.61848 6.80194 7.48763
C 7.38474 8.22021 7.41634
C 8.24714 9.3046 7.42638
H 7.10342 4.68109 7.69004
H 5.67721 5.84591 7.68939
H 8.64667 6.53366 7.47759
H 6.30768 8.44299 7.43593
H 9.33677 9.1918 7.62037
H 7.88443 10.2905 7.3524
10
 Atoms. Timestep: 420
C 6.72099 5.66972 7.64355
C 7.6123 6.75499 7.43396
C 7.38601 8.27031 7.43332
C 8.27955 9.31904 7.41308
H 7.29567 4.70845 7.83804
H 5.65264 5.74533 7.70319
H 8.70345 6.56143 7.42818
H 6.35163 8.61438 7.46075
H 9.33126 9.18047 7.58604
H 7.79624 10.3255 7.32937
10
 Atoms. Timestep: 440
C 6.77897 5.68535 7.66761
C 7.5617 6.73797 7.44717
C 7.3709 8.28311 7.43454
C 8.28067 9.31956 7.41088
H 7.22183 4.73087 7.85786
H 5.71018 5.68121 7.72657
H 8.64422 6.43988 7.36991
H 6.33006 8.62633 7.38197
H 9.35675 9.22868 7.41289
H 7.90751 10.3571 7.37864
10
 Atoms. Timestep: 460
C 6.7788 5.65007 7.6974
C 7.59165 6.82451 7.48789
C 7.36937 8.26069 7.40638
C 8.26843 9.32001 7.40054
H 7.19591 4.65134 7.74251
H 5.6372 5.74397 7.80532
H 8.58393 6.47185 7.35054
H 6.29317 8.50171 7.36573
H 9.37584 9.17358 7.23834
H 7.9884 10.3459 7.43332
10
 Atoms. Timestep: 480
C 6.76067 5.71864 7.70774
C 7.61935 6.74625 7.53663
C 7.35113 8.26451 7.3946
C 8.26545 9.30281 7.35067
H 7.20587 4.73281 7.56914
H 5.71322 5.81369 7.90645
H 8.71449 6.63981 7.36389
H 6.28726 8.5017 7.45836
H 9.30243 9.01368 7.21629
H 7.92113 10.3251 7.4371
10
 Atoms. Timestep: 500
C 6.75045 5.68528 7.70973
C 7.64706 6.78216 7.53911
C 7.34266 8.25277 7.4468
C 8.25846 9.30211 7.2742
H 7.12131 4.65156 7.52017
H 5.74144 5.90203 7.96385
H 8.75888 6.53706 7.41236
H 6.29805 8.56444 7.5729
H 9.30039 9.05389 7.25552
H 7.9122 10.3771 7.34513
10
 Atoms. Timestep: 520
C 6.79687 5.68373 7.69644
C 7.61955 6.77515 7.53163
C 7.39072 8.26648 7.52321
C 8.2305 9.30239 7.22828
H 6.98932 4.62677 7.64833
H 5.70887 5.89774 7.93441
H 8.59526 6.45423 7.39806
H 6.32529 8.52428 7.66396
H 9.33887 9.22252 7.20764
H 7.94054 10.328 7.15924
10
 Atoms. Timestep: 540
C 6.72534 5.69116 7.71847
C 7.62036 6.7261 7.53364
C 7.425 8.25583 7.56411
C 8.25649 9.35687 7.21929
H 7.13331 4.68544 7.77258
H 5.63787 5.83304 7.84337
H 8.69192 6.48007 7.28794
H 6.37792 8.51028 7.73783
H 9.34991 9.23073 7.01336
H 7.76996 10.3007 7.02082
10
 Atoms. Timestep: 560
C 6.69935 5.74649 7.74563
C 7.64349 6.76369 7.54202
C 7.46425 8.23466 7.541
C 8.23097 9.28721 7.22217
H 7.19569 4.78098 7.80415
H 5.65705 5.82386 7.81186
H 8.71046 6.42231 7.28323
H 6.45229 8.53282 7.80274
H 9.20129 9.23258 6.82288
H 7.67889 10.2352 7.0592
10
 Atoms. Timestep: 580
C 6.75472 5.72902 7.77918
C 7.63123 6.7623 7.55208
C 7.43962 8.20321 7.51375
C 8.24888 9.34073 7.14907
H 7.06345 4.65069 7.76013
H 5.64273 5.92406 7.88839
H 8.58586 6.39354 7.44548
H 6.43138 8.49993 7.88534
H 9.2297 9.2187 6.64951
H 7.72426 10.3215 7.29571
10
 Atoms. Timestep: 600
C 6.75205 5.69729 7.8036
C 7.64355 6.702 7.56182
C 7.42439 8.29377 7.47633
C 8.18874 9.31669 7.09583
H 6.95858 4.66011 7.74068
H 5.71546 5.9984 8.03314
H 8.74624 6.43594 7.51498
H 6.46644 8.5065 7.94229
H 9.19099 9.25616 6.61546
H 7.99398 10.3043 7.41695
10
 Atoms. Timestep: 620
C 6.72942 5.72495 7.82474
C 7.68254 6.72884 7.5626
C 7.37769 8.22103 7.49244
C 8.19579 9.32563 7.05344
H 6.98125 4.66316 7.79367
H 5.74579 5.98112 8.12224
H 8.80012 6.5012 7.38557
H 6.47808 8.60076 7.99482
H 9.14703 9.11504 6.57382
H 8.05903 10.356 7.41955
10
 Atoms. Timestep: 640
C 6.7747 5.76324 7.85389
C 7.63961 6.78452 7.54046
C 7.4138 8.23441 7.52192
C 8.22145 9.26377 7.06099
H 7.08884 4.69689 7.87551
H 5.72717 5.98635 8.14646
H 8.56393 6.48258 7.2159
H 6.46369 8.48652 8.02679
H 9.10391 8.99243 6.52483
H 7.87913 10.2996 7.23596
10
 Atoms. Timestep: 660
C 6.76353 5.69931 7.93439
C 7.56596 6.77521 7.49371
C 7.44892 8.29084 7.57105
C 8.25326 9.28821 7.05867
H 7.21691 4.71634 7.88806
H 5.70805 5.92721 8.21878
H 8.54776 6.42106 7.00977
H 6.4788 8.50642 8.00918
H 9.18645 9.05181 6.48058
H 7.79607 10.2757 6.93577
10
 Atoms. Timestep: 680
C 6.78732 5.74114 7.97366
C 7.53503 6.73215 7.46927
C 7.44689 8.26354 7.5828
C 8.23361 9.28483 7.02249
H 7.13815 4.73922 7.86635
H 5.82289 5.73962 8.42069
H 8.49623 6.45061 6.9323
H 6.53743 8.73879 7.98436
H 9.22361 9.14409 6.56465
H 7.88863 10.2776 6.8314
10
 Atoms. Timestep: 700
C 6.78597 5.70668 8.01291
C 7.55965 6.80763 7.48248
C 7.44063 8.28154 7.50549
C 8.22983 9.25061 6.96456
H 7.10195 4.64124 7.74537
H 5.92523 5.82749 8.72208
H 8.36207 6.43747 6.944
H 6.52148 8.66518 8.00245
H 9.22361 9.05434 6.63947
H 7.8932 10.3156 7.04298
10
 Atoms. Timestep: 720
C 6.8254 5.76231 8.03762
C 7.53868 6.76787 7.53149
C 7.38045 8.27763 7.44984
C 8.23846 9.24208 6.9416
H 7.0599 4.77102 7.7159
H 6.11506 5.9613 8.82827
H 8.36834 6.43228 6.82423
H 6.47193 8.53345 7.97048
H 9.22842 8.95816 6.53621
H 7.98242 10.2644 7.25059
10
 Atoms. Timestep: 740
C 6.82036 5.74875 8.13126
C 7.57482 6.77464 7.44727
C 7.36202 8.2398 7.43721
C 8.22988 9.25821 6.97481
H 7.0141 4.7422 7.83187
H 6.08703 5.98793 8.89564
H 8.38027 6.44545 6.71627
H 6.44537 8.64144 7.91297
H 9.12321 8.98176 6.3669
H 8.15159 10.2928 7.22201
10
 Atoms. Timestep: 760
C 6.86336 5.7626 8.16012
C 7.52484 6.73761 7.38378
C 7.41431 8.27796 7.44567
C 8.22945 9.25231 6.98444
H 6.99893 4.65712 8.06095
H 6.0496 6.01929 8.85484
H 8.27314 6.41717 6.74018
H 6.49464 8.6318 7.94558
H 9.0126 8.99529 6.31238
H 8.10329 10.3165 7.13101
10
 Atoms. Timestep: 780
C 6.86923 5.77324 8.15483
C 7.45361 6.71754 7.3944
C 7.42817 8.26247 7.48425
C 8.26108 9.27393 6.92231
H 7.14349 4.71624 8.18379
H 6.07337 6.13155 8.8112
H 8.24217 6.30829 6.67619
H 6.59626 8.56711 8.1061
H 9.11258 8.99536 6.28354
H 7.88361 10.3384 7.09347
10
 Atoms. Timestep: 800
C 6.81462 5.79563 8.18056
C 7.50299 6.76421 7.38817
C 7.47068 8.22856 7.4838
C 8.18889 9.21628 6.88836
H 7.21595 4.80849 8.14856
H 6.07887 6.12024 8.91787
H 8.198 6.32266 6.61758
H 6.73335 8.59936 8.21845
H 9.12908 9.10965 6.32431
H 7.90571 10.2315 7.01695
10
 Atoms. Timestep: 820
C 6.80108 5.81582 8.18581
C 7.52718 6.72427 7.44842
C 7.49596 8.21359 7.49192
C 8.17657 9.26848 6.81003
H 7.06666 4.7377 8.04434
H 6.13276 6.01878 9.03079
H 8.17757 6.41173 6.70016
H 6.75879 8.60643 8.22569
H 9.06534 9.04142 6.21246
H 7.9181 10.271 7.05845
10
 Atoms. Timestep: 840
C 6.83869 5.78335 8.19569
C 7.53398 6.73627 7.51019
C 7.50883 8.28835 7.50055
C 8.16646 9.23207 6.78504
H 6.81191 4.7305 7.9075
H 6.18935 6.04538 9.02725
H 8.25004 6.269 6.74682
H 6.74213 8.60633 8.17771
H 8.88702 9.02275 6.0105
H 7.95582 10.3058 7.0704
10
 Atoms. Timestep: 860
C 6.85046 5.78095 8.22001
C 7.57325 6.76821 7.51126
C 7.48528 8.25004 7.54056
C 8.16399 9.20553 6.77283
H 6.75851 4.785 7.81611
H 6.16203 6.11154 9.00785
H 8.2524 6.28925 6.75965
H 6.76428 8.72555 8.2463
H 8.71616 8.99303 5.84507
H 8.03275 10.2872 6.94604
10
 Atoms. Timestep: 880
C 6.83817 5.82348 8.22096
C 7.56032 6.73772 7.51756
C 7.50474 8.24981 7.55746
C 8.14749 9.20906 6.72918
H 6.91022 4.78152 7.8951
H 6.10531 6.09565 8.98415
H 8.20159 6.50448 6.72694
H 6.91656 8.66297 8.40013
H 8.66922 8.82063 5.84345
H 8.01682 10.2343 6.88826
10
 Atoms. Timestep: 900
C 6.80793 5.78172 8.22224
C 7.51677 6.79546 7.50105
C 7.56353 8.3079 7.58059
C 8.10352 9.17842 6.68551
H 7.0848 4.72592 8.11338
H 6.08082 6.06704 8.97982
H 8.20099 6.40779 6.65086
H 7.08843 8.60348 8.48804
H 8.70943 8.76425 5.87581
H 8.00901 10.2705 6.84475
10
 Atoms. Timestep: 920
C 6.83852 5.80395 8.21297
C 7.45709 6.77811 7.48247
C 7.58074 8.27741 7.61315
C 8.09185 9.17722 6.657
H 7.14913 4.76808 8.20526
H 6.10905 6.02109 8.99384
H 8.13426 6.28947 6.76852
H 7.16793 8.78286 8.54321
H 8.69028 8.84654 5.81312
H 8.06414 10.2918 6.77148
10
 Atoms. Timestep: 940
C 6.8339 5.79514 8.29601
C 7.4591 6.75451 7.48792
C 7.57933 8.28782 7.54751
C 8.1178 9.18773 6.6642
H 7.13894 4.75876 8.04981
H 6.11322 6.05234 9.08943
H 8.13488 6.38168 6.77509
H 7.18094 8.76823 8.45679
H 8.52965 8.87466 5.69944
H 8.08556 10.2331 6.8446
10
 Atoms. Timestep: 960
C 6.86468 5.83426 8.32672
C 7.49612 6.78393 7.53454
C 7.53806 8.26503 7.49912
C 8.13915 9.16474 6.65195
H 6.93022 4.80723 8.01115
H 6.20716 6.03563 9.15495
H 8.12435 6.3598 6.66374
H 7.12349 8.64798 8.39049
H 8.40101 8.88572 5.61712
H 8.10973 10.1959 6.97758
10
 Atoms. Timestep: 980
C 6.88652 5.85521 8.33637
C 7.53569 6.76831 7.52292
C 7.51972 8.23425 7.50917
C 8.11493 9.16715 6.6177
H 6.77047 4.81962 8.04315
H 6.35154 6.13015 9.25254
H 7.97712 6.25667 6.65252
H 7.03414 8.69154 8.43247
H 8.47081 8.93674 5.61533
H 8.17873 10.2357 6.97596
10
 Atoms. Timestep: 1000
C 6.87385 5.84513 8.38449
C 7.50038 6.6969 7.4731
C 7.58032 8.27709 7.49937
C 8.0626 9.18399 6.62846
H 6.7875 4.77178 8.10155
H 6.50225 6.28218 9.32365
H 7.91392 6.29169 6.59007
H 7.07241 8.70829 8.38416
H 8.61062 8.90462 5.7428
H 8.13448 10.2428 6.83427
10
 Atoms. Timestep: 1020
C 6.90532 5.87691 8.38933
C 7.42306 6.71634 7.44127
C 7.59887 8.22812 7.52942
C 8.08132 9.20462 6.60534
H 6.84116 4.80637 8.33067
H 6.57143 6.26749 9.34365
H 7.85866 6.28833 6.47352
H 7.15302 8.65448 8.38579
H 8.72419 8.79325 5.78624
H 7.92415 10.2541 6.77698
10
 Atoms. Timestep: 1040
C 6.93399 5.89057 8.42453
C 7.39976 6.77808 7.41111
C 7.58716 8.22261 7.50129
C 8.1246 9.14115 6.6195
H 6.94169 4.81136 8.36956
H 6.57965 6.31495 9.37019
H 7.68439 6.25584 6.48131
H 7.14542 8.58693 8.47572
H 8.67965 8.87847 5.71124
H 7.82015 10.178 6.7424
10
 Atoms. Timestep: 1060
C 6.95303 5.89096 8.46907
C 7.37758 6.7068 7.46294
C 7.56337 8.23798 7.46245
C 8.1541 9.15643 6.59084
H 7.01587 4.80563 8.2353
H 6.60376 6.34231 9.40981
H 7.58024 6.317 6.50074
H 7.12057 8.6624 8.39948
H 8.54643 8.90048 5.63715
H 7.96867 10.2391 6.79475
10
 Atoms. Timestep: 1080
C 6.97814 5.88392 8.48379
C 7.37841 6.73616 7.48923
C 7.54217 8.24582 7.4443
C 8.10958 9.16175 6.56948
H 6.91446 4.81999 8.29551
H 6.67809 6.17726 9.48092
H 7.60699 6.22783 6.49422
H 7.13858 8.77954 8.24873
H 8.47876 8.85214 5.57475
H 8.2573 10.1973 6.8741
10
 Atoms. Timestep: 1100
C 6.99092 5.87805 8.49468
C 7.38097 6.79709 7.47643
C 7.52089 8.26753 7.44593
C 8.07187 9.12339 6.52346
H 6.82799 4.82879 8.30247
H 6.79278 6.12355 9.54319
H 7.67303 6.21393 6.5947
H 7.1556 8.77208 8.39132
H 8.48902 8.81064 5.53405
H 8.39767 10.0747 6.88022
10
 Atoms. Timestep: 1120
C 6.99002 5.90397 8.49483
C 7.35603 6.74942 7.52081
C 7.50667 8.27502 7.4774
C 8.08747 9.1 6.47469
H 6.89761 4.85372 8.17634
H 6.86028 6.26796 9.5248
H 7.66215 6.39379 6.56142
H 7.30837 8.68489 8.50487
H 8.4404 8.69998 5.54887
H 8.31406 10.1492 6.76631
10
 Atoms. Timestep: 1140
C 6.97326 5.88547 8.51578
C 7.35969 6.80693 7.4887
C 7.5829 8.27166 7.50775
C 8.07595 9.07082 6.51363
H 6.98403 4.81366 8.28605
H 6.79244 6.28627 9.51039
H 7.53069 6.37063 6.44549
H 7.41813 8.76826 8.41744
H 8.32782 8.59996 5.56423
H 8.12011 10.172 6.51025
10
 Atoms. Timestep: 1160
C 6.97984 5.89236 8.49551
C 7.34503 6.79321 7.49565
C 7.68346 8.28457 7.547
C 8.06322 9.08902 6.46081
H 6.96626 4.81389 8.44358
H 6.70717 6.18248 9.50649
H 7.40661 6.31825 6.52256
H 7.39432 8.85597 8.47881
H 8.23263 8.53858 5.49687
H 7.98774 10.1559 6.4469
10
 Atoms. Timestep: 1180
C 6.97282 5.89101 8.53901
C 7.35196 6.76819 7.55154
C 7.72051 8.3101 7.5127
C 8.02071 9.07011 6.40612
H 6.87477 4.82855 8.27592
H 6.73197 6.25835 9.55274
H 7.46169 6.37293 6.56384
H 7.45573 8.74268 8.51189
H 8.19387 8.63342 5.43358
H 8.00997 10.1476 6.49482
10
 Atoms. Timestep: 1200
C 6.96708 5.92587 8.57593
C 7.41286 6.81713 7.5722
C 7.65947 8.2303 7.47906
C 7.96481 9.04294 6.4056
H 6.73348 4.94599 8.18736
H 6.81814 6.24281 9.60228
H 7.58288 6.3155 6.56059
H 7.66907 8.7678 8.39442
H 8.14011 8.71173 5.39298
H 8.15501 10.1388 6.55461
10
 Atoms. Timestep: 1220
C 6.9715 5.97 8.57973
C 7.44429 6.76118 7.57532
C 7.63375 8.24031 7.45379
C 7.94809 9.07743 6.37135
H 6.63493 4.9569 8.33745
H 6.85918 6.18454 9.62466
H 7.59766 6.21769 6.64602
H 7.78088 8.80407 8.4102
H 7.98356 8.69462 5.3237
H 8.28199 10.0687 6.66585
10
 Atoms. Timestep: 1240
C 6.9625 5.94426 8.62506
C 7.41742 6.72085 7.55066
C 7.70607 8.29454 7.4172
C 7.9459 9.08441 6.36719
H 6.71551 4.8668 8.48346
H 6.84799 6.36805 9.65591
H 7.5351 6.18815 6.63208
H 7.7092 8.68152 8.46112
H 7.81938 8.78413 5.32868
H 8.30546 10.0669 6.56713
10
 Atoms. Timestep: 1260
C 6.99839 6.00058 8.62063
C 7.34879 6.74176 7.53224
C 7.74618 8.16608 7.478
C 7.94746 9.07539 6.37228
H 6.90811 4.9504 8.61067
H 6.81159 6.53817 9.55333
H 7.44766 6.19321 6.53719
H 7.75058 8.68718 8.41634
H 7.73994 8.78913 5.34902
H 8.2212 10.1591 6.40353
10
 Atoms. Timestep: 1280
C 7.01763 6.03058 8.66801
C 7.31225 6.75903 7.48276
C 7.75387 8.18222 7.44412
C 7.94417 9.04618 6.36122
H 6.98853 4.93548 8.67961
H 6.84168 6.60566 9.56048
H 7.35016 6.22914 6.52775
H 7.91684 8.60204 8.45861
H 7.76544 8.62282 5.36828
H 8.0938 10.1168 6.55759
10
 Atoms. Timestep: 1300
C 7.02777 6.02721 8.68831
C 7.30142 6.72948 7.52889
C 7.73388 8.23865 7.39923
C 7.93449 9.0528 6.31761
H 6.89937 4.91438 8.71763
H 6.98898 6.55697 9.66112
H 7.26277 6.23594 6.5814
H 8.03479 8.52999 8.41627
H 7.86528 8.63183 5.3066
H 8.08737 10.062 6.60171
10
 Atoms. Timestep: 1320
C 7.04876 6.02512 8.70443
C 7.31521 6.75773 7.59034
C 7.71045 8.15426 7.40541
C 7.91353 9.05262 6.2985
H 6.72985 5.01321 8.65466
H 7.20262 6.43366 9.70977
H 7.16899 6.15724 6.62638
H 7.95439 8.73072 8.30175
H 7.89539 8.82672 5.21898
H 8.24504 10.1201 6.38538
10
 Atoms. Timestep: 1340
C 7.0872 6.02283 8.75846
C 7.31456 6.7755 7.58936
C 7.73434 8.21376 7.35259
C 7.90419 8.99506 6.28321
H 6.57359 5.07886 8.55571
H 7.36535 6.32991 9.75903
H 7.07301 6.21819 6.68389
H 7.75832 8.78874 8.30145
H 7.75659 8.77443 5.24231
H 8.35538 9.98696 6.44491
10
 Atoms. Timestep: 1360
C 7.1314 6.04745 8.73462
C 7.29076 6.7934 7.61146
C 7.71171 8.23283 7.39228
C 7.94278 8.97901 6.20893
H 6.5672 5.08224 8.62545
H 7.42377 6.2623 9.77045
H 6.94701 6.35806 6.70142
H 7.79389 8.73622 8.36372
H 7.63663 8.51942 5.2454
H 8.29559 9.94566 6.49875
10
 Atoms. Timestep: 1380
C 7.1431 6.01465 8.74008
C 7.24551 6.86376 7.6038
C 7.70107 8.22971 7.41929
C 7.94993 8.92139 6.25415
H 6.70776 5.05126 8.68888
H 7.49419 6.36589 9.71853
H 6.78098 6.40262 6.65561
H 8.00513 8.75936 8.31297
H 7.72051 8.46725 5.26238
H 8.17775 9.99655 6.14669
10
 Atoms. Timestep: 1400
C 7.14856 5.99939 8.75947
C 7.1495 6.83106 7.63916
C 7.76207 8.27211 7.42231
C 7.91923 8.93242 6.20917
H 6.81586 4.96104 8.68178
H 7.56119 6.43292 9.66124
H 6.74952 6.45602 6.70045
H 8.13297 8.79504 8.34342
H 7.79879 8.37137 5.30992
H 8.18961 9.99367 6.01154
10
 Atoms. Timestep: 1420
C 7.16319 6.03833 8.75094
C 7.1259 6.86043 7.65914
C 7.80111 8.27551 7.40235
C 7.8828 8.91744 6.16854
H 6.88313 4.95687 8.71991
H 7.60273 6.33321 9.71147
H 6.72405 6.44866 6.7702
H 8.07911 8.76566 8.3382
H 7.70573 8.266 5.30136
H 8.29123 9.89937 6.16207
10
 Atoms. Timestep: 1440
C 7.18529 6.04112 8.80588
C 7.19225 6.92775 7.65593
C 7.74055 8.21316 7.37206
C 7.88769 8.88123 6.18384
H 6.79535 5.05112 8.66384
H 7.64833 6.30636 9.76356
H 6.66234 6.43139 6.76476
H 8.05659 8.77669 8.23817
H 7.53537 8.4313 5.20495
H 8.3913 9.84349 6.14747
10
 Atoms. Timestep: 1460
C 7.2022 6.07295 8.8175
C 7.21601 6.81919 7.71803
C 7.70057 8.22048 7.35111
C 7.8941 8.8881 6.13128
H 6.64076 5.16722 8.67183
H 7.67371 6.3223 9.75319
H 6.69201 6.45436 6.83028
H 8.15541 8.78536 8.20924
H 7.43605 8.64005 5.20502
H 8.44881 9.84644 6.11194
10
 Atoms. Timestep: 1480
C 7.19885 6.06734 8.84939
C 7.21074 6.83421 7.66236
C 7.75221 8.24282 7.31797
C 7.86018 8.90017 6.13102
H 6.5526 5.13899 8.8986
H 7.69453 6.35127 9.79652
H 6.68925 6.30189 6.8986
H 8.23951 8.69161 8.1807
H 7.39092 8.64006 5.1853
H 8.42527 9.82894 6.1649
10
 Atoms. Timestep: 1500
C 7.18637 6.13058 8.83114
C 7.19007 6.84614 7.65835
C 7.8175 8.13985 7.32232
C 7.81275 8.9252 6.16159
H 6.67704 5.21494 9.00963
H 7.68815 6.45182 9.73848
H 6.66375 6.29976 6.81336
H 8.33055 8.63182 8.13851
H 7.38048 8.50969 5.1974
H 8.34385 9.86143 6.15121
10
 Atoms. Timestep: 1520
C 7.17398 6.15564 8.89056
C 7.16804 6.80446 7.65693
C 7.86853 8.10134 7.29811
C 7.79064 8.9303 6.15106
H 6.71245 5.17308 8.92135
H 7.73335 6.68174 9.67787
H 6.64391 6.45882 6.7564
H 8.42614 8.52405 8.17183
H 7.34864 8.50953 5.27103
H 8.25234 9.92234 6.11061
10
 Atoms. Timestep: 1540
C 7.16484 6.17164 8.88698
C 7.18508 6.81428 7.64301
C 7.88567 8.13528 7.28079
C 7.79635 8.89103 6.14623
H 6.73839 5.1611 9.03776
H 7.68737 6.67035 9.71564
H 6.58572 6.38316 6.86261
H 8.49881 8.43425 8.12629
H 7.22575 8.59727 5.2953
H 8.19632 9.90049 6.10928
10
 Atoms. Timestep: 1560
C 7.18031 6.16956 8.87925
C 7.2028 6.83287 7.6775
C 7.85855 8.10796 7.28693
C 7.80769 8.91171 6.09729
H 6.68109 5.2389 9.11852
H 7.63825 6.53585 9.78779
H 6.59752 6.26396 6.91755
H 8.55959 8.52333 8.02181
H 7.04191 8.63705 5.2906
H 8.30954 9.88827 6.10684
10
 Atoms. Timestep: 1580
C 7.2095 6.16036 8.93758
C 7.19739 6.8271 7.71273
C 7.84435 8.13161 7.21852
C 7.76831 8.88284 6.12555
H 6.543 5.30112 8.92818
H 7.72403 6.5469 9.82604
H 6.69833 6.33551 6.86252
H 8.55129 8.56046 7.96126
H 7.06257 8.74476 5.31764
H 8.42747 9.71983 6.02703
10
 Atoms. Timestep: 1600
C 7.20533 6.18265 8.92259
C 7.22066 6.85734 7.72341
C 7.85293 8.10553 7.27494
C 7.71484 8.88484 6.08313
H 6.56326 5.28921 8.93426
H 7.75754 6.49878 9.8175
H 6.66883 6.3827 6.9402
H 8.59232 8.4919 7.96955
H 7.06337 8.73049 5.25084
H 8.51613 9.64473 5.9522
10
 Atoms. Timestep: 1620
C 7.19191 6.18058 8.91372
C 7.21113 6.88661 7.71415
C 7.87025 8.14599 7.26487
C 7.73343 8.85546 6.09362
H 6.69029 5.25195 9.08018
H 7.75795 6.45096 9.78443
H 6.50815 6.39785 6.98845
H 8.67052 8.4529 7.9425
H 7.02291 8.57586 5.27871
H 8.43383 9.67865 5.89652
10
 Atoms. Timestep: 1640
C 7.21916 6.15955 8.95101
C 7.13042 6.87447 7.73578
C 7.89716 8.15575 7.23792
C 7.77949 8.8482 6.07207
H 6.66284 5.19938 9.04702
H 7.86076 6.54564 9.76249
H 6.44476 6.52844 6.93557
H 8.70544 8.51596 7.92063
H 7.00705 8.4426 5.40155
H 8.28576 9.76019 5.84108
10
 Atoms. Timestep: 1660
C 7.25062 6.19017 8.8991
C 7.10251 6.91592 7.76536
C 7.92524 8.09799 7.27973
C 7.76509 8.80183 6.05231
H 6.65048 5.30076 9.05891
H 7.93554 6.53742 9.68507
H 6.4293 6.58832 7.0143
H 8.62729 8.53375 7.98152
H 7.02455 8.45353 5.3559
H 8.19602 9.77076 5.81428
10
 Atoms. Timestep: 1680
C 7.26118 6.16535 8.94559
C 7.14797 6.97475 7.74814
C 7.90058 8.11615 7.24298
C 7.73618 8.77902 6.03419
H 6.59795 5.34376 9.14268
H 8.03053 6.41964 9.66315
H 6.31232 6.58709 7.09633
H 8.55734 8.48668 8.04177
H 7.04323 8.44062 5.24307
H 8.30719 9.73059 5.87655
10
 Atoms. Timestep: 1700
C 7.28589 6.20033 8.95219
C 7.14985 6.87767 7.81126
C 7.83499 8.14808 7.20717
C 7.74364 8.81036 6.01281
H 6.53996 5.42724 9.17056
H 8.1036 6.25388 9.67125
H 6.2586 6.68335 7.17164
H 8.60188 8.58336 7.90192
H 7.10683 8.43852 5.20863
H 8.42693 9.61503 5.86438
10
 Atoms. Timestep: 1720
C 7.31473 6.19351 8.97781
C 7.12521 6.91913 7.78739
C 7.80743 8.12527 7.23214
C 7.75327 8.79437 6.00892
H 6.50218 5.46703 9.20643
H 8.20154 6.23355 9.6558
H 6.22807 6.60043 7.30272
H 8.58225 8.61423 7.77105
H 7.12871 8.53229 5.14887
H 8.47743 9.57879 5.76661
10
 Atoms. Timestep: 1740
C 7.33399 6.20346 8.94673
C 7.08896 6.98205 7.83382
C 7.83186 8.11098 7.20302
C 7.74651 8.7372 5.98492
H 6.63749 5.47718 9.25923
H 8.19119 6.35316 9.56495
H 6.19614 6.59881 7.30249
H 8.57718 8.46635 7.94949
H 7.03697 8.55809 5.18902
H 8.4771 9.56424 5.81291
10
 Atoms. Timestep: 1760
C 7.35549 6.22049 8.96419
C 7.02079 6.97891 7.8657
C 7.85832 8.07218 7.20177
C 7.76476 8.74931 5.93654
H 6.72974 5.36011 9.28891
H 8.24073 6.51524 9.54977
H 6.13924 6.78913 7.19817
H 8.65873 8.39068 7.941
H 6.91816 8.46264 5.29984
H 8.44131 9.57684 5.80212
10
 Atoms. Timestep: 1780
C 7.3377 6.25782 8.98608
C 7.00376 6.98764 7.81323
C 7.88058 8.0572 7.19141
C 7.76413 8.72188 6.0186
H 6.8689 5.31693 9.32329
H 8.25282 6.58947 9.52677
H 6.06211 6.80811 7.31706
H 8.75245 8.37185 7.69077
H 6.92664 8.47347 5.33836
H 8.34404 9.51296 5.63681
10
 Atoms. Timestep: 1800
C 7.31035 6.27177 9.02287
C 7.06569 6.96613 7.85131
C 7.90155 8.05163 7.17745
C 7.68839 8.76585 5.95031
H 6.81014 5.39532 9.36605
H 8.22238 6.5334 9.5094
H 6.08552 6.72386 7.41417
H 8.87087 8.23618 7.71631
H 6.84289 8.50147 5.31019
H 8.49629 9.49742 5.56121
10
 Atoms. Timestep: 1820
C 7.35367 6.29711 9.04693
C 7.11016 6.97779 7.87656
C 7.89381 8.05371 7.09228
C 7.64444 8.73985 5.96626
H 6.55958 5.60976 9.37878
H 8.26674 6.40851 9.64039
H 6.19448 6.67324 7.30735
H 8.83947 8.14737 7.69366
H 6.78241 8.63538 5.35781
H 8.46879 9.335 5.61884
10
 Atoms. Timestep: 1840
C 7.37763 6.30938 9.07506
C 7.13441 7.00414 7.83948
C 7.88839 7.96497 7.12058
C 7.64237 8.72062 5.95626
H 6.44898 5.82119 9.42388
H 8.25868 6.32574 9.77692
H 6.25202 6.67957 7.32223
H 8.85909 8.28304 7.42747
H 6.64357 8.76482 5.41869
H 8.40484 9.35094 5.57159
10
 Atoms. Timestep: 1860
C 7.32015 6.34168 9.08292
C 7.17092 6.9432 7.8959
C 7.95816 7.99076 7.04607
C 7.60365 8.70114 5.93273
H 6.52707 5.79301 9.5153
H 8.1878 6.4243 9.67648
H 6.16553 6.76196 7.48622
H 8.99212 8.19485 7.40588
H 6.58466 8.7585 5.52357
H 8.34953 9.42668 5.53586
10
 Atoms. Timestep: 1880
C 7.31322 6.35898 9.14091
C 7.15614 6.97657 7.86788
C 8.01851 7.97169 7.00212
C 7.56967 8.70513 5.93526
H 6.53445 5.64672 9.57428
H 8.27129 6.53784 9.65246
H 6.09788 6.89358 7.51796
H 9.04267 7.98178 7.42649
H 6.58007 8.63501 5.5808
H 8.25244 9.45086 5.46
10
 Atoms. Timestep: 1900
C 7.3616 6.42124 9.08228
C 7.10001 7.05022 7.89842
C 7.99508 7.85982 7.05167
C 7.5901 8.70191 5.97174
H 6.65479 5.72655 9.52043
H 8.30517 6.521 9.68465
H 6.162 6.94536 7.37381
H 9.05602 7.95218 7.274
H 6.53302 8.50297 5.63278
H 8.13222 9.37283 5.37872
10
 Atoms. Timestep: 1920
C 7.39226 6.37022 9.15117
C 7.09151 7.09854 7.93136
C 7.96938 7.9057 7.00904
C 7.58343 8.67405 5.921
H 6.60993 5.77871 9.53815
H 8.36934 6.54026 9.58608
H 6.12901 6.86435 7.42617
H 9.04188 7.8733 7.26705
H 6.49605 8.56463 5.67133
H 8.25831 9.30768 5.32474
10
 Atoms. Timestep: 1940
C 7.39521 6.40177 9.11212
C 7.12523 7.05072 7.98288
C 7.95401 7.97322 7.00282
C 7.54663 8.62255 5.86457
H 6.63441 5.80553 9.66068
H 8.36708 6.44052 9.57205
H 6.07101 6.86795 7.70314
H 9.00109 7.8783 7.28243
H 6.56331 8.802 5.58007
H 8.36066 9.13615 5.31629
10
 Atoms. Timestep: 1960
C 7.45683 6.41303 9.13955
C 7.11055 7.06182 7.94946
C 7.87546 7.92036 7.05534
C 7.56914 8.60959 5.83852
H 6.63654 5.86476 9.71253
H 8.46752 6.3091 9.62177
H 6.04612 7.04591 7.77192
H 8.96552 8.03244 7.19259
H 6.55017 8.92715 5.46012
H 8.38624 9.01186 5.23288
10
 Atoms. Timestep: 1980
C 7.49738 6.41368 9.14721
C 7.08646 7.09952 8.00952
C 7.83549 7.90467 6.97361
C 7.5807 8.59947 5.87305
H 6.71426 5.99689 9.67175
H 8.51877 6.2995 9.47049
H 6.01042 7.16354 7.73761
H 8.90809 7.96212 7.26354
H 6.56736 8.75515 5.42571
H 8.4049 8.93882 5.29955
10
 Atoms. Timestep: 2000
C 7.48834 6.42772 9.11771
C 7.05954 7.16927 8.0481
C 7.89125 7.85621 7.0008
C 7.54302 8.61568 5.80484
H 6.75884 5.96677 9.82721
H 8.56204 6.3339 9.29814
H 5.96307 7.11369 7.91587
H 8.93168 7.77839 7.28517
H 6.56245 8.56696 5.41275
H 8.45303 9.04702 5.32121
10
 Atoms. Timestep: 2020
C 7.48698 6.44777 9.11148
C 7.01799 7.20141 8.03976
C 7.89128 7.86408 6.98563
C 7.58623 8.53242 5.84969
H 6.90577 5.93059 9.92311
H 8.58419 6.33676 9.21624
H 5.94071 7.25476 7.98851
H 8.9649 7.73858 7.17835
H 6.5825 8.52359 5.42509
H 8.25105 9.16166 5.23833
10
 Atoms. Timestep: 2040
C 7.51509 6.43442 9.172
C 7.02601 7.17151 8.06701
C 7.87756 7.85735 6.97871
C 7.57721 8.52776 5.77552
H 6.87601 5.97096 9.89488
H 8.5861 6.31068 9.20832
H 5.96004 7.50088 7.90355
H 8.98081 7.80378 7.20661
H 6.46086 8.57199 5.53695
H 8.28497 9.11547 5.17925
10
 Atoms. Timestep: 2060
C 7.50655 6.46677 9.13989
C 7.0942 7.19446 8.06207
C 7.89752 7.84789 6.95718
C 7.50096 8.49809 5.80033
H 6.82352 6.07614 9.84294
H 8.56223 6.23415 9.28588
H 6.02506 7.44541 7.99472
H 8.92633 7.86741 7.24431
H 6.49167 8.6942 5.54304
H 8.29985 8.85942 5.22131
10
 Atoms. Timestep: 2080
C 7.51504 6.44973 9.17408
C 7.13736 7.24517 8.05063
C 7.88591 7.84937 6.95978
C 7.47075 8.5038 5.79819
H 6.67317 6.15976 9.88071
H 8.57467 6.14174 9.39783
H 6.07438 7.29199 8.06435
H 8.9818 7.8511 7.0759
H 6.45486 8.74176 5.49057
H 8.31083 8.74522 5.08355
10
 Atoms. Timestep: 2100
C 7.52122 6.47213 9.18489
C 7.16111 7.20654 8.13985
C 7.88282 7.88917 6.92538
C 7.48853 8.50155 5.78714
H 6.70149 6.18978 9.83271
H 8.46758 6.1321 9.49103
H 6.04037 7.34366 7.96248
H 8.98989 7.67497 6.87998
H 6.41606 8.68466 5.52328
H 8.18657 8.77853 4.97599
10
 Atoms. Timestep: 2120
C 7.51143 6.48982 9.22696
C 7.16102 7.25238 8.05969