LAMMPS (2 Aug 2023 - Update 2)
#13 Butadiene
units           metal
boundary        p p p
atom_style      atomic

neighbor        2.0 bin
neigh_modify    delay 0 every 1 check yes

read_data       restart.lmp
Reading data file ...
  orthogonal box = (0 0 0) to (15 15 15)
  1 by 2 by 2 MPI processor grid
  reading atoms ...
  10 atoms
  reading velocities ...
  10 velocities
  read_data CPU = 0.001 seconds
mass            1 12.0
mass            2 2

variable        sysvol          equal vol
variable        sysmass         equal mass(all)/6.0221367e+23
variable        sysdensity      equal v_sysmass/v_sysvol/1.0e-24
variable	out_freq 	equal 100

pair_style      deepmd ../files/frozen_model_1_compressed.pb ../files/frozen_model_2_compressed.pb ../files/frozen_model_3_compressed.pb ../files/frozen_model_3_compressed.pb out_file md.out out_freq 10 atomic relative 1.0
Summary of lammps deepmd module ...
  >>> Info of deepmd-kit:
  installed to:       /rs1/researchers/w/wjpfaend/rahul/MLP/DeePMD-kit/deepmd_cpu
  source:             v2.2.8-dirty
  source branch:      master
  source commit:      b875ea8
  source commit at:   2024-01-22 22:28:58 -0500
  support model ver.: 1.1 
  build variant:      cpu
  build with tf inc:  /rs1/researchers/w/wjpfaend/rahul/MLP/DeePMD-kit/tensorflow/lib/python3.11/site-packages/tensorflow/include;/rs1/researchers/w/wjpfaend/rahul/MLP/DeePMD-kit/tensorflow/lib/python3.11/site-packages/tensorflow/include
  build with tf lib:  /rs1/researchers/w/wjpfaend/rahul/MLP/DeePMD-kit/tensorflow/lib/python3.11/site-packages/tensorflow/libtensorflow_cc.so.2
  set tf intra_op_parallelism_threads: 0
  set tf inter_op_parallelism_threads: 0
  >>> Info of lammps module:
  use deepmd-kit at:  /rs1/researchers/w/wjpfaend/rahul/MLP/DeePMD-kit/deepmd_cpu
  source:             v2.2.8-dirty
  source branch:      master
  source commit:      b875ea8
  source commit at:   2024-01-22 22:28:58 -0500
  build float prec:   double
  build with tf inc:  /rs1/researchers/w/wjpfaend/rahul/MLP/DeePMD-kit/tensorflow/lib/python3.11/site-packages/tensorflow/include;/rs1/researchers/w/wjpfaend/rahul/MLP/DeePMD-kit/tensorflow/lib/python3.11/site-packages/tensorflow/include
  build with tf lib:  /rs1/researchers/w/wjpfaend/rahul/MLP/DeePMD-kit/tensorflow/lib/python3.11/site-packages/tensorflow/libtensorflow_cc.so.2
pair_coeff	* *

#
velocity        all create 300.0 2345678 rot no dist gaussian
fix             1 all nvt temp 300.0 300.0 0.05
fix             2 all plumed plumedfile plumed.dat outfile PLUMED.log

timestep        0.0005
thermo_style    custom step pe ke etotal v_sysdensity temp press vol
thermo          10

dump            10 all custom 100 btd.dump id type x y z
dump		101 all xyz 20 btd.xyz
dump_modify	101 element C H

fix		extra all print 20 "$(step), $(ke), $(pe), $(etotal), $(temp), $(press), $(vol)" file logfile screen no

restart	        20000 dump.restart

run             50000

CITE-CITE-CITE-CITE-CITE-CITE-CITE-CITE-CITE-CITE-CITE-CITE-CITE

Your simulation uses code contributions which should be cited:

- USER-DEEPMD package:

@article{Wang_ComputPhysCommun_2018_v228_p178,
  author = {Wang, Han and Zhang, Linfeng and Han, Jiequn and E, Weinan},
  doi = {10.1016/j.cpc.2018.03.016},
  url = {https://doi.org/10.1016/j.cpc.2018.03.016},
  year = 2018,
  month = {jul},
  publisher = {Elsevier {BV}},
  volume = 228,
  journal = {Comput. Phys. Commun.},
  title = {{DeePMD-kit: A deep learning package for many-body potential energy representation and molecular dynamics}},
  pages = {178--184}
}
@misc{Zeng_JChemPhys_2023_v159_p054801,
  title  = {{DeePMD-kit v2: A software package for deep potential models}},
  author =   {Jinzhe Zeng and Duo Zhang and Denghui Lu and Pinghui Mo and Zeyu Li
         and Yixiao Chen and Mari{\'a}n Rynik and Li'ang Huang and Ziyao Li and 
         Shaochen Shi and Yingze Wang and Haotian Ye and Ping Tuo and Jiabin
         Yang and Ye Ding and Yifan Li and Davide Tisi and Qiyu Zeng and Han 
         Bao and Yu Xia and Jiameng Huang and Koki Muraoka and Yibo Wang and 
         Junhan Chang and Fengbo Yuan and Sigbj{\o}rn L{\o}land Bore and Chun
         Cai and Yinnian Lin and Bo Wang and Jiayan Xu and Jia-Xin Zhu and 
         Chenxing Luo and Yuzhi Zhang and Rhys E A Goodall and Wenshuo Liang
         and Anurag Kumar Singh and Sikai Yao and Jingchao Zhang and Renata
         Wentzcovitch and Jiequn Han and Jie Liu and Weile Jia and Darrin M
         York and Weinan E and Roberto Car and Linfeng Zhang and Han Wang},
  journal =  {J. Chem. Phys.},
  volume =   159,
  issue =    5,  
  year =    2023,
  pages  =   054801,
  doi =      {10.1063/5.0155600},
}

CITE-CITE-CITE-CITE-CITE-CITE-CITE-CITE-CITE-CITE-CITE-CITE-CITE

Generated 0 of 1 mixed pair_coeff terms from geometric mixing rule
Neighbor list info ...
  update: every = 1 steps, delay = 0 steps, check = yes
  max neighbors/atom: 2000, page size: 100000
  master list distance cutoff = 8
  ghost atom cutoff = 8
  binsize = 4, bins = 4 4 4
  1 neighbor lists, perpetual/occasional/extra = 1 0 0
  (1) pair deepmd, perpetual
      attributes: full, newton on
      pair build: full/bin/atomonly
      stencil: full/bin/3d
      bin: standard
Per MPI rank memory allocation (min/avg/max) = 3.09 | 3.09 | 3.09 Mbytes
   Step         PotEng         KinEng         TotEng      v_sysdensity       Temp          Press          Volume    
         0  -56.671869      0.34900239    -56.322867      0.029520714    300            4710.5262      3375         
        10  -56.079406      0.83019637    -55.24921       0.029520714    713.63096      1268.9213      3375         
        20  -55.980488      0.64532649    -55.335162      0.029520714    554.71811     -3490.2847      3375         
        30  -56.268826      0.88920018    -55.379626      0.029520714    764.35022     -1149.1605      3375         
        40  -56.011156      0.57625222    -55.434904      0.029520714    495.34235      2750.1898      3375         
        50  -56.120954      0.63697019    -55.483984      0.029520714    547.53509     -874.10883      3375         
        60  -56.038285      0.49566028    -55.542625      0.029520714    426.06609     -3396.8635      3375         
        70  -56.25341       0.64178109    -55.611629      0.029520714    551.67051      643.46547      3375         
        80  -56.148104      0.47637152    -55.671733      0.029520714    409.48561      2893.9768      3375         
        90  -56.3098        0.63924633    -55.670553      0.029520714    549.49165      397.09974      3375         
       100  -56.101243      0.36725562    -55.733987      0.029520714    315.69034     -1491.5484      3375         
       110  -56.239542      0.45072104    -55.788821      0.029520714    387.43663     -555.30765      3375         
       120  -56.108751      0.34244842    -55.766302      0.029520714    294.36625      1772.1797      3375         
       130  -56.304569      0.52316767    -55.781402      0.029520714    449.71125      298.39236      3375         
       140  -56.136208      0.32093305    -55.815275      0.029520714    275.87179     -2938.5147      3375         
       150  -56.478357      0.63460922    -55.843748      0.029520714    545.50562     -593.79694      3375         
       160  -56.391345      0.50079372    -55.890552      0.029520714    430.47876      3123.6996      3375         
       170  -56.16085       0.31062766    -55.850223      0.029520714    267.01335      1186.5047      3375         
       180  -56.274621      0.37746568    -55.897156      0.029520714    324.46684     -1727.8076      3375         
       190  -56.365888      0.4452625     -55.920625      0.029520714    382.74451     -1082.9747      3375         
       200  -56.236937      0.2969011     -55.940036      0.029520714    255.21409      593.93513      3375         
       210  -56.366483      0.41766418    -55.948819      0.029520714    359.02119      159.59452      3375         
       220  -56.346961      0.36982448    -55.977137      0.029520714    317.89852     -1160.6923      3375         
       230  -56.408804      0.404798      -56.004006      0.029520714    347.96151     -443.69425      3375         
       240  -56.268982      0.25238616    -56.016596      0.029520714    216.94937      2045.3273      3375         
       250  -56.276206      0.27873315    -55.997473      0.029520714    239.59705      1108.0413      3375         
       260  -56.32168       0.30082961    -56.02085       0.029520714    258.59102     -1794.4014      3375         
       270  -56.454214      0.40663336    -56.04758       0.029520714    349.53917     -483.13489      3375         
       280  -56.384375      0.31838169    -56.065994      0.029520714    273.67866      1793.6716      3375         
       290  -56.357112      0.31406032    -56.043052      0.029520714    269.96404      24.865823      3375         
       300  -56.389966      0.31530459    -56.074661      0.029520714    271.03361     -2023.175       3375         
       310  -56.350361      0.26218844    -56.088173      0.029520714    225.37534     -935.16676      3375         
       320  -56.318587      0.22470817    -56.093878      0.029520714    193.15756      1434.6954      3375         
       330  -56.487662      0.39689353    -56.090768      0.029520714    341.16688      1481.3776      3375         
       340  -56.414238      0.32093642    -56.093301      0.029520714    275.87469     -650.49872      3375         
       350  -56.442414      0.33253203    -56.109882      0.029520714    285.84219     -849.16718      3375         
       360  -56.295566      0.17379907    -56.121767      0.029520714    149.39646      1024.3204      3375         
       370  -56.350783      0.25282335    -56.09796       0.029520714    217.32518     -253.33852      3375         
       380  -56.41713       0.30325507    -56.113875      0.029520714    260.67592     -1961.618       3375         
       390  -56.464091      0.3311915     -56.132899      0.029520714    284.68988      93.151375      3375         
       400  -56.419615      0.2996688     -56.119946      0.029520714    257.59319      2196.4585      3375         
       410  -56.443507      0.34790311    -56.095604      0.029520714    299.05506      1232.5107      3375         
       420  -56.334542      0.22719585    -56.107346      0.029520714    195.29595     -1330.6098      3375         
       430  -56.333614      0.22203812    -56.111576      0.029520714    190.86241     -1396.2724      3375         
       440  -56.420807      0.3061516     -56.114655      0.029520714    263.16576      589.25854      3375         
       450  -56.418968      0.32687901    -56.092089      0.029520714    280.9829       419.72517      3375         
       460  -56.293684      0.20544022    -56.088244      0.029520714    176.59496     -1041.8115      3375         
       470  -56.500939      0.41231478    -56.088624      0.029520714    354.42288     -424.24186      3375         
       480  -56.382179      0.30656965    -56.075609      0.029520714    263.52511      1370.8655      3375         
       490  -56.261136      0.21540951    -56.045727      0.029520714    185.1645       892.04802      3375         
       500  -56.391521      0.36193739    -56.029584      0.029520714    311.11884     -793.89043      3375         
       510  -56.418162      0.3987197     -56.019442      0.029520714    342.73665     -604.7963       3375         
       520  -56.317838      0.31453239    -56.003306      0.029520714    270.36983      1089.1686      3375         
       530  -56.337529      0.38138859    -55.95614       0.029520714    327.83895      408.69538      3375         
       540  -56.386115      0.43944853    -55.946667      0.029520714    377.74686     -2202.6725      3375         
       550  -56.239037      0.30493618    -55.934101      0.029520714    262.12099     -1211.1993      3375         
       560  -56.217193      0.29182034    -55.925373      0.029520714    250.84671      2101.136       3375         
       570  -56.345018      0.47632933    -55.868689      0.029520714    409.44934      2167.2873      3375         
       580  -56.283688      0.43689376    -55.846794      0.029520714    375.5508      -595.06693      3375         
       590  -56.306955      0.46739469    -55.83956       0.029520714    401.76918     -1939.8108      3375         
       600  -56.220025      0.38547624    -55.834549      0.029520714    331.35267      62.871879      3375         
       610  -56.076973      0.26583152    -55.811141      0.029520714    228.50691      727.96876      3375         
       620  -56.202667      0.40539507    -55.797272      0.029520714    348.47475     -1438.5695      3375         
       630  -56.26177       0.45472576    -55.807044      0.029520714    390.87906     -871.41356      3375         
       640  -56.34532       0.54378994    -55.80153       0.029520714    467.438        2555.2212      3375         
       650  -56.254035      0.50954533    -55.74449       0.029520714    438.00158      2194.9671      3375         
       660  -56.290622      0.516428      -55.774194      0.029520714    443.91788     -1630.7139      3375         
       670  -56.146624      0.3639528     -55.782671      0.029520714    312.85127     -1959.1603      3375         
       680  -56.209538      0.40991549    -55.799623      0.029520714    352.36047      331.45576      3375         
       690  -56.321628      0.5278434     -55.793785      0.029520714    453.73047      1136.7996      3375         
       700  -56.293893      0.49565894    -55.798234      0.029520714    426.06494     -699.46911      3375         
       710  -56.272447      0.44753265    -55.824915      0.029520714    384.69592     -1717.4653      3375         
       720  -56.285558      0.4109652     -55.874593      0.029520714    353.26279      1384.9236      3375         
       730  -56.198877      0.36420737    -55.83467       0.029520714    313.07009      2450.5141      3375         
       740  -56.307414      0.44401424    -55.8634        0.029520714    381.67151     -986.21267      3375         
       750  -56.19003       0.29814936    -55.891881      0.029520714    256.28709     -1850.3952      3375         
       760  -56.339252      0.42964801    -55.909604      0.029520714    369.32241      633.6909       3375         
       770  -56.311754      0.39667346    -55.915081      0.029520714    340.97771      1011.3236      3375         
       780  -56.278798      0.35036       -55.928438      0.029520714    301.16699     -1126.6471      3375         
       790  -56.287844      0.338773      -55.949071      0.029520714    291.20688     -1219.1162      3375         
       800  -56.344358      0.35848057    -55.985878      0.029520714    308.14738      1195.3487      3375         
       810  -56.252501      0.30343351    -55.949067      0.029520714    260.82931      2208.2079      3375         
       820  -56.376854      0.4199071     -55.956947      0.029520714    360.94919     -320.87266      3375         
       830  -56.399537      0.41868781    -55.98085       0.029520714    359.90109     -2453.0413      3375         
       840  -56.429029      0.42863953    -56.000389      0.029520714    368.45553     -173.17437      3375         
       850  -56.223032      0.22883482    -55.994198      0.029520714    196.7048       1645.4452      3375         
       860  -56.366646      0.37255246    -55.994094      0.029520714    320.24348     -537.84393      3375         
       870  -56.294075      0.29145253    -56.002623      0.029520714    250.53054     -1145.521       3375         
       880  -56.403669      0.39004788    -56.013621      0.029520714    335.28242      942.39854      3375         
       890  -56.414402      0.40929321    -56.005109      0.029520714    351.82556      1495.6649      3375         
       900  -56.346832      0.3521039     -55.994728      0.029520714    302.66603     -474.82038      3375         
       910  -56.265513      0.25304081    -56.012472      0.029520714    217.5121      -1393.4877      3375         
       920  -56.306545      0.27566745    -56.030877      0.029520714    236.9618       232.10273      3375         
       930  -56.26477       0.26876776    -55.996002      0.029520714    231.03088      1381.6763      3375         
       940  -56.438225      0.43463101    -56.003594      0.029520714    373.60576     -683.65189      3375         
       950  -56.329218      0.32063546    -56.008582      0.029520714    275.61598     -2046.3742      3375         
       960  -56.413655      0.39102132    -56.022634      0.029520714    336.11918      618.78833      3375         
       970  -56.265227      0.25090886    -56.014318      0.029520714    215.67949      2544.0406      3375         
       980  -56.361313      0.37752346    -55.98379       0.029520714    324.51651     -36.679912      3375         
       990  -56.343097      0.34156698    -56.00153       0.029520714    293.60857     -1956.9152      3375         
      1000  -56.419978      0.40831672    -56.011662      0.029520714    350.98618     -167.41698      3375         
      1010  -56.37579       0.37667307    -55.999117      0.029520714    323.78552      934.51673      3375         
      1020  -56.35          0.35587798    -55.994122      0.029520714    305.91021     -456.71302      3375         
      1030  -56.274989      0.2689233     -56.006066      0.029520714    231.16458     -914.45322      3375         
      1040  -56.353024      0.33757428    -56.01545       0.029520714    290.17648      799.98373      3375         
      1050  -56.260213      0.27323882    -55.986974      0.029520714    234.87417      2073.8809      3375         
      1060  -56.374922      0.39652736    -55.978395      0.029520714    340.85213     -233.73186      3375         
      1070  -56.332743      0.3418771     -55.990866      0.029520714    293.87515     -2445.6302      3375         
      1080  -56.455597      0.45737687    -55.99822       0.029520714    393.15794     -155.46079      3375         
      1090  -56.230478      0.24111251    -55.989365      0.029520714    207.25862      1783.8916      3375         
      1100  -56.299685      0.33073344    -55.968951      0.029520714    284.29614     -275.95524      3375         
      1110  -56.310505      0.33163224    -55.978873      0.029520714    285.06874     -1635.5948      3375         
      1120  -56.331993      0.3456505     -55.986343      0.029520714    297.11874      208.07264      3375         
      1130  -56.388857      0.41805612    -55.970801      0.029520714    359.3581       1659.5226      3375         
      1140  -56.402204      0.45304669    -55.949157      0.029520714    389.43575      573.82141      3375         
      1150  -56.26806       0.31642448    -55.951636      0.029520714    271.99626     -1149.1526      3375         
      1160  -56.298495      0.33837533    -55.96012       0.029520714    290.86506     -396.09306      3375         
      1170  -56.173994      0.23155388    -55.94244       0.029520714    199.04209      1180.8573      3375         
      1180  -56.399093      0.47225286    -55.926841      0.029520714    405.94523     -673.96507      3375         
      1190  -56.354334      0.42893663    -55.925397      0.029520714    368.71091     -2107.9822      3375         
      1200  -56.413766      0.476344      -55.937422      0.029520714    409.46195      828.73945      3375         
      1210  -56.194229      0.28651947    -55.907709      0.029520714    246.29012      3084.2433      3375         
      1220  -56.315534      0.44291425    -55.87262       0.029520714    380.72597      396.4501       3375         
      1230  -56.206118      0.31604148    -55.890077      0.029520714    271.66703     -2822.631       3375         
      1240  -56.30947       0.42959376    -55.879876      0.029520714    369.27577     -1258.0232      3375         
      1250  -56.410246      0.53127951    -55.878967      0.029520714    456.68413      1161.9855      3375         
      1260  -56.265424      0.41747744    -55.847947      0.029520714    358.86067      392.18141      3375         
      1270  -56.121552      0.27034178    -55.85121       0.029520714    232.3839      -708.68252      3375         
      1280  -56.392605      0.53412635    -55.858478      0.029520714    459.13125      597.60693      3375         
      1290  -56.045595      0.21795137    -55.827644      0.029520714    187.34946      2012.3261      3375         
      1300  -56.279157      0.46662816    -55.812529      0.029520714    401.11029     -120.85991      3375         
      1310  -56.366865      0.54722633    -55.819639      0.029520714    470.3919      -2344.8892      3375         
      1320  -56.319813      0.4957203     -55.824093      0.029520714    426.11768     -627.49333      3375         
      1330  -56.217641      0.39727932    -55.820362      0.029520714    341.49851      2044.9471      3375         
      1340  -56.339124      0.53828872    -55.800835      0.029520714    462.70919      281.90158      3375         
      1350  -56.141822      0.32011295    -55.821709      0.029520714    275.16684     -2587.3776      3375         
      1360  -56.28424       0.44109789    -55.843143      0.029520714    379.16465     -105.59623      3375         
      1370  -56.380991      0.52865833    -55.852333      0.029520714    454.43098      2664.6127      3375         
      1380  -56.356793      0.5259509     -55.830842      0.029520714    452.1037       801.88986      3375         
      1390  -56.182274      0.31283224    -55.869442      0.029520714    268.90839     -1694.7782      3375         
      1400  -56.33607       0.43766455    -55.898405      0.029520714    376.21337     -1010.5971      3375         
      1410  -56.135472      0.21779392    -55.917679      0.029520714    187.21412      965.56195      3375         
      1420  -56.289294      0.3763445     -55.912949      0.029520714    323.50308      203.74512      3375         
      1430  -56.326137      0.38084871    -55.945289      0.029520714    327.37487     -1245.638       3375         
      1440  -56.374601      0.39354696    -55.981054      0.029520714    338.2902       295.20726      3375         
      1450  -56.3808        0.38873509    -55.992065      0.029520714    334.15395      2417.7629      3375         
      1460  -56.303081      0.30808305    -55.994998      0.029520714    264.82602      388.99041      3375         
      1470  -56.288424      0.25768531    -56.030739      0.029520714    221.50448     -2778.2216      3375         
      1480  -56.417061      0.36631201    -56.050749      0.029520714    314.87923     -1147.4055      3375         
      1490  -56.41769       0.34092915    -56.076761      0.029520714    293.0603       1431.264       3375         
      1500  -56.469509      0.39808576    -56.071423      0.029520714    342.19172      828.57819      3375         
      1510  -56.400405      0.3068548     -56.09355       0.029520714    263.77023     -703.0373       3375         
      1520  -56.399191      0.28189634    -56.117295      0.029520714    242.31611     -499.85834      3375         
      1530  -56.289181      0.15652       -56.132661      0.029520714    134.54349      1282.7447      3375         
      1540  -56.445603      0.3386122     -56.106991      0.029520714    291.06866      902.36891      3375         
      1550  -56.396161      0.26937353    -56.126787      0.029520714    231.55159     -1459.5016      3375         
      1560  -56.379794      0.23846906    -56.141325      0.029520714    204.98633     -936.32926      3375         
      1570  -56.500277      0.35921233    -56.141065      0.029520714    308.77639      1499.5496      3375         
      1580  -56.400655      0.27031565    -56.13034       0.029520714    232.36143      279.3664       3375         
      1590  -56.312527      0.17151148    -56.141015      0.029520714    147.43007     -1828.7617      3375         
      1600  -56.453242      0.30069868    -56.152544      0.029520714    258.47847     -14.481145      3375         
      1610  -56.363865      0.2164634     -56.147402      0.029520714    186.07042      1944.3341      3375         
      1620  -56.468164      0.35330569    -56.114858      0.029520714    303.69908      575.04599      3375         
      1630  -56.406497      0.28127428    -56.125222      0.029520714    241.78139     -1734.1305      3375         
      1640  -56.424544      0.29775246    -56.126791      0.029520714    255.94592     -1540.5567      3375         
      1650  -56.37076       0.23340712    -56.137353      0.029520714    200.63512      1281.4844      3375         
      1660  -56.394362      0.29861313    -56.095749      0.029520714    256.68575      1449.2217      3375         
      1670  -56.358         0.26781659    -56.090183      0.029520714    230.21326     -911.19999      3375         
      1680  -56.417123      0.32299171    -56.094131      0.029520714    277.6414      -428.20818      3375         
      1690  -56.455365      0.38315089    -56.072214      0.029520714    329.35381      1807.0854      3375         
      1700  -56.401097      0.35803353    -56.043063      0.029520714    307.7631       80.954656      3375         
      1710  -56.245735      0.20305563    -56.042679      0.029520714    174.54519     -2549.4094      3375         
      1720  -56.35223       0.31613037    -56.036099      0.029520714    271.74344     -735.8261       3375         
      1730  -56.32494       0.30131962    -56.023621      0.029520714    259.01223      1927.7834      3375         
      1740  -56.437746      0.47577647    -55.961969      0.029520714    408.97411      1115.7516      3375         
      1750  -56.259536      0.31041853    -55.949118      0.029520714    266.83359     -1607.2934      3375         
      1760  -56.335519      0.39551126    -55.940008      0.029520714    339.9787      -1410.2167      3375         
      1770  -56.320089      0.38683539    -55.933254      0.029520714    332.52098      1940.0667      3375         
      1780  -56.154368      0.30170892    -55.852659      0.029520714    259.34686      1834.716       3375         
      1790  -56.230093      0.38455234    -55.84554       0.029520714    330.55849     -1665.7007      3375         
      1800  -56.325126      0.4894154     -55.835711      0.029520714    420.69803     -1505.8551      3375         
      1810  -56.27721       0.46205704    -55.815153      0.029520714    397.18098      1315.4104      3375         
      1820  -56.40317       0.62440541    -55.778764      0.029520714    536.7345       511.83163      3375         
      1830  -56.236728      0.45996892    -55.776759      0.029520714    395.38605     -1304.0152      3375         
      1840  -56.130122      0.34573959    -55.784383      0.029520714    297.19532     -114.41282      3375         
      1850  -56.247901      0.46777303    -55.780128      0.029520714    402.0944       2156.6804      3375         
      1860  -56.385352      0.63409733    -55.751254      0.029520714    545.0656       632.20098      3375         
      1870  -56.092629      0.31230132    -55.780327      0.029520714    268.45202     -2987.4642      3375         
      1880  -56.229892      0.44306568    -55.786826      0.029520714    380.85614     -1824.2642      3375         
      1890  -56.374621      0.5538394     -55.820782      0.029520714    476.07645      1948.679       3375         
      1900  -56.105365      0.3221276     -55.783238      0.029520714    276.89862      2073.2794      3375         
      1910  -56.077753      0.30103413    -55.776719      0.029520714    258.76682     -429.97788      3375         
      1920  -56.332597      0.52614539    -55.806452      0.029520714    452.27087     -1196.8254      3375         
      1930  -56.328338      0.49837018    -55.829968      0.029520714    428.3955       1102.0657      3375         
      1940  -56.301657      0.49300642    -55.80865       0.029520714    423.78485      854.86716      3375         
      1950  -56.252258      0.41072969    -55.841528      0.029520714    353.06035     -2146.9682      3375         
      1960  -56.27008       0.40793524    -55.862145      0.029520714    350.65826     -1348.9902      3375         
      1970  -56.247836      0.37327477    -55.874561      0.029520714    320.86436      1954.5097      3375         
      1980  -56.296828      0.42915462    -55.867673      0.029520714    368.89829      1277.2277      3375         
      1990  -56.359986      0.46226078    -55.897726      0.029520714    397.35611     -1754.3748      3375         
      2000  -56.334897      0.41406913    -55.920828      0.029520714    355.93091     -1021.9076      3375         
      2010  -56.314117      0.34695558    -55.967162      0.029520714    298.24058      1594.84        3375         
      2020  -56.227582      0.30350924    -55.924073      0.029520714    260.89441      1651.2115      3375         
      2030  -56.284479      0.3337189     -55.95076       0.029520714    286.86241     -1383.8739      3375         
      2040  -56.264181      0.28958639    -55.974594      0.029520714    248.92642     -2267.6765      3375         
      2050  -56.362133      0.35287792    -56.009255      0.029520714    303.33138      1166.3753      3375         
      2060  -56.432797      0.45119614    -55.981601      0.029520714    387.84502      1976.6084      3375         
      2070  -56.321535      0.31116547    -56.01037       0.029520714    267.47565     -750.84482      3375         
      2080  -56.357874      0.33312198    -56.024752      0.029520714    286.34931     -691.60811      3375         
      2090  -56.434147      0.39418316    -56.039963      0.029520714    338.83707      1172.9035      3375         
      2100  -56.259153      0.21607437    -56.043079      0.029520714    185.73601      48.152496      3375         
      2110  -56.356452      0.29909888    -56.057353      0.029520714    257.10329     -2148.4878      3375         
      2120  -56.461456      0.39389398    -56.067562      0.029520714    338.5885      -1388.0343      3375         
      2130  -56.408281      0.28924655    -56.119034      0.029520714    248.6343       1622.6183      3375         
      2140  -56.350641      0.30044117    -56.0502        0.029520714    258.25711      2465.7611      3375         
      2150  -56.359165      0.28280588    -56.076359      0.029520714    243.09795     -617.91787      3375         
      2160  -56.301838      0.20440815    -56.09743       0.029520714    175.70781     -1720.4453      3375         
      2170  -56.450926      0.3455044     -56.105421      0.029520714    296.99315      1075.7344      3375         
      2180  -56.495306      0.40055956    -56.094746      0.029520714    344.31818      1074.8019      3375         
      2190  -56.329392      0.23107879    -56.098313      0.029520714    198.63371     -1717.7382      3375         
      2200  -56.361695      0.25350363    -56.108191      0.029520714    217.90994     -1272.6088      3375         
      2210  -56.48715       0.36223424    -56.124915      0.029520714    311.374        1122.7319      3375         
      2220  -56.294209      0.19461919    -56.09959       0.029520714    167.29329      1364.911       3375         
      2230  -56.407611      0.30640126    -56.10121       0.029520714    263.38037     -318.72429      3375         
      2240  -56.467917      0.35553991    -56.112377      0.029520714    305.6196      -1053.6105      3375         
      2250  -56.392827      0.2804951     -56.112332      0.029520714    241.11161      351.67034      3375         
      2260  -56.323205      0.23544951    -56.087755      0.029520714    202.39074      1105.1603      3375         
      2270  -56.404654      0.31542909    -56.089225      0.029520714    271.14063     -1341.1003      3375         
      2280  -56.32067       0.23294944    -56.08772       0.029520714    200.2417      -1972.0704      3375         
      2290  -56.411489      0.3128722     -56.098617      0.029520714    268.94274      1624.2865      3375         
      2300  -56.386868      0.33342538    -56.053443      0.029520714    286.61011      2685.4042      3375         
      2310  -56.413476      0.41170673    -56.001769      0.029520714    353.90021     -310.52327      3375         
      2320  -56.317003      0.31226859    -56.004734      0.029520714    268.42388     -1675.3308      3375         
      2330  -56.388933      0.40166876    -55.987264      0.029520714    345.27164     -243.88322      3375         
      2340  -56.264012      0.3218565     -55.942155      0.029520714    276.66558      478.571        3375         
      2350  -56.348163      0.43305979    -55.915103      0.029520714    372.25515     -934.08094      3375         
      2360  -56.237939      0.34288236    -55.895056      0.029520714    294.73926     -1406.3289      3375         
      2370  -56.330866      0.46071355    -55.870153      0.029520714    396.02613      1321.6556      3375         
      2380  -56.30666       0.47631183    -55.830348      0.029520714    409.4343       2635.8534      3375         
      2390  -56.161945      0.38439744    -55.777548      0.029520714    330.42533     -710.95797      3375         
      2400  -56.090963      0.30512606    -55.785837      0.029520714    262.28421     -2427.5787      3375         
      2410  -56.337323      0.53513484    -55.802188      0.029520714    459.99814      794.36513      3375         
      2420  -56.16043       0.42757154    -55.732859      0.029520714    367.53749      2000.331       3375         
      2430  -56.318186      0.58577101    -55.732415      0.029520714    503.52464     -973.34903      3375         
      2440  -56.213903      0.47395672    -55.739946      0.029520714    407.40986     -1964.1705      3375         
      2450  -56.268701      0.51794513    -55.750756      0.029520714    445.22199      569.24821      3375         
      2460  -56.082915      0.3422327     -55.740683      0.029520714    294.18082      2167.2164      3375         
      2470  -56.315034      0.57571718    -55.739317      0.029520714    494.88244      135.48487      3375         
      2480  -56.285114      0.52773654    -55.757378      0.029520714    453.63862     -1966.1132      3375         
      2490  -56.295115      0.51314631    -55.781969      0.029520714    441.09696     -322.0536       3375         
      2500  -56.215574      0.41901228    -55.796562      0.029520714    360.18001      1382.5748      3375         
      2510  -56.229769      0.42785459    -55.801914      0.029520714    367.78079     -1099.0048      3375         
      2520  -56.244918      0.40829252    -55.836626      0.029520714    350.96538     -1583.711       3375         
      2530  -56.380047      0.49351668    -55.88653       0.029520714    424.22346      1539.66        3375         
      2540  -56.128027      0.28803993    -55.839987      0.029520714    247.5971       2420.8962      3375         
      2550  -56.262073      0.39541299    -55.86666       0.029520714    339.89422     -175.35022      3375         
      2560  -56.346876      0.44562485    -55.901251      0.029520714    383.05598     -1894.0844      3375         
      2570  -56.357255      0.4319885     -55.925267      0.029520714    371.33428     -394.97013      3375         
      2580  -56.227727      0.28378482    -55.943943      0.029520714    243.93944      983.04373      3375         
      2590  -56.363562      0.41893107    -55.94463       0.029520714    360.1102      -73.94664       3375         
      2600  -56.332905      0.36747817    -55.965427      0.029520714    315.88164     -1342.8065      3375         
      2610  -56.27378       0.28667039    -55.987109      0.029520714    246.41985      21.835651      3375         
      2620  -56.378069      0.38783072    -55.990238      0.029520714    333.37656      1523.1803      3375         
      2630  -56.484528      0.49009706    -55.994431      0.029520714    421.28398      138.31233      3375         
      2640  -56.240866      0.2321955     -56.008671      0.029520714    199.59361     -1122.736       3375         
      2650  -56.368822      0.33921115    -56.029611      0.029520714    291.58352      260.01819      3375         
      2660  -56.368945      0.34765643    -56.021288      0.029520714    298.84302      1450.7641      3375         
      2670  -56.365722      0.35666935    -56.009053      0.029520714    306.59047     -598.81605      3375         
      2680  -56.299291      0.26789814    -56.031393      0.029520714    230.28335     -2095.1802      3375         
      2690  -56.444803      0.39092939    -56.053873      0.029520714    336.04015      214.37678      3375         
      2700  -56.295113      0.25969656    -56.035416      0.029520714    223.23334      2208.1118      3375         
      2710  -56.338459      0.3127249     -56.025734      0.029520714    268.81613      830.7154       3375         
      2720  -56.328558      0.29428066    -56.034277      0.029520714    252.96159     -1597.6927      3375         
      2730  -56.405005      0.36624622    -56.038759      0.029520714    314.82267     -1136.3338      3375         
      2740  -56.37151       0.32409262    -56.047418      0.029520714    278.58773      971.86071      3375         
      2750  -56.417845      0.39073408    -56.027111      0.029520714    335.87227     -130.59016      3375         
      2760  -56.30326       0.26802999    -56.03523       0.029520714    230.39669     -1697.5043      3375         
      2770  -56.463686      0.39252921    -56.071157      0.029520714    337.41534      513.71373      3375         
      2780  -56.253108      0.22889053    -56.024218      0.029520714    196.75269      2759.5805      3375         
      2790  -56.341848      0.34184721    -56.000001      0.029520714    293.84945      467.97932      3375         
      2800  -56.415875      0.39001283    -56.025862      0.029520714    335.25228     -1940.811       3375         
      2810  -56.3968        0.36879393    -56.028006      0.029520714    317.01267     -559.11922      3375         
      2820  -56.274225      0.25075407    -56.023471      0.029520714    215.54643      1037.7543      3375         
      2830  -56.437508      0.42561981    -56.011888      0.029520714    365.8598       135.26581      3375         
      2840  -56.327503      0.3143191     -56.013184      0.029520714    270.18649     -1819.1713      3375         
      2850  -56.267205      0.25092339    -56.016282      0.029520714    215.69198     -765.01128      3375         
      2860  -56.319843      0.28468828    -56.035155      0.029520714    244.71604      2307.0688      3375         
      2870  -56.428587      0.45359052    -55.974997      0.029520714    389.90322      1327.461       3375         
      2880  -56.301883      0.30758412    -55.994299      0.029520714    264.39715     -1582.3638      3375         
      2890  -56.42328       0.41706538    -56.006215      0.029520714    358.50647     -671.10325      3375         
      2900  -56.23603       0.25800004    -55.97803       0.029520714    221.77502      1126.9668      3375         
      2910  -56.271562      0.29686939    -55.974693      0.029520714    255.18684     -342.11775      3375         
      2920  -56.377946      0.40863404    -55.969312      0.029520714    351.25895     -1605.6087      3375         
      2930  -56.421966      0.45675917    -55.965207      0.029520714    392.62697      156.28506      3375         
      2940  -56.331717      0.36383339    -55.967883      0.029520714    312.74862      2399.2246      3375         
      2950  -56.30913       0.40870103    -55.900429      0.029520714    351.31653      1416.784       3375         
      2960  -56.239054      0.31804471    -55.921009      0.029520714    273.389       -2053.6952      3375         
      2970  -56.301667      0.40651404    -55.895153      0.029520714    349.43661     -2349.6816      3375         
      2980  -56.323953      0.4365023     -55.88745       0.029520714    375.21431      1063.9113      3375         
      2990  -56.29118       0.45586409    -55.835316      0.029520714    391.85757      1033.8317      3375         
      3000  -56.18916       0.37619336    -55.812967      0.029520714    323.37316     -1306.2535      3375         
      3010  -56.419597      0.63066669    -55.78893       0.029520714    542.11665     -232.1516       3375         
      3020  -56.134599      0.37989135    -55.754708      0.029520714    326.55193      2419.5647      3375         
      3030  -56.046575      0.35676621    -55.689808      0.029520714    306.67372      827.81238      3375         
      3040  -56.282448      0.6113653     -55.671082      0.029520714    525.52531     -2010.8898      3375         
      3050  -56.18341       0.52873278    -55.654677      0.029520714    454.49498     -1065.5484      3375         
      3060  -56.093747      0.45536197    -55.638385      0.029520714    391.42595      1364.9163      3375         
      3070  -56.311436      0.73039298    -55.581043      0.029520714    627.84067      1046.7604      3375         
      3080  -56.104992      0.51297161    -55.59202       0.029520714    440.94679     -2005.1692      3375         
      3090  -56.076049      0.48181862    -55.59423       0.029520714    414.1679      -1654.5711      3375         
      3100  -56.080245      0.4739002     -55.606345      0.029520714    407.36128      2770.6229      3375         
      3110  -56.239762      0.67006889    -55.569693      0.029520714    575.9865       1996.2311      3375         
      3120  -56.102959      0.50160829    -55.601351      0.029520714    431.17896     -2621.3016      3375         
      3130  -56.296592      0.66886893    -55.627723      0.029520714    574.95502     -1822.9907      3375         
      3140  -56.257678      0.56396269    -55.693716      0.029520714    484.77836      2033.4223      3375         
      3150  -56.10369       0.43547625    -55.668214      0.029520714    374.33232      767.33586      3375         
      3160  -56.1595        0.43501781    -55.724483      0.029520714    373.93825     -1506.9415      3375         
      3170  -56.228411      0.45441084    -55.774         0.029520714    390.60836     -168.0652       3375         
      3180  -56.274768      0.47018661    -55.804582      0.029520714    404.1691       1695.418       3375         
      3190  -56.387239      0.56678384    -55.820456      0.029520714    487.2034       1355.8504      3375         
      3200  -56.212485      0.33955184    -55.872933      0.029520714    291.87638     -1778.0151      3375         
      3210  -56.258134      0.36082731    -55.897306      0.029520714    310.16462     -2283.6041      3375         
      3220  -56.266165      0.32637014    -55.939795      0.029520714    280.54547      1533.4665      3375         
      3230  -56.338382      0.42412649    -55.914256      0.029520714    364.57615      1504.5096      3375         
      3240  -56.359129      0.41391462    -55.945214      0.029520714    355.7981      -1792.6004      3375         
      3250  -56.349034      0.37895783    -55.970076      0.029520714    325.74949     -991.96419      3375         
      3260  -56.296897      0.30417772    -55.992719      0.029520714    261.46903      1679.7148      3375         
      3270  -56.28379       0.31601488    -55.967775      0.029520714    271.64416      1340.1004      3375         
      3280  -56.377309      0.3991905     -55.978118      0.029520714    343.14134     -808.46308      3375         
      3290  -56.291616      0.29359785    -55.998018      0.029520714    252.37465     -1203.2878      3375         
      3300  -56.386512      0.37289518    -56.013617      0.029520714    320.53807      714.74016      3375         
      3310  -56.408566      0.41662178    -55.991944      0.029520714    358.12515      1183.7851      3375         
      3320  -56.326219      0.31250295    -56.013716      0.029520714    268.62534     -1655.6028      3375         
      3330  -56.386201      0.36173235    -56.024469      0.029520714    310.94258     -1676.4676      3375         
      3340  -56.346199      0.2966174     -56.049582      0.029520714    254.97023      2045.6586      3375         
      3350  -56.251983      0.24068844    -56.011295      0.029520714    206.89409      2166.2085      3375         
      3360  -56.388699      0.36432575    -56.024374      0.029520714    313.17185     -1528.7826      3375         
      3370  -56.351209      0.31573167    -56.035477      0.029520714    271.40072     -2087.61        3375         
      3380  -56.459119      0.40084353    -56.058275      0.029520714    344.56228      687.81979      3375         
      3390  -56.302491      0.26763551    -56.034855      0.029520714    230.0576       1400.4259      3375         
      3400  -56.309275      0.27475236    -56.034523      0.029520714    236.1752      -786.80593      3375         
      3410  -56.289537      0.23662744    -56.05291       0.029520714    203.40328     -1110.7699      3375         
      3420  -56.439488      0.37593554    -56.063552      0.029520714    323.15155      1581.4457      3375         
      3430  -56.392351      0.37316136    -56.01919       0.029520714    320.76688      2064.9641      3375         
      3440  -56.375459      0.3383495     -56.03711       0.029520714    290.84285     -1468.0318      3375         
      3450  -56.343226      0.30169306    -56.041533      0.029520714    259.33323     -2511.3471      3375         
      3460  -56.38992       0.33088729    -56.059033      0.029520714    284.42838      841.39301      3375         
      3470  -56.295921      0.26532716    -56.030594      0.029520714    228.07336      1860.521       3375         
      3480  -56.455626      0.42988048    -56.025746      0.029520714    369.52224     -1273.7996      3375         
      3490  -56.302659      0.26917449    -56.033485      0.029520714    231.3805      -1799.4893      3375         
      3500  -56.468374      0.40714677    -56.061228      0.029520714    349.9805       1632.5298      3375         
      3510  -56.311384      0.30865291    -56.002731      0.029520714    265.31587      2492.288       3375         
      3520  -56.300571      0.2960408     -56.00453       0.029520714    254.47459     -919.24644      3375         
      3530  -56.282284      0.26810098    -56.014183      0.029520714    230.45772     -2307.9794      3375         
      3540  -56.357315      0.34188237    -56.015432      0.029520714    293.87968      315.00336      3375         
      3550  -56.369137      0.38090767    -55.98823       0.029520714    327.42555      1506.373       3375         
      3560  -56.368484      0.40122073    -55.967263      0.029520714    344.88652     -869.77665      3375         
      3570  -56.244978      0.27943775    -55.96554       0.029520714    240.20272     -1477.4587      3375         
      3580  -56.431299      0.45260823    -55.978691      0.029520714    389.05885      1918.2744      3375         
      3590  -56.201076      0.30112051    -55.899956      0.029520714    258.84107      2646.4477      3375         
      3600  -56.363102      0.45703541    -55.906066      0.029520714    392.86442     -2150.8231      3375         
      3610  -56.164413      0.28306393    -55.881349      0.029520714    243.31976     -3411.2691      3375         
      3620  -56.470969      0.57943849    -55.89153       0.029520714    498.08125      829.96118      3375         
      3630  -56.31462       0.48452062    -55.830099      0.029520714    416.49051      2575.2514      3375         
      3640  -56.17298       0.37278165    -55.800199      0.029520714    320.44048      60.141826      3375         
      3650  -56.146859      0.34518885    -55.801671      0.029520714    296.7219      -1434.7933      3375         
      3660  -56.277571      0.47686861    -55.800703      0.029520714    409.9129       768.83955      3375         
      3670  -56.235191      0.47905863    -55.756132      0.029520714    411.79543      1879.4492      3375         
      3680  -56.338937      0.5971885     -55.741749      0.029520714    513.33903     -1441.2219      3375         
      3690  -56.072358      0.33477873    -55.737579      0.029520714    287.77344     -2929.1987      3375         
      3700  -56.324299      0.55959654    -55.764703      0.029520714    481.02524      1078.7624      3375         
      3710  -56.032758      0.32592615    -55.706832      0.029520714    280.16382      3010.549       3375         
      3720  -56.303126      0.58565952    -55.717467      0.029520714    503.4288      -1285.0514      3375         
      3730  -56.159611      0.43208963    -55.727521      0.029520714    371.4212      -2205.4501      3375         
      3740  -56.304063      0.54849059    -55.755572      0.029520714    471.47865      1514.2502      3375         
      3750  -56.257068      0.52218187    -55.734886      0.029520714    448.86386      2234.5018      3375         
      3760  -56.240375      0.49742145    -55.742954      0.029520714    427.57998     -1001.8201      3375         
      3770  -56.095967      0.31944654    -55.776521      0.029520714    274.594       -2907.299       3375         
      3780  -56.31838       0.49060321    -55.827777      0.029520714    421.71907      221.52325      3375         
      3790  -56.291625      0.46869639    -55.822928      0.029520714    402.88812      2655.1427      3375         
      3800  -56.366102      0.50902671    -55.857076      0.029520714    437.55577     -41.846476      3375         
      3810  -56.120193      0.2191992     -55.900994      0.029520714    188.42209     -1699.947       3375         
      3820  -56.53154       0.57980405    -55.951736      0.029520714    498.39548      798.79688      3375         
      3830  -56.238938      0.26976657    -55.969172      0.029520714    231.88944      1884.3035      3375         
      3840  -56.264046      0.2656702     -55.998376      0.029520714    228.36823     -1769.628       3375         
      3850  -56.370118      0.34942977    -56.020688      0.029520714    300.36737     -2512.2116      3375         
      3860  -56.458569      0.37997681    -56.078592      0.029520714    326.62539      1036.5905      3375         
      3870  -56.329681      0.27982955    -56.049852      0.029520714    240.53951      2475.0543      3375         
      3880  -56.403881      0.34651748    -56.057363      0.029520714    297.86398      133.16524      3375         
      3890  -56.281649      0.1996311     -56.082018      0.029520714    171.60149     -1870.4355      3375         
      3900  -56.443988      0.34205173    -56.101936      0.029520714    294.02526     -36.72062       3375         
      3910  -56.347341      0.2503116     -56.097029      0.029520714    215.16609      1951.7933      3375         
      3920  -56.48241       0.40119211    -56.081218      0.029520714    344.86191     -613.32009      3375         
      3930  -56.291478      0.19238667    -56.099092      0.029520714    165.37422     -2363.0013      3375         
      3940  -56.49754       0.37929373    -56.118246      0.029520714    326.03822      425.26972      3375         
      3950  -56.381513      0.28536944    -56.096143      0.029520714    245.30156      2103.3891      3375         
      3960  -56.319599      0.23049794    -56.089101      0.029520714    198.1344      -184.43252      3375         
      3970  -56.336413      0.23528511    -56.101127      0.029520714    202.24942     -1265.9791      3375         
      3980  -56.514922      0.40575085    -56.109171      0.029520714    348.78058      611.64676      3375         
      3990  -56.406878      0.32648538    -56.080393      0.029520714    280.64454      1494.7777      3375         
      4000  -56.404278      0.32719019    -56.077088      0.029520714    281.25038     -1016.1677      3375         
      4010  -56.272304      0.18954853    -56.082755      0.029520714    162.93458     -2644.7903      3375         
      4020  -56.47392       0.37463977    -56.09928       0.029520714    322.03771      337.20989      3375         
      4030  -56.264935      0.18763404    -56.077301      0.029520714    161.2889       2898.0444      3375         
      4040  -56.428156      0.39044392    -56.037712      0.029520714    335.62284      519.34741      3375         
      4050  -56.359853      0.30812923    -56.051724      0.029520714    264.86572     -1843.6313      3375         
      4060  -56.374625      0.32273334    -56.051892      0.029520714    277.4193      -129.15787      3375         
      4070  -56.33892       0.31028413    -56.028635      0.029520714    266.71805      1297.0072      3375         
      4080  -56.354215      0.33984597    -56.014369      0.029520714    292.12921     -986.06486      3375         
      4090  -56.2863        0.27656628    -56.009734      0.029520714    237.73443     -2003.4879      3375         
      4100  -56.431653      0.4144194     -56.017234      0.029520714    356.232        812.83602      3375         
      4110  -56.334922      0.36066624    -55.974256      0.029520714    310.02617      2519.1468      3375         
      4120  -56.380712      0.44294816    -55.937764      0.029520714    380.75513      73.1442        3375         
      4130  -56.224824      0.27941716    -55.945406      0.029520714    240.18503     -1902.1915      3375         
      4140  -56.438038      0.49400013    -55.944038      0.029520714    424.63903      88.813657      3375         
      4150  -56.15793       0.24693776    -55.910993      0.029520714    212.26596      1961.9506      3375         
      4160  -56.327167      0.43739655    -55.889771      0.029520714    375.98299     -694.26857      3375         
      4170  -56.341301      0.46062818    -55.880673      0.029520714    395.95274     -3002.4213      3375         
      4180  -56.368884      0.48348512    -55.885399      0.029520714    415.6004       30.556055      3375         
      4190  -56.161285      0.2993032     -55.861981      0.029520714    257.27892      2813.124       3375         
      4200  -56.20373       0.38457991    -55.81915       0.029520714    330.58219      809.89402      3375         
      4210  -56.17728       0.35499132    -55.822289      0.029520714    305.14804     -1227.518       3375         
      4220  -56.371878      0.5521094     -55.819769      0.029520714    474.58936      92.539498      3375         
      4230  -56.176669      0.38605124    -55.790618      0.029520714    331.84693      997.52586      3375         
      4240  -56.396503      0.61757204    -55.778931      0.029520714    530.86058     -1231.3757      3375         
      4250  -56.115549      0.34448204    -55.771066      0.029520714    296.11434     -2646.8023      3375         
      4260  -56.33794       0.54779021    -55.790149      0.029520714    470.87661      103.34336      3375         
      4270  -56.138481      0.36729339    -55.771187      0.029520714    315.72281      3591.9783      3375         
      4280  -56.169104      0.448153      -55.720951      0.029520714    385.22916      1468.3075      3375         
      4290  -56.262362      0.51240181    -55.749961      0.029520714    440.45699     -2622.7043      3375         
      4300  -56.393214      0.63279914    -55.760415      0.029520714    543.94969     -811.71515      3375         
      4310  -56.161221      0.39645409    -55.764767      0.029520714    340.78915      1500.7165      3375         
      4320  -56.13222       0.37255265    -55.759667      0.029520714    320.24363     -712.60692      3375         
      4330  -56.209646      0.42462213    -55.785024      0.029520714    365.0022      -1745.1654      3375         
      4340  -56.337135      0.51281055    -55.824324      0.029520714    440.80834      298.15319      3375         
      4350  -56.141778      0.2997861     -55.841992      0.029520714    257.69402      2164.9828      3375         
      4360  -56.335935      0.49630755    -55.839628      0.029520714    426.62248      1117.1241      3375         
      4370  -56.256814      0.36247655    -55.894337      0.029520714    311.58229     -1307.1988      3375         
      4380  -56.333504      0.39765097    -55.935853      0.029520714    341.81798     -981.43665      3375         
      4390  -56.225875      0.2659321     -55.959943      0.029520714    228.59336      1326.2024      3375         
      4400  -56.332813      0.35750943    -55.975303      0.029520714    307.31259     -372.89102      3375         
      4410  -56.403692      0.39196726    -56.011725      0.029520714    336.9323      -2533.6932      3375         
      4420  -56.439862      0.38543236    -56.05443       0.029520714    331.31495      131.23139      3375         
      4430  -56.36822       0.29361497    -56.074605      0.029520714    252.38936      2397.8699      3375         
      4440  -56.371582      0.31152494    -56.060057      0.029520714    267.78465      1012.5699      3375         
      4450  -56.28034       0.199951      -56.080389      0.029520714    171.87647     -868.38189      3375         
      4460  -56.414887      0.30882421    -56.106063      0.029520714    265.46312     -787.69987      3375         
      4470  -56.371465      0.2556791     -56.115786      0.029520714    219.77996      719.90927      3375         
      4480  -56.45864       0.35088242    -56.107758      0.029520714    301.61606     -53.437442      3375         
      4490  -56.408901      0.28110987    -56.127791      0.029520714    241.64006     -1887.5585      3375         
      4500  -56.444963      0.29792291    -56.14704       0.029520714    256.09244     -344.52002      3375         
      4510  -56.297318      0.15332264    -56.143996      0.029520714    131.79506      2565.5506      3375         
      4520  -56.364818      0.24267994    -56.122138      0.029520714    208.60597      1126.3198      3375         
      4530  -56.480763      0.34489434    -56.135869      0.029520714    296.46875     -1861.9014      3375         
      4540  -56.421471      0.27821298    -56.143258      0.029520714    239.14992     -974.36079      3375         
      4550  -56.326371      0.17438618    -56.151985      0.029520714    149.90113      977.31558      3375         
      4560  -56.482202      0.36059352    -56.121608      0.029520714    309.96366     -38.741613      3375         
      4570  -56.369488      0.23725728    -56.132231      0.029520714    203.94469     -1298.6212      3375         
      4580  -56.426054      0.28087071    -56.145183      0.029520714    241.43449     -19.292862      3375         
      4590  -56.372332      0.25001304    -56.122319      0.029520714    214.90945      2122.071       3375         
      4600  -56.429276      0.33253262    -56.096743      0.029520714    285.8427       1207.2193      3375         
      4610  -56.399142      0.30488907    -56.094253      0.029520714    262.0805      -1517.0445      3375         
      4620  -56.450251      0.35947843    -56.090773      0.029520714    309.00513     -1346.1705      3375         
      4630  -56.308674      0.22133935    -56.087334      0.029520714    190.26175      1120.7334      3375         
      4640  -56.287135      0.23283568    -56.0543        0.029520714    200.14391      107.32075      3375         
      4650  -56.438341      0.38908864    -56.049252      0.029520714    334.45786     -2197.9442      3375         
      4660  -56.460003      0.41270801    -56.047295      0.029520714    354.7609      -81.257207      3375         
      4670  -56.240813      0.22034842    -56.020464      0.029520714    189.40995      2669.7941      3375         
      4680  -56.366636      0.40156689    -55.965069      0.029520714    345.18407      1172.8846      3375         
      4690  -56.232226      0.26816004    -55.964066      0.029520714    230.50849     -1550.282       3375         
      4700  -56.28336       0.32898677    -55.954373      0.029520714    282.79472     -1395.787       3375         
      4710  -56.297505      0.35489016    -55.942615      0.029520714    305.06108      1076.7075      3375         
      4720  -56.339366      0.44171265    -55.897654      0.029520714    379.69309      833.84589      3375         
      4730  -56.351161      0.46950445    -55.881657      0.029520714    403.58273     -2021.386       3375         
      4740  -56.354042      0.47454522    -55.879497      0.029520714    407.91573     -880.63665      3375         
      4750  -56.201558      0.32112713    -55.880431      0.029520714    276.03862      2989.5739      3375         
      4760  -56.186436      0.37410693    -55.812329      0.029520714    321.57968      1726.149       3375         
      4770  -56.280615      0.43870969    -55.841905      0.029520714    377.11176     -2720.3673      3375         
      4780  -56.315361      0.48333773    -55.832023      0.029520714    415.47371     -1902.835       3375         
      4790  -56.239735      0.39667313    -55.843062      0.029520714    340.97743      1461.5202      3375         
      4800  -56.332265      0.51380879    -55.818456      0.029520714    441.66642      1069.7997      3375         
      4810  -56.145068      0.32422966    -55.820838      0.029520714    278.70553     -1311.4911      3375         
      4820  -56.253938      0.41705927    -55.836879      0.029520714    358.50121     -1101.6974      3375         
      4830  -56.362532      0.49291829    -55.869614      0.029520714    423.7091       1907.8305      3375         
      4840  -56.130558      0.32545951    -55.805098      0.029520714    279.76271      2257.8912      3375         
      4850  -56.281644      0.44323526    -55.838409      0.029520714    381.00191     -1483.7472      3375         
      4860  -56.304261      0.44918377    -55.855077      0.029520714    386.11521     -2181.4359      3375         
      4870  -56.229761      0.35461132    -55.87515       0.029520714    304.8214       1391.6654      3375         
      4880  -56.307606      0.44716352    -55.860443      0.029520714    384.37862      1041.424       3375         
      4890  -56.252134      0.36846389    -55.88367       0.029520714    316.72897     -2175.7406      3375         
      4900  -56.255195      0.35730186    -55.897893      0.029520714    307.13416     -1020.0186      3375         
      4910  -56.395274      0.46461728    -55.930657      0.029520714    399.38174      2117.2051      3375         
      4920  -56.384981      0.48851911    -55.896462      0.029520714    419.92759      1649.0998      3375         
      4930  -56.231659      0.31100221    -55.920657      0.029520714    267.33531     -1266.7663      3375         
      4940  -56.256568      0.31194094    -55.944628      0.029520714    268.14224     -1574.6416      3375         
      4950  -56.340953      0.37287421    -55.968079      0.029520714    320.52005      902.9903       3375         
      4960  -56.246565      0.31023712    -55.936328      0.029520714    266.67764      1434.2713      3375         
      4970  -56.38998       0.43505202    -55.954928      0.029520714    373.96766     -1255.9082      3375         
      4980  -56.383581      0.41120706    -55.972374      0.029520714    353.4707      -1564.9727      3375         
      4990  -56.210904      0.22149625    -55.989407      0.029520714    190.39662      1783.0208      3375         
      5000  -56.335867      0.37232199    -55.963545      0.029520714    320.04536      1677.2391      3375         
      5010  -56.33412       0.35564609    -55.978474      0.029520714    305.71088     -1789.5411      3375         
      5020  -56.283062      0.29547906    -55.987583      0.029520714    253.99172     -1335.6716      3375         
      5030  -56.390668      0.38756997    -56.003098      0.029520714    333.15242      1337.3257      3375         
      5040  -56.324722      0.35141418    -55.973308      0.029520714    302.07316      750.22862      3375         
      5050  -56.325947      0.33821316    -55.987734      0.029520714    290.72565     -1458.9472      3375         
      5060  -56.344047      0.34352467    -56.000522      0.029520714    295.29139     -1084.9403      3375         
      5070  -56.402417      0.38294393    -56.019473      0.029520714    329.1759       1401.4319      3375         
      5080  -56.274472      0.29134526    -55.983126      0.029520714    250.43833      2338.0518      3375         
      5090  -56.358669      0.38039287    -55.978276      0.029520714    326.98303     -560.81936      3375         
      5100  -56.386759      0.38743208    -55.999327      0.029520714    333.03389     -2259.6775      3375         
      5110  -56.320512      0.30766999    -56.012842      0.029520714    264.47096      707.18407      3375         
      5120  -56.345422      0.35269857    -55.992724      0.029520714    303.17721      989.00734      3375         
      5130  -56.320084      0.31722109    -56.002863      0.029520714    272.68102     -1854.8506      3375         
      5140  -56.347703      0.33570292    -56.012         0.029520714    288.56787     -758.56431      3375         
      5150  -56.431999      0.41350385    -56.018495      0.029520714    355.445        1917.3573      3375         
      5160  -56.28562       0.29047613    -55.995144      0.029520714    249.69124      1334.1434      3375         
      5170  -56.360897      0.36689998    -55.993997      0.029520714    315.38464     -998.88845      3375         
      5180  -56.366806      0.35922705    -56.007578      0.029520714    308.78905     -1626.292       3375         
      5190  -56.325852      0.29356005    -56.032291      0.029520714    252.34215      415.72368      3375         
      5200  -56.289054      0.30120867    -55.987846      0.029520714    258.91685      1712.9972      3375         
      5210  -56.337032      0.34401902    -55.993013      0.029520714    295.71633     -792.53024      3375         
      5220  -56.342822      0.33738707    -56.005435      0.029520714    290.01555     -1848.8236      3375         
      5230  -56.463393      0.45207522    -56.011318      0.029520714    388.60068      1680.5597      3375         
      5240  -56.378245      0.39345096    -55.984794      0.029520714    338.20767      1995.9766      3375         
      5250  -56.246486      0.2564115     -55.990074      0.029520714    220.40952     -1650.3179      3375         
      5260  -56.297479      0.302098      -55.995381      0.029520714    259.68132     -1509.7286      3375         
      5270  -56.516577      0.50982753    -56.006749      0.029520714    438.24416      795.17585      3375         
      5280  -56.262339      0.28288927    -55.97945       0.029520714    243.16963      590.81039      3375         
      5290  -56.332099      0.35010291    -55.981997      0.029520714    300.946       -1052.1642      3375         
      5300  -56.376395      0.37994228    -55.996453      0.029520714    326.59571     -840.45593      3375         
      5310  -56.262121      0.25801822    -56.004103      0.029520714    221.79065      1537.3457      3375         
      5320  -56.385819      0.43342776    -55.952391      0.029520714    372.57145      2360.9699      3375         
      5330  -56.377453      0.42205616    -55.955397      0.029520714    362.79651     -884.25568      3375         
      5340  -56.179005      0.2169246     -55.962081      0.029520714    186.46686     -2799.0424      3375         
      5350  -56.384738      0.42050448    -55.964234      0.029520714    361.4627       615.45827      3375         
      5360  -56.404238      0.4635704     -55.940668      0.029520714    398.48186      1631.6764      3375         
      5370  -56.254395      0.33051697    -55.923878      0.029520714    284.11006     -1463.8411      3375         
      5380  -56.260917      0.33362281    -55.927295      0.029520714    286.77982     -751.36146      3375         
      5390  -56.450579      0.51620054    -55.934378      0.029520714    443.72235      1746.2975      3375         
      5400  -56.234377      0.36073217    -55.873645      0.029520714    310.08283      996.49715      3375         
      5410  -56.380541      0.49805957    -55.882481      0.029520714    428.12851     -1280.0547      3375         
      5420  -56.331765      0.45017175    -55.881594      0.029520714    386.96447     -1687.2089      3375         
      5430  -56.192022      0.31075426    -55.881267      0.029520714    267.12217      705.4379       3375         
      5440  -56.311911      0.45703235    -55.854879      0.029520714    392.86179      2263.324       3375         
      5450  -56.335836      0.50240245    -55.833434      0.029520714    431.86161     -844.34651      3375         
      5460  -56.132217      0.28998535    -55.842232      0.029520714    249.26937     -2431.6334      3375         
      5470  -56.421014      0.55280296    -55.868211      0.029520714    475.18553      1457.2052      3375         
      5480  -56.288784      0.47729009    -55.811494      0.029520714    410.2752       2502.5792      3375         
      5490  -56.230642      0.40927367    -55.821369      0.029520714    351.80877     -1415.3176      3375         
      5500  -56.246893      0.41601632    -55.830877      0.029520714    357.6047      -1970.0673      3375         
      5510  -56.298975      0.45434663    -55.844629      0.029520714    390.55316      803.28473      3375         
      5520  -56.163228      0.33535062    -55.827878      0.029520714    288.26504      871.56202      3375         
      5530  -56.400874      0.56093334    -55.83994       0.029520714    482.17436     -985.11439      3375         
      5540  -56.297679      0.44413091    -55.853548      0.029520714    381.7718      -1178.0015      3375         
      5550  -56.233383      0.35023109    -55.883152      0.029520714    301.05618      1066.2664      3375         
      5560  -56.315335      0.4444928     -55.870842      0.029520714    382.08289      2388.2161      3375         
      5570  -56.271025      0.40369665    -55.867328      0.029520714    347.0148      -353.97519      3375         
      5580  -56.249173      0.34275402    -55.906419      0.029520714    294.62894     -2401.6269      3375         
      5590  -56.526147      0.57476456    -55.951383      0.029520714    494.06357      286.73292      3375         
      5600  -56.160532      0.22470265    -55.935829      0.029520714    193.15281      1726.2634      3375         
      5610  -56.296351      0.331332      -55.965019      0.029520714    284.81065     -1036.4462      3375         
      5620  -56.404763      0.41033761    -55.994425      0.029520714    352.72332     -1383.2301      3375         
      5630  -56.311792      0.29194692    -56.019845      0.029520714    250.95552      1157.4816      3375         
      5640  -56.311328      0.28245251    -56.028875      0.029520714    242.79419      1285.1152      3375         
      5650  -56.426062      0.38376136    -56.042301      0.029520714    329.87856     -722.79248      3375         
      5660  -56.291183      0.22603928    -56.065144      0.029520714    194.30177     -1007.4826      3375         
      5670  -56.378861      0.28636574    -56.092496      0.029520714    246.15797      206.21051      3375         
      5680  -56.455778      0.37008245    -56.085696      0.029520714    318.12027      880.22036      3375         
      5690  -56.334358      0.23772353    -56.096635      0.029520714    204.34547     -275.36858      3375         
      5700  -56.270412      0.15572807    -56.114684      0.029520714    133.86275     -1280.3722      3375         
      5710  -56.523136      0.38518487    -56.137952      0.029520714    331.1022       704.10543      3375         
      5720  -56.411478      0.29582634    -56.115652      0.029520714    254.29024      2246.087       3375         
      5730  -56.391728      0.27297228    -56.118756      0.029520714    234.64505     -590.7132       3375         
      5740  -56.373322      0.23767361    -56.135649      0.029520714    204.30256     -2024.8629      3375         
      5750  -56.375009      0.23275868    -56.14225       0.029520714    200.07772      250.48928      3375         
      5760  -56.442136      0.30265646    -56.13948       0.029520714    260.16137      398.38529      3375         
      5770  -56.457134      0.31746091    -56.139673      0.029520714    272.88717     -496.63301      3375         
      5780  -56.340866      0.20004445    -56.140822      0.029520714    171.95681      149.80236      3375         
      5790  -56.398373      0.25485832    -56.143514      0.029520714    219.07442      717.24365      3375         
      5800  -56.425293      0.29860096    -56.126692      0.029520714    256.67528      1030.8612      3375         
      5810  -56.40088       0.28796745    -56.112913      0.029520714    247.5348      -223.43514      3375         
      5820  -56.333969      0.21434896    -56.11962       0.029520714    184.25285     -2128.4889      3375         
      5830  -56.438687      0.3061024     -56.132585      0.029520714    263.12347     -22.436855      3375         
      5840  -56.363415      0.26888538    -56.094529      0.029520714    231.13198      2091.9707      3375         
      5850  -56.433826      0.35715249    -56.076673      0.029520714    307.00577     -490.92639      3375         
      5860  -56.33608       0.26065029    -56.07543       0.029520714    224.05315     -1378.4492      3375         
      5870  -56.308266      0.24321909    -56.065047      0.029520714    209.06942      1138.3825      3375         
      5880  -56.400479      0.36336212    -56.037117      0.029520714    312.34352      837.59169      3375         
      5890  -56.385166      0.38200743    -56.003158      0.029520714    328.3709      -718.22341      3375         
      5900  -56.284328      0.30080006    -55.983528      0.029520714    258.56562     -950.23285      3375         
      5910  -56.376946      0.41367489    -55.963271      0.029520714    355.59202     -396.22347      3375         
      5920  -56.267158      0.35157742    -55.91558       0.029520714    302.21347      1121.3991      3375         
      5930  -56.281315      0.40580237    -55.875512      0.029520714    348.82486      350.23552      3375         
      5940  -56.228543      0.37373442    -55.854809      0.029520714    321.25948     -1384.2838      3375         
      5950  -56.313277      0.47569217    -55.837585      0.029520714    408.90164      947.93773      3375         
      5960  -56.077395      0.28836113    -55.789034      0.029520714    247.8732       2674.9306      3375         
      5970  -56.327024      0.56437176    -55.762653      0.029520714    485.13        -1382.349       3375         
      5980  -56.274591      0.51108459    -55.763506      0.029520714    439.32472     -3174.3376      3375         
      5990  -56.134449      0.37267771    -55.761771      0.029520714    320.35113      393.56634      3375         
      6000  -56.246903      0.48624315    -55.760659      0.029520714    417.97119      1501.0294      3375         
      6010  -56.188754      0.4543752     -55.734379      0.029520714    390.57773      485.06023      3375         
      6020  -56.157274      0.40504843    -55.752225      0.029520714    348.17678     -221.54929      3375         
      6030  -56.409866      0.6409417     -55.768924      0.029520714    550.94898     -324.68224      3375         
      6040  -56.115646      0.35571081    -55.759935      0.029520714    305.76651      818.11981      3375         
      6050  -56.158121      0.38621301    -55.771908      0.029520714    331.98599     -143.6567       3375         
      6060  -56.245381      0.45798802    -55.787393      0.029520714    393.68328     -2047.5504      3375         
      6070  -56.337244      0.52786846    -55.809376      0.029520714    453.75202      234.99859      3375         
      6080  -56.194885      0.3755086     -55.819376      0.029520714    322.78455      2696.7291      3375         
      6090  -56.272568      0.46539408    -55.807174      0.029520714    400.04947     -329.30977      3375         
      6100  -56.222358      0.38041631    -55.841942      0.029520714    327.00318     -2060.5782      3375         
      6110  -56.255775      0.37940621    -55.876369      0.029520714    326.13491      655.94859      3375         
      6120  -56.326749      0.45768715    -55.869062      0.029520714    393.42466      1195.0782      3375         
      6130  -56.318825      0.43277005    -55.886055      0.029520714    372.00609     -419.80907      3375         
      6140  -56.13075       0.22064583    -55.910104      0.029520714    189.6656      -970.13079      3375         
      6150  -56.394843      0.46364082    -55.931203      0.029520714    398.54238     -648.702        3375         
      6160  -56.394236      0.44286664    -55.951369      0.029520714    380.68505      982.27113      3375         
      6170  -56.256556      0.30265601    -55.9539        0.029520714    260.16098      804.14479      3375         
      6180  -56.219663      0.24958103    -55.970082      0.029520714    214.5381      -1013.1189      3375         
      6190  -56.376974      0.38092504    -55.996049      0.029520714    327.44048      169.11153      3375         
      6200  -56.320961      0.32543482    -55.995526      0.029520714    279.74148      1886.1455      3375         
      6210  -56.370947      0.36836423    -56.002583      0.029520714    316.6433      -790.96336      3375         
      6220  -56.360874      0.33684623    -56.024028      0.029520714    289.55065     -2190.5153      3375         
      6230  -56.347953      0.29688104    -56.051072      0.029520714    255.19685      386.73144      3375         
      6240  -56.366449      0.32333324    -56.043116      0.029520714    277.93498      1220.1846      3375         
      6250  -56.401322      0.3508708     -56.050452      0.029520714    301.60607      230.85876      3375         
      6260  -56.331209      0.26970099    -56.061508      0.029520714    231.83307     -377.87632      3375         
      6270  -56.407508      0.33087787    -56.07663       0.029520714    284.42029     -472.70786      3375         
      6280  -56.314549      0.22853632    -56.086012      0.029520714    196.44822      591.23075      3375         
      6290  -56.433634      0.35860113    -56.075033      0.029520714    308.25101      313.29738      3375         
      6300  -56.413399      0.3249517     -56.088447      0.029520714    279.3262      -1235.7362      3375         
      6310  -56.311727      0.20910581    -56.102621      0.029520714    179.74588     -211.91053      3375         
      6320  -56.348104      0.25317317    -56.094931      0.029520714    217.62587      1583.4192      3375         
      6330  -56.460264      0.37327513    -56.086989      0.029520714    320.86467     -20.269254      3375         
      6340  -56.362484      0.26349307    -56.098991      0.029520714    226.49679     -1298.5755      3375         
      6350  -56.388157      0.27617016    -56.111987      0.029520714    237.39393      577.80572      3375         
      6360  -56.395923      0.30481073    -56.091112      0.029520714    262.01316      1144.2279      3375         
[...]
     48420  -56.38835       0.36379348    -56.024556      0.029520714    312.71432      1375.3221      3375         
     48430  -56.371747      0.35571426    -56.016033      0.029520714    305.76948     -391.98869      3375         
     48440  -56.291212      0.26939629    -56.021816      0.029520714    231.57116     -1244.6344      3375         
     48450  -56.338964      0.31944832    -56.019516      0.029520714    274.59553      203.01407      3375         
     48460  -56.400872      0.39987708    -56.000995      0.029520714    343.73152      341.91358      3375         
     48470  -56.368041      0.36658886    -56.001452      0.029520714    315.1172      -589.60847      3375         
     48480  -56.353653      0.35311133    -56.000542      0.029520714    303.53201      55.460654      3375         
     48490  -56.343197      0.34449175    -55.998705      0.029520714    296.12269      624.75856      3375         
     48500  -56.347446      0.35226758    -55.995179      0.029520714    302.80673      92.859645      3375         
     48510  -56.365693      0.37793611    -55.987757      0.029520714    324.87122     -100.9489       3375         
     48520  -56.353362      0.36254286    -55.990819      0.029520714    311.63929     -168.3444       3375         
     48530  -56.348862      0.35738346    -55.991479      0.029520714    307.20431      11.594928      3375         
     48540  -56.31336       0.32898096    -55.984379      0.029520714    282.78972      198.11118      3375         
     48550  -56.318748      0.32870547    -55.990043      0.029520714    282.55291     -777.59094      3375         
     48560  -56.384408      0.38579369    -55.998615      0.029520714    331.62554     -625.96615      3375         
     48570  -56.396149      0.39997555    -55.996173      0.029520714    343.81617      1100.9829      3375         
     48580  -56.273305      0.29224754    -55.981057      0.029520714    251.21393      1073.3935      3375         
     48590  -56.258152      0.28108012    -55.977072      0.029520714    241.6145      -557.43471      3375         
     48600  -56.350372      0.36260287    -55.98777       0.029520714    311.69087     -602.20227      3375         
     48610  -56.365302      0.37391391    -55.991388      0.029520714    321.41376      244.09997      3375         
     48620  -56.338106      0.35613544    -55.981971      0.029520714    306.13152     -406.06298      3375         
     48630  -56.318776      0.32987073    -55.988905      0.029520714    283.55456     -440.42915      3375         
     48640  -56.323468      0.3330594     -55.990408      0.029520714    286.29551      462.89959      3375         
     48650  -56.324913      0.35452524    -55.970388      0.029520714    304.7474       632.13254      3375         
     48660  -56.401523      0.42479185    -55.976731      0.029520714    365.14809      66.344975      3375         
     48670  -56.400082      0.4209577     -55.979124      0.029520714    361.85228     -546.19067      3375         
     48680  -56.357691      0.37623258    -55.981459      0.029520714    323.40688     -495.3776       3375         
     48690  -56.365032      0.37096441    -55.994067      0.029520714    318.8784       645.8659       3375         
     48700  -56.314851      0.34341866    -55.971432      0.029520714    295.20027      758.6789       3375         
     48710  -56.317628      0.34404942    -55.973579      0.029520714    295.74246     -751.65659      3375         
     48720  -56.351988      0.36408073    -55.987908      0.029520714    312.96123     -679.57409      3375         
     48730  -56.315718      0.32485989    -55.990858      0.029520714    279.24727      564.33576      3375         
     48740  -56.27498       0.28960114    -55.985379      0.029520714    248.9391       78.281371      3375         
     48750  -56.260608      0.26362032    -55.996987      0.029520714    226.60618     -411.34474      3375         
     48760  -56.353399      0.36344755    -55.989952      0.029520714    312.41696      412.17709      3375         
     48770  -56.401586      0.41998318    -55.981603      0.029520714    361.01459      504.15063      3375         
     48780  -56.288518      0.30034421    -55.988174      0.029520714    258.17377     -154.62511      3375         
     48790  -56.268114      0.2796145     -55.9885        0.029520714    240.35466     -747.99055      3375         
     48800  -56.422693      0.42558083    -55.997112      0.029520714    365.82628     -559.33895      3375         
     48810  -56.406408      0.39348584    -56.012923      0.029520714    338.23766      848.11849      3375         
     48820  -56.327362      0.35322151    -55.974141      0.029520714    303.62673      889.60947      3375         
     48830  -56.360337      0.36680975    -55.993527      0.029520714    315.30708     -888.46627      3375         
     48840  -56.318682      0.31190149    -56.00678       0.029520714    268.10833     -490.68662      3375         
     48850  -56.297527      0.29482264    -56.002705      0.029520714    253.42747      1075.5219      3375         
     48860  -56.417586      0.40826947    -56.009316      0.029520714    350.94556      102.94033      3375         
     48870  -56.363736      0.34893004    -56.014806      0.029520714    299.9378      -755.74958      3375         
     48880  -56.233252      0.21552375    -56.017729      0.029520714    185.2627      -291.52539      3375         
     48890  -56.292842      0.26616726    -56.026674      0.029520714    228.79551      159.12981      3375         
     48900  -56.423216      0.40581846    -56.017397      0.029520714    348.8387       42.838897      3375         
     48910  -56.384803      0.35993036    -56.024873      0.029520714    309.39361     -181.47811      3375         
     48920  -56.320157      0.27544004    -56.044716      0.029520714    236.76632      332.30926      3375         
     48930  -56.373494      0.34057622    -56.032918      0.029520714    292.75693      1385.4855      3375         
     48940  -56.415486      0.39292602    -56.02256       0.029520714    337.75644      211.2366       3375         
     48950  -56.267195      0.22725151    -56.039943      0.029520714    195.3438      -2278.3337      3375         
     48960  -56.396974      0.3494516     -56.047522      0.029520714    300.38613     -1235.7126      3375         
     48970  -56.465944      0.40940483    -56.05654       0.029520714    351.92151      1489.072       3375         
     48980  -56.294937      0.24696728    -56.04797       0.029520714    212.29133      1143.8649      3375         
     48990  -56.298695      0.25619318    -56.042501      0.029520714    220.22186      36.80935       3375         
     49000  -56.447331      0.39369274    -56.053638      0.029520714    338.41551      9.9869145      3375         
     49010  -56.351438      0.29630543    -56.055133      0.029520714    254.70206     -304.40574      3375         
     49020  -56.336136      0.28760443    -56.048532      0.029520714    247.22275     -680.01301      3375         
     49030  -56.392945      0.3367347     -56.05621       0.029520714    289.45477     -746.07661      3375         
     49040  -56.375104      0.31100895    -56.064095      0.029520714    267.3411      -158.96031      3375         
     49050  -56.384711      0.33260512    -56.052106      0.029520714    285.90502      1631.3731      3375         
     49060  -56.384712      0.34329466    -56.041418      0.029520714    295.09368      1185.9253      3375         
     49070  -56.336461      0.2943127     -56.042148      0.029520714    252.98913     -1446.7054      3375         
     49080  -56.389081      0.34079925    -56.048281      0.029520714    292.94864     -758.85386      3375         
     49090  -56.324936      0.27644873    -56.048487      0.029520714    237.63338      1029.7896      3375         
     49100  -56.336199      0.31424419    -56.021955      0.029520714    270.12209     -194.86515      3375         
     49110  -56.404157      0.37663146    -56.027525      0.029520714    323.74975     -1059.0514      3375         
     49120  -56.322685      0.29495099    -56.027734      0.029520714    253.5378      -41.194865      3375         
     49130  -56.28883       0.27110117    -56.017729      0.029520714    233.03665      594.91026      3375         
     49140  -56.424573      0.42087509    -56.003697      0.029520714    361.78127      886.11296      3375         
     49150  -56.323682      0.34291266    -55.980769      0.029520714    294.76531      174.68118      3375         
     49160  -56.33982       0.37054347    -55.969276      0.029520714    318.51656     -776.75613      3375         
     49170  -56.405506      0.44257201    -55.962934      0.029520714    380.43178      408.60667      3375         
     49180  -56.323873      0.3844607     -55.939412      0.029520714    330.47971      173.79063      3375         
     49190  -56.249617      0.32016       -55.929457      0.029520714    275.20728     -2152.6703      3375         
     49200  -56.349551      0.41274938    -55.936802      0.029520714    354.79646     -301.46557      3375         
     49210  -56.300401      0.38218413    -55.918217      0.029520714    328.52279      2672.8666      3375         
     49220  -56.287304      0.43258757    -55.854717      0.029520714    371.84923      1196.4354      3375         
     49230  -56.258617      0.39316379    -55.865453      0.029520714    337.96083     -1411.3736      3375         
     49240  -56.16941       0.30964361    -55.859766      0.029520714    266.16747     -1296.4933      3375         
     49250  -56.260225      0.40897563    -55.85125       0.029520714    351.55258      24.041528      3375         
     49260  -56.356505      0.52671508    -55.82979       0.029520714    452.76058      500.13542      3375         
     49270  -56.155912      0.34869053    -55.807222      0.029520714    299.73193     -398.86868      3375         
     49280  -56.263325      0.45630125    -55.807024      0.029520714    392.23334     -325.59864      3375         
     49290  -56.28847       0.49430702    -55.794163      0.029520714    424.90283      1685.975       3375         
     49300  -56.151702      0.38935809    -55.762344      0.029520714    334.68947      1031.7054      3375         
     49310  -56.317953      0.54510319    -55.77285       0.029520714    468.56687     -2027.4441      3375         
     49320  -56.341644      0.5628884     -55.778756      0.029520714    483.85491     -1141.6198      3375         
     49330  -56.130692      0.34641981    -55.784272      0.029520714    297.78003      1609.9922      3375         
     49340  -56.282443      0.52659359    -55.755849      0.029520714    452.65614      812.62107      3375         
     49350  -56.300355      0.52141589    -55.778939      0.029520714    448.20543     -1589.358       3375         
     49360  -56.178261      0.37925139    -55.79901       0.029520714    326.00183     -1012.8882      3375         
     49370  -56.270456      0.4337794     -55.836676      0.029520714    372.87372      1300.33        3375         
     49380  -56.244496      0.41989471    -55.824602      0.029520714    360.93854      1430.7463      3375         
     49390  -56.169413      0.32380954    -55.845603      0.029520714    278.3444      -381.85496      3375         
     49400  -56.385085      0.49948201    -55.885603      0.029520714    429.35122     -1156.639       3375         
     49410  -56.330299      0.40633117    -55.923968      0.029520714    349.27941      409.05933      3375         
     49420  -56.19026       0.24692775    -55.943332      0.029520714    212.25736      571.02997      3375         
     49430  -56.370514      0.39212698    -55.978387      0.029520714    337.0696      -1442.2946      3375         
     49440  -56.419366      0.39783063    -56.021536      0.029520714    341.97241     -737.49734      3375         
     49450  -56.329431      0.27182133    -56.057609      0.029520714    233.6557       1752.223       3375         
     49460  -56.359874      0.32019447    -56.03968       0.029520714    275.23692      1247.7798      3375         
     49470  -56.414856      0.33845928    -56.076397      0.029520714    290.93722     -1352.6122      3375         
     49480  -56.415026      0.31381352    -56.101213      0.029520714    269.75189     -1176.3457      3375         
     49490  -56.368494      0.2452431     -56.123251      0.029520714    210.80924      957.48268      3375         
     49500  -56.378798      0.26744396    -56.111354      0.029520714    229.89294      991.57561      3375         
     49510  -56.512184      0.39132223    -56.120861      0.029520714    336.37784     -565.75187      3375         
     49520  -56.391437      0.25749525    -56.133942      0.029520714    221.3411      -1312.9655      3375         
     49530  -56.311433      0.16444593    -56.146988      0.029520714    141.35657      85.906464      3375         
     49540  -56.438855      0.29884637    -56.140008      0.029520714    256.88624      1438.9669      3375         
     49550  -56.470606      0.34274926    -56.127857      0.029520714    294.62485      103.79247      3375         
     49560  -56.337664      0.19731827    -56.140345      0.029520714    169.6134      -615.06443      3375         
     49570  -56.389257      0.24887972    -56.140377      0.029520714    213.93526      745.83039      3375         
     49580  -56.408582      0.28427079    -56.124311      0.029520714    244.35717     -50.029949      3375         
     49590  -56.397851      0.26881042    -56.129041      0.029520714    231.06754     -1834.3472      3375         
     49600  -56.375437      0.24561889    -56.129818      0.029520714    211.13227     -809.66299      3375         
     49610  -56.479248      0.3495336     -56.129714      0.029520714    300.45662      1235.2338      3375         
     49620  -56.399558      0.28829912    -56.111259      0.029520714    247.81989      1991.41        3375         
     49630  -56.33376       0.25632848    -56.077431      0.029520714    220.33816      544.6231       3375         
     49640  -56.422395      0.33432765    -56.088068      0.029520714    287.3857      -1787.2148      3375         
     49650  -56.479174      0.39098542    -56.088188      0.029520714    336.08832     -739.3512       3375         
     49660  -56.305208      0.24175226    -56.063456      0.029520714    207.80854      756.95623      3375         
     49670  -56.352715      0.30049767    -56.052217      0.029520714    258.30569     -659.57837      3375         
     49680  -56.392987      0.34102862    -56.051958      0.029520714    293.1458      -697.12558      3375         
     49690  -56.345266      0.31120956    -56.034057      0.029520714    267.51355      1502.6934      3375         
     49700  -56.252729      0.24083546    -56.011893      0.029520714    207.02047      1214.0007      3375         
     49710  -56.37874       0.37997352    -55.998766      0.029520714    326.62256     -830.44287      3375         
     49720  -56.320089      0.33352453    -55.986564      0.029520714    286.69534     -1064.2414      3375         
     49730  -56.285679      0.30342483    -55.982254      0.029520714    260.82184     -186.28558      3375         
     49740  -56.284413      0.32932761    -55.955085      0.029520714    283.08769      705.38396      3375         
     49750  -56.374391      0.44490168    -55.929489      0.029520714    382.43436     -24.32854       3375         
     49760  -56.30699       0.38099894    -55.925991      0.029520714    327.504       -1306.9143      3375         
     49770  -56.316267      0.38686981    -55.929397      0.029520714    332.55057      652.33223      3375         
     49780  -56.236544      0.34351315    -55.893031      0.029520714    295.28149      2505.817       3375         
     49790  -56.35648       0.4872716     -55.869209      0.029520714    418.85524     -12.848092      3375         
     49800  -56.298008      0.42383003    -55.874178      0.029520714    364.32131     -1991.6236      3375         
     49810  -56.193514      0.3224543     -55.87106       0.029520714    277.17945     -602.74341      3375         
     49820  -56.259929      0.38786717    -55.872062      0.029520714    333.40789      165.69555      3375         
     49830  -56.347001      0.4872971     -55.859704      0.029520714    418.87715     -630.21508      3375         
     49840  -56.182128      0.31028107    -55.871847      0.029520714    266.71542      107.2622       3375         
     49850  -56.292137      0.40953906    -55.882598      0.029520714    352.03689      1534.9468      3375         
     49860  -56.302124      0.47124336    -55.830881      0.029520714    405.07747      1772.7884      3375         
     49870  -56.217614      0.3618745     -55.855739      0.029520714    311.06477     -610.75132      3375         
     49880  -56.167982      0.30171657    -55.866265      0.029520714    259.35344     -2680.7242      3375         
     49890  -56.396918      0.51953391    -55.877384      0.029520714    446.5877      -876.31758      3375         
     49900  -56.328683      0.43189301    -55.89679       0.029520714    371.25219      1850.1065      3375         
     49910  -56.238486      0.37452313    -55.863962      0.029520714    321.93745      893.95441      3375         
     49920  -56.286925      0.40334414    -55.883581      0.029520714    346.71179     -704.16491      3375         
     49930  -56.295732      0.3912102     -55.904522      0.029520714    336.28154      277.17014      3375         
     49940  -56.244709      0.34144132    -55.903267      0.029520714    293.50056      629.57497      3375         
     49950  -56.368581      0.45727001    -55.911311      0.029520714    393.06608     -784.35608      3375         
     49960  -56.290292      0.36382107    -55.926471      0.029520714    312.73803     -1077.2666      3375         
     49970  -56.299069      0.36494176    -55.934128      0.029520714    313.70137     -113.47918      3375         
     49980  -56.307308      0.37442413    -55.932884      0.029520714    321.85235      945.02523      3375         
     49990  -56.3057        0.37298337    -55.932717      0.029520714    320.61388      397.49011      3375         
     50000  -56.349357      0.40853937    -55.940817      0.029520714    351.17757     -589.45456      3375         
Loop time of 333.572 on 4 procs for 50000 steps with 10 atoms

Performance: 6.475 ns/day, 3.706 hours/ns, 149.893 timesteps/s, 1.499 katom-step/s
82.1% CPU use with 4 MPI tasks x no OpenMP threads

MPI task timing breakdown:
Section |  min time  |  avg time  |  max time  |%varavg| %total
---------------------------------------------------------------
Pair    | 161.66     | 181.53     | 202.5      | 125.4 | 54.42
Neigh   | 0.0011718  | 0.001213   | 0.0012706  |   0.1 |  0.00
Comm    | 91.747     | 110.64     | 128.47     | 140.9 | 33.17
Output  | 5.1622     | 5.4258     | 5.9095     |  12.5 |  1.63
Modify  | 28.223     | 30.597     | 32.77      |  35.7 |  9.17
Other   |            | 5.384      |            |       |  1.61

Nlocal:            2.5 ave           4 max           1 min
Histogram: 1 0 0 1 0 0 1 0 0 1
Nghost:           66.5 ave          70 max          62 min
Histogram: 1 0 0 1 0 0 0 0 1 1
Neighs:              0 ave           0 max           0 min
Histogram: 4 0 0 0 0 0 0 0 0 0
FullNghs:         22.5 ave          36 max           9 min
Histogram: 1 0 0 1 0 0 1 0 0 1

Total # of neighbors = 90
Ave neighs/atom = 9
Neighbor list builds = 169
Dangerous builds = 0

write_data	restart.data
System init for write_data ...
Generated 0 of 1 mixed pair_coeff terms from geometric mixing rule
#
Total wall time: 0:05:36
