10
 Atoms. Timestep: 0
C 5.9039 7.31469 7.78773
C 7.16876 6.90477 8.03022
C 8.42291 7.50884 7.65324
C 8.59898 8.25404 6.55004
H 4.99973 6.73686 8.18085
H 5.66861 8.30617 7.45989
H 7.28374 5.97066 8.65095
H 9.30202 7.22997 8.22725
H 7.73618 8.35763 5.84963
H 9.56642 8.72468 6.39302
10
 Atoms. Timestep: 20
C 5.96377 7.32323 7.78861
C 7.18001 6.92672 8.03924
C 8.4441 7.51967 7.67609
C 8.51215 8.23038 6.57532
H 5.13073 6.71181 8.11797
H 5.5614 8.30645 7.44956
H 7.34467 5.94448 8.53449
H 9.27291 7.16687 8.25123
H 7.72116 8.42118 5.88235
H 9.49298 8.66921 6.17783
10
 Atoms. Timestep: 40
C 5.92848 7.35583 7.83076
C 7.21255 6.87679 8.07809
C 8.44647 7.51872 7.68061
C 8.49881 8.26927 6.53589
H 5.19788 6.58233 8.05578
H 5.73431 8.31555 7.2922
H 7.25816 5.89241 8.47156
H 9.38708 7.26746 8.28411
H 7.5847 8.44443 5.98619
H 9.44401 8.59415 6.04709
10
 Atoms. Timestep: 60
C 5.98457 7.32469 7.86992
C 7.17448 6.8605 8.09566
C 8.46197 7.53782 7.63129
C 8.50044 8.27015 6.52971
H 5.07557 6.72833 7.96745
H 5.86005 8.20089 7.30445
H 7.23021 5.84152 8.53977
H 9.38865 7.42483 8.17386
H 7.4872 8.43593 6.05919
H 9.35351 8.6295 6.08478
10
 Atoms. Timestep: 80
C 5.96745 7.30292 7.84859
C 7.2534 6.82392 8.1133
C 8.43501 7.50895 7.63482
C 8.44537 8.27573 6.50089
H 4.95276 6.88975 8.07492
H 5.90679 8.30889 7.34821
H 7.38717 5.86491 8.6923
H 9.35858 7.39688 8.15544
H 7.54729 8.45648 5.88886
H 9.36409 8.83398 6.14366
10
 Atoms. Timestep: 100
C 5.99859 7.28274 7.85544
C 7.20257 6.80153 8.11793
C 8.40565 7.51461 7.57813
C 8.43101 8.2978 6.47351
H 5.10821 6.87824 8.27928
H 5.95723 8.30489 7.43219
H 7.48674 6.01045 8.76154
H 9.34788 7.30454 8.1965
H 7.66162 8.38935 5.75519
H 9.33536 8.95239 6.31423
10
 Atoms. Timestep: 120
C 5.9826 7.2855 7.9216
C 7.25239 6.81683 8.07445
C 8.36374 7.50151 7.52588
C 8.47691 8.32558 6.48331
H 5.15593 6.7812 8.44989
H 5.86615 8.19986 7.39346
H 7.38481 5.99383 8.81646
H 9.25274 7.40259 8.13711
H 7.68581 8.32107 5.69815
H 9.32478 8.94498 6.36245
10
 Atoms. Timestep: 140
C 6.02927 7.29924 7.96103
C 7.23379 6.81615 8.05397
C 8.4205 7.49503 7.53924
C 8.42607 8.31724 6.48651
H 5.20408 6.79086 8.46262
H 5.63072 8.11829 7.32639
H 7.37069 5.94517 8.71871
H 9.2764 7.52422 8.16252
H 7.6461 8.40642 5.67951
H 9.33826 8.8691 6.29474
10
 Atoms. Timestep: 160
C 5.9672 7.29872 7.96891
C 7.25953 6.8122 8.06287
C 8.46251 7.52839 7.55662
C 8.40003 8.29572 6.45299
H 5.19042 6.71638 8.48905
H 5.62975 8.16351 7.32878
H 7.44507 5.90643 8.60887
H 9.39246 7.52875 8.23322
H 7.55675 8.46219 5.8424
H 9.37392 8.83257 6.13838
10
 Atoms. Timestep: 180
C 6.01237 7.2537 7.94131
C 7.26061 6.87636 8.07396
C 8.43004 7.56967 7.57847
C 8.405 8.27035 6.46093
H 5.19464 6.7078 8.38017
H 5.78712 8.18326 7.50817
H 7.46433 5.91334 8.57081
H 9.38192 7.40311 8.08918
H 7.42839 8.40157 6.00255
H 9.2195 8.7905 6.01013
10
 Atoms. Timestep: 200
C 6.00136 7.24845 7.93633
C 7.3012 6.8728 8.11972
C 8.44286 7.5826 7.59918
C 8.38207 8.29713 6.43322
H 5.12675 6.61638 8.22772
H 5.8449 8.29498 7.60911
H 7.49966 5.89463 8.61655
H 9.3741 7.29058 8.00234
H 7.32782 8.33679 5.97371
H 9.18586 8.78077 5.92883
10
 Atoms. Timestep: 220
C 6.0074 7.25698 7.9817
C 7.27737 6.83802 8.15521
C 8.47218 7.58301 7.55154
C 8.3332 8.31282 6.43619
H 5.16295 6.6133 8.10494
H 5.77091 8.28354 7.60064
H 7.5375 5.91695 8.63908
H 9.4849 7.32766 8.0023
H 7.4284 8.35994 5.85774
H 9.19843 8.77363 5.93642
10
 Atoms. Timestep: 240
C 6.0162 7.25856 8.0302
C 7.30816 6.85779 8.12706
C 8.42318 7.53324 7.52701
C 8.34132 8.31609 6.42734
H 5.17018 6.59959 8.21495
H 5.76922 8.17103 7.54341
H 7.49384 5.89989 8.63957
H 9.43958 7.53338 7.96848
H 7.45683 8.40241 5.83943
H 9.2612 8.81963 6.01355
10
 Atoms. Timestep: 260
C 6.04804 7.2515 8.0202
C 7.29696 6.8374 8.1081
C 8.41203 7.55928 7.49553
C 8.35199 8.30218 6.41418
H 5.25487 6.63017 8.52618
H 5.77685 8.16278 7.48272
H 7.50245 5.88963 8.64052
H 9.31483 7.53773 8.04278
H 7.40136 8.4488 5.81869
H 9.21952 8.84872 6.15001
10
 Atoms. Timestep: 280
C 6.03071 7.22992 8.01996
C 7.30465 6.79297 8.07705
C 8.41039 7.56465 7.51929
C 8.34535 8.32159 6.37898
H 5.31075 6.80364 8.71821
H 5.7266 8.16128 7.49129
H 7.57421 5.93917 8.67648
H 9.34782 7.46666 8.12918
H 7.42341 8.44167 5.78066
H 9.19459 8.95285 6.12149
10
 Atoms. Timestep: 300
C 6.04066 7.22535 8.04014
C 7.31501 6.79303 8.04632
C 8.41207 7.56043 7.49436
C 8.32015 8.32419 6.43513
H 5.27217 6.86503 8.66888
H 5.73774 8.12672 7.52691
H 7.5937 5.98502 8.7349
H 9.38157 7.50133 8.02546
H 7.48553 8.34611 5.80487
H 9.12599 8.97778 6.03226
10
 Atoms. Timestep: 320
C 6.04713 7.24557 8.06218
C 7.31237 6.8123 8.08352
C 8.44679 7.53341 7.48329
C 8.29778 8.3657 6.41171
H 5.20099 6.65802 8.56549
H 5.81857 8.15064 7.50747
H 7.57168 5.9508 8.73361
H 9.40036 7.52012 7.96364
H 7.33953 8.25239 5.83153
H 9.16845 8.94613 6.04309
10
 Atoms. Timestep: 340
C 6.05515 7.24992 8.06507
C 7.34199 6.83722 8.15558
C 8.44808 7.55599 7.46231
C 8.27838 8.32807 6.39661
H 5.26166 6.55477 8.36155
H 5.7893 8.18797 7.55422
H 7.54382 5.89182 8.64695
H 9.43074 7.46 7.96488
H 7.29615 8.39501 5.87082
H 9.06069 8.90318 6.01311
10
 Atoms. Timestep: 360
C 6.05202 7.20774 8.07458
C 7.35342 6.87584 8.17093
C 8.42243 7.57017 7.51339
C 8.28079 8.3033 6.35085
H 5.26664 6.56444 8.29306
H 5.73605 8.1688 7.68018
H 7.59015 5.88531 8.56328
H 9.47512 7.42008 7.87006
H 7.3231 8.52539 5.94847
H 9.0809 8.91366 5.87542
10
 Atoms. Timestep: 380
C 6.04961 7.19533 8.06859
C 7.34088 6.86629 8.14112
C 8.44729 7.6346 7.48751
C 8.26761 8.30422 6.38611
H 5.23319 6.48982 8.43294
H 5.7351 8.19971 7.73703
H 7.67487 5.8986 8.57396
H 9.4276 7.39364 7.81208
H 7.26773 8.50553 5.98235
H 9.15319 8.73005 5.85066
10
 Atoms. Timestep: 400
C 6.06107 7.19527 8.0814
C 7.35594 6.85365 8.08422
C 8.43504 7.60367 7.51091
C 8.24821 8.37201 6.38708
H 5.30857 6.52899 8.61616
H 5.71857 8.14255 7.69791
H 7.65736 5.95269 8.60789
H 9.47126 7.40478 7.85536
H 7.23827 8.42372 5.9007
H 9.12851 8.61968 5.82932
10
 Atoms. Timestep: 420
C 6.06876 7.19579 8.1288
C 7.35956 6.82649 8.08503
C 8.42206 7.5908 7.44687
C 8.25425 8.37273 6.4021
H 5.39855 6.63788 8.66931
H 5.6692 8.05945 7.61289
H 7.61218 5.93625 8.65612
H 9.42625 7.47062 7.90656
H 7.33877 8.39876 5.85434
H 9.05134 8.80215 5.81305
10
 Atoms. Timestep: 440
C 6.08518 7.21169 8.14644
C 7.35571 6.80639 8.11814
C 8.43782 7.54689 7.42034
C 8.24595 8.35474 6.33581
H 5.34277 6.6355 8.74869
H 5.67191 8.06351 7.53616
H 7.66963 5.92282 8.70399
H 9.39156 7.54926 7.90748
H 7.25899 8.40775 5.86234
H 9.04115 9.12292 6.00598
10
 Atoms. Timestep: 460
C 6.1182 7.21894 8.11608
C 7.39646 6.81468 8.12385
C 8.42695 7.53184 7.39275
C 8.19379 8.32484 6.34813
H 5.31359 6.68978 8.72665
H 5.79386 8.09748 7.57747
H 7.70461 5.97726 8.75633
H 9.41384 7.57946 7.87359
H 7.20877 8.42182 5.85975
H 8.8769 9.11244 6.21032
10
 Atoms. Timestep: 480
C 6.09182 7.17734 8.15086
C 7.40528 6.80986 8.12779
C 8.41496 7.54182 7.39519
C 8.18774 8.36761 6.33281
H 5.30129 6.70057 8.68269
H 5.90238 8.10232 7.6535
H 7.72258 6.00673 8.79167
H 9.45911 7.54741 7.8123
H 7.2114 8.3684 5.85156
H 8.92843 9.11478 6.05736
10
 Atoms. Timestep: 500
C 6.11305 7.158 8.17223
C 7.38263 6.7857 8.14952
C 8.42263 7.6035 7.3974
C 8.18047 8.40156 6.35562
H 5.33385 6.63144 8.66659
H 5.80292 8.15573 7.67723
H 7.77401 5.94866 8.74166
H 9.41584 7.47148 7.76491
H 7.2283 8.36952 5.83604
H 8.97638 8.95062 5.75392
10
 Atoms. Timestep: 520
C 6.12729 7.18295 8.16977
C 7.43205 6.82945 8.12762
C 8.40888 7.62404 7.44655
C 8.15541 8.38934 6.34474
H 5.37363 6.48228 8.68607
H 5.68943 8.07726 7.72364
H 7.75858 5.88496 8.59539
H 9.45348 7.45864 7.73636
H 7.14259 8.47198 5.91543
H 8.96447 8.69022 5.70009
10
 Atoms. Timestep: 540
C 6.11294 7.15038 8.20909
C 7.40612 6.89531 8.12278
C 8.43472 7.65443 7.42346
C 8.15287 8.32859 6.32372
H 5.45448 6.39803 8.65936
H 5.68836 7.99688 7.80422
H 7.72986 5.9138 8.46453
H 9.50814 7.49229 7.68848
H 7.12254 8.57568 6.05708
H 8.9807 8.67107 5.74103
10
 Atoms. Timestep: 560
C 6.0913 7.1276 8.22867
C 7.42904 6.90361 8.13811
C 8.46307 7.63698 7.41337
C 8.14316 8.31127 6.29828
H 5.47932 6.3793 8.65465
H 5.58343 8.10685 7.8582
H 7.775 5.93107 8.49246
H 9.48838 7.47543 7.6729
H 7.11623 8.5699 6.04034
H 8.92219 8.88069 5.69986
10
 Atoms. Timestep: 580
C 6.1554 7.16219 8.19129
C 7.44441 6.86385 8.14883
C 8.44552 7.59996 7.38813
C 8.10665 8.36275 6.31299
H 5.4763 6.44371 8.68405
H 5.58649 8.09129 7.92225
H 7.80113 5.95403 8.65341
H 9.48694 7.45186 7.69155
H 7.07928 8.37444 5.94454
H 8.78201 8.97223 5.74579
10
 Atoms. Timestep: 600
C 6.13562 7.15838 8.2412
C 7.46409 6.81524 8.12865
C 8.42033 7.59612 7.32533
C 8.09505 8.41837 6.31985
H 5.41746 6.48343 8.82062
H 5.83426 8.04842 7.80853
H 7.79707 5.9894 8.78031
H 9.48361 7.53716 7.68592
H 7.10587 8.17976 5.89999
H 8.79521 9.05314 5.80344
10
 Atoms. Timestep: 620
C 6.18806 7.13259 8.27752
C 7.43909 6.78568 8.1146
C 8.41595 7.59455 7.33965
C 8.05364 8.38852 6.31805
H 5.44889 6.68404 8.8754
H 5.91083 8.03604 7.6558
H 7.89724 6.00929 8.71625
H 9.43324 7.67039 7.67266
H 7.07627 8.30482 5.79914
H 8.7771 9.10744 5.8709
10
 Atoms. Timestep: 640
C 6.18758 7.14291 8.28372
C 7.51665 6.75401 8.12704
C 8.37111 7.62272 7.35329
C 8.04334 8.35273 6.25423
H 5.45508 6.7585 8.97772
H 5.755 8.00969 7.66477
H 7.97488 5.89516 8.6453
H 9.38324 7.72231 7.74465
H 7.07692 8.49964 5.8321
H 8.76685 9.1005 5.91479
10
 Atoms. Timestep: 660
C 6.22403 7.12173 8.28746
C 7.46788 6.78386 8.15318
C 8.3487 7.65491 7.31944
C 8.0617 8.36324 6.23185
H 5.56195 6.60574 9.0294
H 5.80238 7.93438 7.82263
H 7.91406 5.89712 8.6078
H 9.38593 7.74232 7.74363
H 7.01871 8.4842 5.88183
H 8.82712 9.01383 5.85216
10
 Atoms. Timestep: 680
C 6.18484 7.11175 8.31925
C 7.51201 6.848 8.10418
C 8.38146 7.64106 7.33511
C 8.02095 8.38509 6.28788
H 5.63282 6.35621 8.94349
H 5.78667 8.05665 7.92394
H 7.87553 5.95457 8.64209
H 9.41832 7.69577 7.61751
H 7.00543 8.34385 5.80972
H 8.80971 8.89758 5.67373
10
 Atoms. Timestep: 700
C 6.20295 7.10087 8.32887
C 7.48578 6.86007 8.12177
C 8.46214 7.67167 7.33332
C 7.97181 8.38528 6.28986
H 5.58614 6.37257 8.7433
H 5.61765 8.06706 8.10354
H 7.96271 6.0099 8.59743
H 9.53131 7.57768 7.52968
H 7.01951 8.22498 5.86222
H 8.67056 8.86042 5.60994
10
 Atoms. Timestep: 720
C 6.17886 7.10229 8.34794
C 7.53622 6.88152 8.14895
C 8.45003 7.70555 7.32404
C 7.99834 8.35328 6.24163
H 5.49173 6.30524 8.72552
H 5.6574 8.00964 8.13635
H 7.96062 5.93331 8.50408
H 9.54162 7.54398 7.5038
H 6.91386 8.19258 6.07001
H 8.5781 8.97943 5.5739
10
 Atoms. Timestep: 740
C 6.24934 7.10722 8.31571
C 7.53415 6.8929 8.15508
C 8.42219 7.6875 7.33819
C 7.96065 8.30372 6.24683
H 5.63716 6.3162 8.80666
H 5.81162 8.03652 8.03211
H 7.90133 5.89765 8.42388
H 9.48564 7.67843 7.54701
H 6.82333 8.33143 6.14928
H 8.46698 9.01168 5.59522
10
 Atoms. Timestep: 760
C 6.23847 7.09347 8.38739
C 7.5543 6.82221 8.13085
C 8.4236 7.69115 7.30815
C 7.91187 8.34881 6.22416
H 5.65193 6.37669 8.95569
H 5.82897 8.07172 7.91656
H 7.96252 5.86799 8.4972
H 9.46307 7.80816 7.61102
H 6.89128 8.36273 6.01816
H 8.55671 8.99887 5.58699
10
 Atoms. Timestep: 780
C 6.29161 7.08295 8.43125
C 7.54625 6.76156 8.10556
C 8.3681 7.69838 7.25528
C 7.91957 8.41077 6.2391
H 5.59942 6.54761 9.04629
H 5.74159 7.92314 8.02185
H 8.06488 5.9429 8.60775
H 9.42391 7.85554 7.57566
H 6.91144 8.2578 5.79738
H 8.62957 8.9711 5.65295
10
 Atoms. Timestep: 800
C 6.3075 7.08917 8.41755
C 7.581 6.77608 8.08075
C 8.30621 7.65751 7.27495
C 7.89326 8.42197 6.2395
H 5.72024 6.52461 9.21852
H 5.82785 7.9389 8.03555
H 8.1353 6.01943 8.64522
H 9.35542 7.80088 7.51995
H 6.94261 8.19187 5.6352
H 8.61475 9.07598 5.7581
10
 Atoms. Timestep: 820
C 6.30288 7.06724 8.42364
C 7.56113 6.79176 8.12931
C 8.33093 7.68327 7.22803
C 7.86347 8.3704 6.20145
H 5.90501 6.4592 9.23312
H 5.90799 8.04249 8.01395
H 8.14603 5.99394 8.61799
H 9.35875 7.76243 7.56438
H 6.94939 8.2823 5.7123
H 8.50635 9.20359 5.85268
10
 Atoms. Timestep: 840
C 6.31845 7.05909 8.44698
C 7.61218 6.81833 8.12292
C 8.37499 7.66201 7.23815
C 7.84908 8.36016 6.17355
H 5.75142 6.49251 9.13734
H 5.76216 7.98482 8.1369
H 8.05832 5.93188 8.56769
H 9.4311 7.88066 7.53795
H 6.78961 8.30225 5.87019
H 8.40314 9.23035 5.74923
10
 Atoms. Timestep: 860
C 6.32646 7.09254 8.46444
C 7.6236 6.81644 8.11179
C 8.41081 7.7094 7.20857
C 7.83223 8.36113 6.2351
H 5.66168 6.38143 9.0213
H 5.75302 7.92373 8.15906
H 8.06244 5.90311 8.50615
H 9.45129 7.92125 7.41417
H 6.70638 8.19096 6.08806
H 8.33063 9.02244 5.58081
10
 Atoms. Timestep: 880
C 6.32978 7.07106 8.49912
C 7.5798 6.84018 8.11796
C 8.43569 7.73972 7.25047
C 7.77898 8.39555 6.22193
H 5.79484 6.19302 8.96324
H 5.89192 8.00381 8.11154
H 8.12642 5.92916 8.41651
H 9.52771 7.78849 7.33935
H 6.74501 8.14505 6.14838
H 8.29254 8.88141 5.37312
10
 Atoms. Timestep: 900
C 6.35757 7.0261 8.48394
C 7.65288 6.88649 8.10927
C 8.37019 7.77571 7.25259
C 7.77714 8.35784 6.23718
H 5.80734 6.2921 8.99087
H 5.82987 8.00324 8.26896
H 8.12268 5.92782 8.38549
H 9.46239 7.61618 7.3271
H 6.72135 8.24188 6.06249
H 8.2337 8.86196 5.35621
10
 Atoms. Timestep: 920
C 6.37074 7.01578 8.50242
C 7.6528 6.87117 8.14842
C 8.35146 7.75585 7.23072
C 7.76722 8.36455 6.15166
H 5.81519 6.30712 9.11007
H 5.77891 7.87924 8.40392
H 8.20157 5.97277 8.39144
H 9.45335 7.70399 7.27122
H 6.63068 8.34716 6.03498
H 8.39101 8.96571 5.478
10
 Atoms. Timestep: 940
C 6.37493 7.03567 8.53151
C 7.64701 6.84563 8.14635
C 8.33831 7.71719 7.15
C 7.74632 8.36568 6.18631
H 5.98102 6.20482 9.2149
H 5.79139 7.93986 8.28827
H 8.24715 5.99046 8.50868
H 9.39265 7.90225 7.23235
H 6.69364 8.40251 5.94245
H 8.37869 8.99511 5.61741
10
 Atoms. Timestep: 960
C 6.43883 7.03904 8.54838
C 7.66937 6.84021 8.09478
C 8.32899 7.6424 7.16191
C 7.6858 8.40939 6.20701
H 6.00614 6.36358 9.26529
H 5.80508 7.86461 8.139
H 8.18734 6.03262 8.63545
H 9.40036 7.91869 7.30785
H 6.67104 8.31558 5.88558
H 8.31608 9.13875 5.58333
10
 Atoms. Timestep: 980
C 6.43247 7.03716 8.5658
C 7.68243 6.77659 8.11679
C 8.32711 7.71447 7.09972
C 7.69513 8.42962 6.19647
H 5.94973 6.51261 9.35744
H 5.81751 7.77749 8.09819
H 8.2999 6.03992 8.63162
H 9.40484 7.7512 7.3562
H 6.64585 8.17493 5.96959
H 8.18336 9.21676 5.60325
10
 Atoms. Timestep: 1000
C 6.43106 7.02282 8.53572
C 7.6841 6.79167 8.11719
C 8.34915 7.70109 7.15439
C 7.67887 8.41708 6.18286
H 5.95302 6.54249 9.4449
H 5.85417 7.8318 8.08417
H 8.39071 6.08053 8.52847
H 9.42564 7.78601 7.19635
H 6.58214 8.18681 6.08905
H 8.05923 9.19639 5.60509
10
 Atoms. Timestep: 1020
C 6.43386 7.00109 8.53936
C 7.70804 6.8586 8.10793
C 8.34776 7.70968 7.13811
C 7.647 8.36393 6.21995
H 6.00913 6.4247 9.35656
H 5.89419 7.89297 8.14532
H 8.31959 6.02948 8.54746
H 9.41581 7.84606 7.11861
H 6.58009 8.3074 6.15171
H 8.0852 9.11949 5.53724
10
 Atoms. Timestep: 1040
C 6.45173 6.9893 8.59639
C 7.7098 6.86981 8.15668
C 8.34437 7.73591 7.09237
C 7.6236 8.40118 6.16648
H 6.02258 6.23515 9.21748
H 5.82098 7.81702 8.3244
H 8.24921 6.01472 8.56174
H 9.47101 7.8082 7.15344
H 6.54618 8.3591 6.16627
H 8.23701 9.00858 5.39418
10
 Atoms. Timestep: 1060
C 6.47834 7.01788 8.59257
C 7.73481 6.89191 8.14879
C 8.31197 7.72513 7.12567
C 7.6411 8.40388 6.18385
H 6.06231 6.12907 9.14393
H 5.70878 7.78139 8.43108
H 8.32587 6.05252 8.47655
H 9.39593 7.74734 7.07903
H 6.53278 8.39216 6.07066
H 8.10106 8.88472 5.38254
10
 Atoms. Timestep: 1080
C 6.4717 6.98889 8.60085
C 7.72334 6.91525 8.1283
C 8.31859 7.74054 7.14419
C 7.61659 8.39341 6.19416
H 6.12964 6.15726 9.24037
H 5.79325 7.82638 8.36998
H 8.40381 6.06981 8.40621
H 9.37537 7.69808 6.99535
H 6.52561 8.3462 6.09474
H 8.11499 8.89373 5.37735
10
 Atoms. Timestep: 1100
C 6.48082 6.95349 8.6129
C 7.71928 6.88275 8.13219
C 8.32911 7.78474 7.09059
C 7.57775 8.38714 6.18361
H 6.09868 6.30235 9.35987
H 5.89956 7.80308 8.30776
H 8.34607 6.05996 8.47977
H 9.4548 7.71576 7.01942
H 6.51922 8.29998 6.20321
H 8.16397 8.99019 5.40325
10
 Atoms. Timestep: 1120
C 6.50815 6.99116 8.58667
C 7.77645 6.83754 8.11004
C 8.32046 7.71897 7.09653
C 7.57359 8.39357 6.1914
H 6.06219 6.41816 9.43773
H 5.82188 7.79808 8.25806
H 8.36182 6.05909 8.56266
H 9.41034 7.8867 7.07672
H 6.47141 8.31692 6.20324
H 7.92449 9.09362 5.44272
10
 Atoms. Timestep: 1140
C 6.52685 7.02131 8.61692
C 7.74759 6.80617 8.1299
C 8.31895 7.68886 7.06027
C 7.56343 8.42035 6.17455
H 6.15387 6.38266 9.43604
H 5.85675 7.7608 8.17438
H 8.48464 6.08845 8.59279
H 9.34526 7.94031 7.12706
H 6.46175 8.25029 6.16332
H 7.88079 9.17739 5.50566
10
 Atoms. Timestep: 1160
C 6.53704 6.99527 8.66651
C 7.75835 6.8413 8.10569
C 8.28118 7.71574 7.02457
C 7.53414 8.40087 6.18295
H 6.18031 6.36898 9.4358
H 5.90364 7.73596 8.19985
H 8.456 6.14174 8.57545
H 9.38656 7.86726 7.12805
H 6.49449 8.17519 6.08482
H 8.03872 9.21179 5.58674
10
 Atoms. Timestep: 1180
C 6.5679 6.97548 8.63541
C 7.77875 6.88025 8.09628
C 8.27697 7.71778 7.08733
C 7.51172 8.38449 6.18537
H 6.18366 6.35431 9.46516
H 5.8237 7.76525 8.37844
H 8.43372 6.15245 8.49281
H 9.38419 7.84118 6.98886
H 6.45069 8.22535 5.98116
H 8.036 9.13344 5.5562
10
 Atoms. Timestep: 1200
C 6.52838 6.96613 8.65023
C 7.77828 6.86203 8.14756
C 8.28359 7.78224 7.06691
C 7.53426 8.38729 6.14796
H 6.29671 6.20594 9.46837
H 5.85527 7.80523 8.48829
H 8.50496 6.03787 8.4546
H 9.32856 7.87125 6.95589
H 6.43699 8.30959 6.0472
H 7.95442 9.00393 5.39871
10
 Atoms. Timestep: 1220
C 6.57748 6.95708 8.65886
C 7.77877 6.89549 8.12194
C 8.28305 7.78441 7.0851
C 7.49474 8.37635 6.1529
H 6.25738 6.21403 9.32915
H 5.91886 7.7747 8.49207
H 8.40061 6.04311 8.42645
H 9.38643 7.91712 7.01761
H 6.41201 8.29919 6.24479
H 7.94446 8.89189 5.2661
10
 Atoms. Timestep: 1240
C 6.59443 6.97542 8.68393
C 7.82005 6.91209 8.07241
C 8.29287 7.79669 7.07048
C 7.46642 8.3419 6.20674
H 6.14856 6.17998 9.28057
H 5.87832 7.81475 8.40974
H 8.40804 6.08708 8.35037
H 9.41041 7.90634 7.04331
H 6.4011 8.22756 6.32196
H 7.83497 8.84766 5.28171
10
 Atoms. Timestep: 1260
C 6.58747 6.98903 8.70784
C 7.78015 6.87001 8.1358
C 8.33788 7.81203 7.0535
C 7.45247 8.36654 6.1556
H 6.18297 6.1431 9.34258
H 5.93012 7.78928 8.409
H 8.56514 6.0529 8.3026
H 9.39398 7.90952 6.91915
H 6.39104 8.0997 6.27289
H 7.71289 8.99979 5.32635
10
 Atoms. Timestep: 1280
C 6.59995 6.97064 8.67899
C 7.83971 6.88083 8.11377
C 8.27594 7.79359 7.03937
C 7.45199 8.35579 6.16719
H 6.27808 6.2972 9.44688
H 5.95737 7.79528 8.49533
H 8.4802 6.0159 8.4571
H 9.34194 7.94984 6.86924
H 6.39883 8.02016 6.14639
H 7.6621 9.13653 5.47816
10
 Atoms. Timestep: 1300
C 6.6515 6.94851 8.68644
C 7.85062 6.8681 8.09038
C 8.24798 7.75061 7.02663
C 7.3888 8.35416 6.14749
H 6.38684 6.36458 9.54785
H 5.95749 7.84741 8.51149
H 8.44706 6.15 8.49706
H 9.34588 8.05688 7.01162
H 6.35302 8.02884 6.05494
H 7.80028 9.24406 5.56037
10
 Atoms. Timestep: 1320
C 6.67105 6.98016 8.75174
C 7.81523 6.82355 8.07334
C 8.22541 7.77024 6.98009
C 7.38806 8.3511 6.14858
H 6.4883 6.3043 9.62757
H 5.96073 7.75934 8.43724
H 8.69997 6.16942 8.45285
H 9.2127 8.13258 7.12877
H 6.36023 8.14091 5.97935
H 7.80352 9.1632 5.54071
10
 Atoms. Timestep: 1340
C 6.72394 6.9951 8.75525
C 7.8403 6.83275 8.03839
C 8.18663 7.7583 7.05094
C 7.38214 8.36551 6.14446
H 6.45975 6.3637 9.61521
H 5.94337 7.61873 8.4808
H 8.68623 6.13356 8.36683
H 9.20409 8.17841 7.06383
H 6.29145 8.13609 5.98929
H 7.74104 9.07958 5.43874
10
 Atoms. Timestep: 1360
C 6.73063 6.95228 8.75658
C 7.8924 6.83901 8.07144
C 8.18281 7.85111 7.02536
C 7.33582 8.34908 6.15119
H 6.49501 6.33705 9.59901
H 5.931 7.71647 8.4851
H 8.51879 6.08593 8.32932
H 9.2925 8.07395 6.94157
H 6.28628 8.02289 6.12815
H 7.75047 9.03483 5.37845
10
 Atoms. Timestep: 1380
C 6.70269 6.91894 8.74873
C 7.87736 6.91059 8.09898
C 8.26105 7.86256 7.01124
C 7.2889 8.32024 6.15913
H 6.49964 6.20727 9.54332
H 6.09262 7.83904 8.56554
H 8.59311 6.01985 8.29373
H 9.29172 8.06137 6.80815
H 6.2875 8.00406 6.22931
H 7.57951 9.0144 5.34047
10
 Atoms. Timestep: 1400
C 6.72265 6.94311 8.75425
C 7.8897 6.95575 8.08564
C 8.25516 7.82472 6.99266
C 7.31381 8.30343 6.17435
H 6.37393 6.0937 9.40491
H 6.09689 7.77494 8.74453
H 8.68485 6.13402 8.24355
H 9.28496 8.09363 6.76676
H 6.24295 8.00053 6.33682
H 7.35246 8.96108 5.35109
10
 Atoms. Timestep: 1420
C 6.75531 6.95287 8.80683
C 7.9328 6.92732 8.07798
C 8.22776 7.84273 6.95099
C 7.26717 8.31159 6.15035
H 6.4115 6.04347 9.31933
H 5.96542 7.75821 8.7942
H 8.6327 6.21738 8.27062
H 9.3445 8.05195 6.83724
H 6.26051 7.94191 6.46117
H 7.41115 9.00007 5.28954
10
 Atoms. Timestep: 1440
C 6.80126 6.94495 8.79567
C 7.90051 6.93524 8.0677
C 8.22941 7.85702 6.96104
C 7.21625 8.30705 6.17938
H 6.6472 6.12879 9.43331
H 6.00125 7.71676 8.66807
H 8.64565 6.1044 8.3205
H 9.26746 8.05857 6.78566
H 6.21839 7.98824 6.33109
H 7.45943 8.9577 5.32762
10
 Atoms. Timestep: 1460
C 6.80211 6.91488 8.81457
C 7.92951 6.92944 8.04429
C 8.17805 7.84392 6.98042
C 7.2313 8.32356 6.17193
H 6.76163 6.23845 9.73591
H 6.06447 7.6442 8.60768
H 8.67678 6.08735 8.27175
H 9.17007 8.1386 6.68783
H 6.16498 8.05744 6.17577
H 7.44025 8.98315 5.34278
10
 Atoms. Timestep: 1480
C 6.85174 6.91134 8.80238
C 7.95308 6.85717 8.07929
C 8.13047 7.83453 6.94467
C 7.19278 8.33952 6.15213
H 6.72165 6.42915 9.79457
H 6.02756 7.60307 8.66447
H 8.76255 6.26016 8.21486
H 9.21246 8.17571 6.74837
H 6.10393 8.04296 6.19907
H 7.52745 9.05367 5.39679
10
 Atoms. Timestep: 1500
C 6.86185 6.94038 8.82866
C 7.98653 6.87818 8.01843
C 8.12213 7.78982 6.933
C 7.1472 8.32648 6.17613
H 6.74457 6.36571 9.70764
H 6.03262 7.67097 8.55393
H 8.93129 6.27564 8.34092
H 9.1347 8.13217 6.85689
H 6.12288 8.06346 6.24123
H 7.45171 9.10285 5.45107
10
 Atoms. Timestep: 1520
C 6.91576 6.94993 8.82465
C 7.94624 6.90337 8.05778
C 8.14374 7.77291 6.90961
C 7.13965 8.32797 6.17839
H 6.76216 6.23149 9.62261
H 6.15173 7.63677 8.51566
H 8.83492 6.30726 8.42514
H 9.13398 8.15421 6.73465
H 6.10024 8.03014 6.29841
H 7.26862 9.13505 5.46996
10
 Atoms. Timestep: 1540
C 6.86627 6.93805 8.84754
C 8.02524 6.92201 8.06534
C 8.15315 7.82513 6.8681
C 7.12829 8.31891 6.18551
H 6.72048 6.1586 9.68637
H 6.05084 7.61982 8.67387
H 8.77366 6.2613 8.3307
H 9.21123 8.11629 6.55235
H 6.0932 7.93611 6.4171
H 7.23691 9.10328 5.42968
10
 Atoms. Timestep: 1560
C 6.88984 6.90254 8.81765
C 7.98934 6.9816 8.07208
C 8.19234 7.85421 6.88677
C 7.09638 8.30002 6.21081
H 6.77323 6.24559 9.62757
H 6.02385 7.59645 8.82487
H 8.81399 6.19424 8.18965
H 9.18482 8.04025 6.48972
H 6.10878 7.9575 6.49498
H 7.21198 8.95582 5.33838
10
 Atoms. Timestep: 1580
C 6.91472 6.87465 8.87489
C 7.96503 7.00597 8.03199
C 8.14761 7.87103 6.90521
C 7.11495 8.30341 6.18584
H 6.92488 6.10194 9.64893
H 6.11072 7.64281 8.75707
H 8.79512 6.23956 8.18014
H 9.15012 8.00499 6.56594
H 6.13242 8.07023 6.52047
H 7.15692 8.83012 5.22893
10
 Atoms. Timestep: 1600
C 6.95831 6.92526 8.85196
C 7.98434 6.95015 8.03581
C 8.11861 7.87041 6.91039
C 7.078 8.3 6.18597
H 6.96662 6.08603 9.59747
H 6.1069 7.55832 8.81698
H 8.78489 6.34118 8.19553
H 9.19712 8.04413 6.61464
H 6.01162 8.14301 6.53046
H 7.22126 8.77238 5.22912
10
 Atoms. Timestep: 1620
C 6.95809 6.92853 8.86959
C 8.04286 6.94633 8.02127
C 8.11055 7.84245 6.8936
C 7.03876 8.30541 6.19546
H 6.89558 6.18297 9.66334
H 6.05048 7.52912 8.84261
H 8.93536 6.2532 8.23394
H 9.09535 8.13069 6.53591
H 5.991 8.10943 6.45069
H 7.25467 8.87831 5.28305
10
 Atoms. Timestep: 1640
C 6.99686 6.88505 8.87686
C 8.02829 6.95914 8.07625
C 8.09424 7.81727 6.84483
C 7.03006 8.31157 6.20311
H 6.92234 6.27868 9.74578
H 6.14542 7.60296 8.67452
H 8.91976 6.26796 8.23201
H 9.02748 8.15904 6.44262
H 6.04357 8.00165 6.3709
H 7.16869 9.07156 5.41691
10
 Atoms. Timestep: 1660
C 6.98331 6.90828 8.85713
C 8.07374 6.95505 8.02966
C 8.09044 7.79249 6.85233
C 7.0002 8.30879 6.22256
H 6.97919 6.31252 9.80361
H 6.20544 7.6172 8.6039
H 8.88932 6.37184 8.25563
H 9.11725 8.10079 6.51408
H 5.97254 7.88778 6.41463
H 7.07415 9.14229 5.52708
10
 Atoms. Timestep: 1680
C 7.01737 6.9413 8.85279
C 8.05202 6.91694 8.00437
C 8.0822 7.82102 6.8371
C 6.99433 8.29425 6.21849
H 6.96974 6.33649 9.766
H 6.14362 7.54629 8.72643
H 9.02957 6.40053 8.27906
H 9.10914 8.09085 6.60542
H 5.99324 7.89335 6.52133
H 7.00319 9.11143 5.51424
10
 Atoms. Timestep: 1700
C 7.04968 6.91342 8.91918
C 8.01262 6.9253 7.99483
C 8.09148 7.83586 6.841
C 6.98941 8.29336 6.189
H 7.05193 6.26315 9.78451
H 6.0998 7.5193 8.78888
H 8.9993 6.38305 8.22354
H 9.05084 8.22355 6.51673
H 6.06341 7.97568 6.54591
H 6.99963 9.04767 5.36543
10
 Atoms. Timestep: 1720
C 7.04122 6.90142 8.89672
C 8.0432 6.98353 7.99485
C 8.08385 7.86073 6.84244
C 6.98092 8.26768 6.24741
H 7.19996 6.22473 9.71953
H 6.14208 7.53117 8.84964
H 8.81023 6.3158 8.13197
H 9.05372 8.23809 6.44432
H 5.94386 7.99944 6.52081
H 7.07901 8.83058 5.33419
10
 Atoms. Timestep: 1740
C 7.05674 6.89344 8.89018
C 8.07081 7.02286 8.03021
C 8.07902 7.88775 6.86097
C 6.93295 8.28177 6.20814
H 7.17925 6.13035 9.70234
H 6.22221 7.52766 8.95781
H 8.86044 6.21183 8.06287
H 9.06404 8.09473 6.42778
H 5.88924 7.94299 6.53587
H 7.07175 8.79756 5.26532
10
 Atoms. Timestep: 1760
C 7.09816 6.89081 8.91327
C 8.07884 7.01083 8.0284
C 8.03144 7.90565 6.85782
C 6.95032 8.25618 6.20216
H 7.02497 6.06667 9.62913
H 6.24673 7.61091 9.0067
H 9.00196 6.31557 8.04655
H 8.98058 8.04552 6.39679
H 6.00011 7.95625 6.51835
H 6.91715 8.84429 5.28161
10
 Atoms. Timestep: 1780
C 7.10305 6.91146 8.90888
C 8.09329 6.9883 7.98782
C 8.0706 7.86973 6.86359
C 6.8986 8.22744 6.24257
H 7.01383 6.09312 9.59058
H 6.29906 7.68792 8.88604
H 8.96662 6.46578 8.08748
H 9.0239 8.18838 6.3576
H 5.92091 7.89895 6.59941
H 6.9064 8.90419 5.3507
10
 Atoms. Timestep: 1800
C 7.10882 6.9217 8.9155
C 8.10789 6.96955 7.99137
C 8.03976 7.87514 6.77967
C 6.88835 8.23832 6.25528
H 7.09604 6.17914 9.72762
H 6.32223 7.61917 8.7756
H 9.0261 6.33789 8.17384
H 9.00479 8.30341 6.4632
H 5.90889 7.80107 6.64212
H 6.89697 8.95104 5.45573
10
 Atoms. Timestep: 1820
C 7.15884 6.91564 8.90999
C 8.10855 6.96646 7.99509
C 8.03668 7.84203 6.81214
C 6.869 8.27055 6.21282
H 7.19971 6.35176 9.88067
H 6.22606 7.48774 8.80881
H 8.9985 6.24534 8.12837
H 8.92881 8.34332 6.48835
H 5.97261 7.78238 6.54353
H 6.75989 9.04136 5.45903
10
 Atoms. Timestep: 1840
C 7.15575 6.92909 8.91851
C 8.11394 6.94368 7.95111
C 8.00425 7.8659 6.83248
C 6.87878 8.22618 6.25299
H 7.38106 6.44497 9.8359
H 6.16955 7.46318 8.86127
H 8.98618 6.39333 8.02369
H 8.96413 8.29826 6.4906
H 5.92358 7.79017 6.44697
H 6.78321 9.04099 5.50003
10
 Atoms. Timestep: 1860
C 7.18589 6.90762 8.95167
C 8.06243 6.95832 7.93586
C 8.00214 7.88999 6.82606
C 6.83567 8.219 6.22859
H 7.43866 6.33101 9.83796
H 6.30814 7.51434 8.90732
H 9.07608 6.49752 8.04254
H 8.9885 8.2815 6.48464
H 5.83818 7.7339 6.49837
H 6.9576 9.01219 5.46507
10
 Atoms. Timestep: 1880
C 7.22151 6.90261 8.93136
C 8.08927 7.0076 7.94239
C 7.97074 7.87819 6.81921
C 6.84297 8.22006 6.23746
H 7.32358 6.17278 9.78598
H 6.37387 7.57147 9.0382
H 9.09234 6.43973 8.1142
H 8.86293 8.31759 6.44718
H 5.88845 7.80072 6.50739
H 6.83592 8.86692 5.41348
10
 Atoms. Timestep: 1900
C 7.19967 6.9132 8.93007
C 8.18973 7.0152 7.9973
C 7.99953 7.88798 6.81457
C 6.78968 8.21023 6.25124
H 7.28007 6.09989 9.64451
H 6.33972 7.61264 9.06407
H 9.00076 6.36886 7.98892
H 8.88739 8.35401 6.34483
H 5.86004 7.79949 6.58307
H 6.68434 8.82549 5.30453
10
 Atoms. Timestep: 1920
C 7.22221 6.90621 8.93974
C 8.18585 7.04707 8.0095
C 7.98944 7.94974 6.78633
C 6.78214 8.17175 6.27501
H 7.23413 6.09596 9.61703
H 6.37672 7.58212 8.9236
H 8.97804 6.27975 7.91498
H 8.92822 8.2804 6.2716
H 5.85859 7.73313 6.74066
H 6.67041 8.80001 5.35762
10
 Atoms. Timestep: 1940
C 7.26707 6.89983 8.95238
C 8.12617 7.07644 7.9264
C 8.00028 7.94697 6.82241
C 6.78424 8.16151 6.26827
H 7.23011 6.09504 9.75341
H 6.39486 7.53424 8.87928
H 9.0284 6.33301 7.94239
H 8.85372 8.25546 6.25757
H 5.93403 7.72447 6.79676
H 6.61635 8.76929 5.44278
10
 Atoms. Timestep: 1960
C 7.26156 6.91353 8.94152
C 8.13559 6.98877 7.94005
C 7.98074 7.9345 6.79188
C 6.76977 8.17824 6.27755
H 7.45968 6.21919 9.77348
H 6.33895 7.51903 9.03071
H 9.0764 6.5482 7.91817
H 8.8922 8.31617 6.31968
H 5.90575 7.7167 6.72621
H 6.56504 8.81047 5.41476
10
 Atoms. Timestep: 1980
C 7.26961 6.89828 8.96863
C 8.16501 6.99594 7.9165
C 7.93941 7.8819 6.7621
C 6.7372 8.20557 6.27791
H 7.62271 6.33668 9.79156
H 6.34838 7.48603 9.10307
H 9.16778 6.51514 8.02608
H 8.88547 8.3857 6.42983
H 5.82645 7.68482 6.61837
H 6.60589 8.9215 5.36922
10
 Atoms. Timestep: 2000
C 7.34565 6.90407 8.92575
C 8.14006 7.04984 7.91997
C 7.91799 7.83904 6.77346
C 6.71782 8.19413 6.28826
H 7.64888 6.38316 9.86222
H 6.40641 7.40741 9.01515
H 9.10995 6.45425 8.09502
H 8.75219 8.40964 6.38776
H 5.78206 7.70026 6.52707
H 6.69542 8.94287 5.55711
10
 Atoms. Timestep: 2020
C 7.33206 6.92691 8.98222
C 8.2098 7.01349 7.93037
C 7.90308 7.87818 6.76229
C 6.69166 8.16008 6.28505
H 7.63951 6.28429 9.87919
H 6.35295 7.41614 8.9104
H 9.16294 6.55046 7.9033
H 8.7351 8.37366 6.28245
H 5.73229 7.71831 6.55965
H 6.6816 9.00519 5.59442
10
 Atoms. Timestep: 2040
C 7.36498 6.92827 8.94685
C 8.23015 7.0108 7.93513
C 7.90748 7.89549 6.78819
C 6.67034 8.14731 6.3116
H 7.45638 6.30961 9.76002
H 6.39063 7.44794 8.93727
H 9.21768 6.59333 7.86213
H 8.78649 8.32929 6.24568
H 5.74218 7.71203 6.72172
H 6.493 8.93654 5.47152
10
 Atoms. Timestep: 2060
C 7.37932 6.89026 8.94023
C 8.22054 7.0777 7.89217
C 7.89542 7.90757 6.77402
C 6.65594 8.17096 6.32187
H 7.44384 6.19489 9.80847
H 6.50795 7.55352 8.92127
H 9.23069 6.49684 8.01274
H 8.77073 8.30576 6.26232
H 5.8705 7.70478 6.87949
H 6.39297 8.68524 5.43501
10
 Atoms. Timestep: 2080
C 7.3661 6.88692 8.94097
C 8.21023 7.07349 7.95599
C 7.93086 7.94616 6.71313
C 6.63548 8.1599 6.34121
H 7.6265 6.12068 9.74868
H 6.52271 7.55152 9.01399
H 9.14016 6.53781 7.89197
H 8.7592 8.33794 6.14956
H 5.831 7.68689 6.96523
H 6.38839 8.5863 5.41181
10
 Atoms. Timestep: 2100
C 7.37679 6.89517 8.99688
C 8.22419 7.11483 7.88809
C 7.91663 7.9391 6.73942
C 6.65928 8.12153 6.34834
H 7.67982 6.16805 9.70203
H 6.41098 7.3837 9.2179
H 9.11541 6.53101 7.79923
H 8.71908 8.30389 6.05999
H 5.78537 7.72796 6.89231
H 6.35205 8.68164 5.38116
10
 Atoms. Timestep: 2120
C 7.46616 6.91928 8.96855
C 8.1643 7.12968 7.90631
C 7.87058 7.92075 6.75289