ITEM: TIMESTEP
0
ITEM: NUMBER OF ATOMS
10
ITEM: BOX BOUNDS pp pp pp
0.0000000000000000e+00 1.5000000000000000e+01
0.0000000000000000e+00 1.5000000000000000e+01
0.0000000000000000e+00 1.5000000000000000e+01
ITEM: ATOMS id type x y z
5 2 4.99973 6.73686 8.18085
8 2 9.30202 7.22997 8.22725
9 2 7.73618 8.35763 5.84963
1 1 5.9039 7.31469 7.78773
3 1 8.42291 7.50884 7.65324
2 1 7.16876 6.90477 8.03022
6 2 5.66861 8.30617 7.45989
4 1 8.59898 8.25404 6.55004
7 2 7.28374 5.97066 8.65095
10 2 9.56642 8.72468 6.39302
ITEM: TIMESTEP
100
ITEM: NUMBER OF ATOMS
10
ITEM: BOX BOUNDS pp pp pp
0.0000000000000000e+00 1.5000000000000000e+01
0.0000000000000000e+00 1.5000000000000000e+01
0.0000000000000000e+00 1.5000000000000000e+01
ITEM: ATOMS id type x y z
5 2 5.10821 6.87824 8.27928
8 2 9.34788 7.30454 8.1965
9 2 7.66162 8.38935 5.75519
1 1 5.99859 7.28274 7.85544
3 1 8.40565 7.51461 7.57813
2 1 7.20257 6.80153 8.11793
6 2 5.95723 8.30489 7.43219
4 1 8.43101 8.2978 6.47351
7 2 7.48674 6.01045 8.76154
10 2 9.33536 8.95239 6.31423
ITEM: TIMESTEP
200
ITEM: NUMBER OF ATOMS
10
ITEM: BOX BOUNDS pp pp pp
0.0000000000000000e+00 1.5000000000000000e+01
0.0000000000000000e+00 1.5000000000000000e+01
0.0000000000000000e+00 1.5000000000000000e+01
ITEM: ATOMS id type x y z
5 2 5.12675 6.61638 8.22772
8 2 9.3741 7.29058 8.00234
9 2 7.32782 8.33679 5.97371
1 1 6.00136 7.24845 7.93633
3 1 8.44286 7.5826 7.59918
2 1 7.3012 6.8728 8.11972
6 2 5.8449 8.29498 7.60911
4 1 8.38207 8.29713 6.43322
7 2 7.49966 5.89463 8.61655
10 2 9.18586 8.78077 5.92883
ITEM: TIMESTEP
300
ITEM: NUMBER OF ATOMS
10
ITEM: BOX BOUNDS pp pp pp
0.0000000000000000e+00 1.5000000000000000e+01
0.0000000000000000e+00 1.5000000000000000e+01
0.0000000000000000e+00 1.5000000000000000e+01
ITEM: ATOMS id type x y z
5 2 5.27217 6.86503 8.66888
8 2 9.38157 7.50133 8.02546
9 2 7.48553 8.34611 5.80487
1 1 6.04066 7.22535 8.04014
3 1 8.41207 7.56043 7.49436
2 1 7.31501 6.79303 8.04632
6 2 5.73774 8.12672 7.52691
4 1 8.32015 8.32419 6.43513
7 2 7.5937 5.98502 8.7349
10 2 9.12599 8.97778 6.03226
ITEM: TIMESTEP
400
ITEM: NUMBER OF ATOMS
10
ITEM: BOX BOUNDS pp pp pp
0.0000000000000000e+00 1.5000000000000000e+01
0.0000000000000000e+00 1.5000000000000000e+01
0.0000000000000000e+00 1.5000000000000000e+01
ITEM: ATOMS id type x y z
5 2 5.30857 6.52899 8.61616
8 2 9.47126 7.40478 7.85536
9 2 7.23827 8.42372 5.9007
1 1 6.06107 7.19527 8.0814
3 1 8.43504 7.60367 7.51091
2 1 7.35594 6.85365 8.08422
6 2 5.71857 8.14255 7.69791
4 1 8.24821 8.37201 6.38708
7 2 7.65736 5.95269 8.60789
10 2 9.12851 8.61968 5.82932
ITEM: TIMESTEP
500
ITEM: NUMBER OF ATOMS
10
ITEM: BOX BOUNDS pp pp pp
0.0000000000000000e+00 1.5000000000000000e+01
0.0000000000000000e+00 1.5000000000000000e+01
0.0000000000000000e+00 1.5000000000000000e+01
ITEM: ATOMS id type x y z
5 2 5.33385 6.63144 8.66659
8 2 9.41584 7.47148 7.76491
9 2 7.2283 8.36952 5.83604
1 1 6.11305 7.158 8.17223
3 1 8.42263 7.6035 7.3974
2 1 7.38263 6.7857 8.14952
6 2 5.80292 8.15573 7.67723
4 1 8.18047 8.40156 6.35562
7 2 7.77401 5.94866 8.74166
10 2 8.97638 8.95062 5.75392
ITEM: TIMESTEP
600
ITEM: NUMBER OF ATOMS
10
ITEM: BOX BOUNDS pp pp pp
0.0000000000000000e+00 1.5000000000000000e+01
0.0000000000000000e+00 1.5000000000000000e+01
0.0000000000000000e+00 1.5000000000000000e+01
ITEM: ATOMS id type x y z
5 2 5.41746 6.48343 8.82062
8 2 9.48361 7.53716 7.68592
9 2 7.10587 8.17976 5.89999
1 1 6.13562 7.15838 8.2412
3 1 8.42033 7.59612 7.32533
2 1 7.46409 6.81524 8.12865
6 2 5.83426 8.04842 7.80853
4 1 8.09505 8.41837 6.31985
7 2 7.79707 5.9894 8.78031
10 2 8.79521 9.05314 5.80344
ITEM: TIMESTEP
700
ITEM: NUMBER OF ATOMS
10
ITEM: BOX BOUNDS pp pp pp
0.0000000000000000e+00 1.5000000000000000e+01
0.0000000000000000e+00 1.5000000000000000e+01
0.0000000000000000e+00 1.5000000000000000e+01
ITEM: ATOMS id type x y z
5 2 5.58614 6.37257 8.7433
8 2 9.53131 7.57768 7.52968
9 2 7.01951 8.22498 5.86222
1 1 6.20295 7.10087 8.32887
3 1 8.46214 7.67167 7.33332
2 1 7.48578 6.86007 8.12177
6 2 5.61765 8.06706 8.10354
4 1 7.97181 8.38528 6.28986
7 2 7.96271 6.0099 8.59743
10 2 8.67056 8.86042 5.60994
ITEM: TIMESTEP
800
ITEM: NUMBER OF ATOMS
10
ITEM: BOX BOUNDS pp pp pp
0.0000000000000000e+00 1.5000000000000000e+01
0.0000000000000000e+00 1.5000000000000000e+01
0.0000000000000000e+00 1.5000000000000000e+01
ITEM: ATOMS id type x y z
5 2 5.72024 6.52461 9.21852
8 2 9.35542 7.80088 7.51995
9 2 6.94261 8.19187 5.6352
1 1 6.3075 7.08917 8.41755
3 1 8.30621 7.65751 7.27495
2 1 7.581 6.77608 8.08075
6 2 5.82785 7.9389 8.03555
4 1 7.89326 8.42197 6.2395
7 2 8.1353 6.01943 8.64522
10 2 8.61475 9.07598 5.7581
ITEM: TIMESTEP
900
ITEM: NUMBER OF ATOMS
10
ITEM: BOX BOUNDS pp pp pp
0.0000000000000000e+00 1.5000000000000000e+01
0.0000000000000000e+00 1.5000000000000000e+01
0.0000000000000000e+00 1.5000000000000000e+01
ITEM: ATOMS id type x y z
5 2 5.80734 6.2921 8.99087
8 2 9.46239 7.61618 7.3271
9 2 6.72135 8.24188 6.06249
1 1 6.35757 7.0261 8.48394
3 1 8.37019 7.77571 7.25259
2 1 7.65288 6.88649 8.10927
6 2 5.82987 8.00324 8.26896
4 1 7.77714 8.35784 6.23718
7 2 8.12268 5.92782 8.38549
10 2 8.2337 8.86196 5.35621
ITEM: TIMESTEP
1000
ITEM: NUMBER OF ATOMS
10
ITEM: BOX BOUNDS pp pp pp
0.0000000000000000e+00 1.5000000000000000e+01
0.0000000000000000e+00 1.5000000000000000e+01
0.0000000000000000e+00 1.5000000000000000e+01
ITEM: ATOMS id type x y z
5 2 5.95302 6.54249 9.4449
8 2 9.42564 7.78601 7.19635
9 2 6.58214 8.18681 6.08905
1 1 6.43106 7.02282 8.53572
3 1 8.34915 7.70109 7.15439
2 1 7.6841 6.79167 8.11719
6 2 5.85417 7.8318 8.08417
4 1 7.67887 8.41708 6.18286
7 2 8.39071 6.08053 8.52847
10 2 8.05923 9.19639 5.60509
ITEM: TIMESTEP
1100
ITEM: NUMBER OF ATOMS
10
ITEM: BOX BOUNDS pp pp pp
0.0000000000000000e+00 1.5000000000000000e+01
0.0000000000000000e+00 1.5000000000000000e+01
0.0000000000000000e+00 1.5000000000000000e+01
ITEM: ATOMS id type x y z
5 2 6.09868 6.30235 9.35987
8 2 9.4548 7.71576 7.01942
9 2 6.51922 8.29998 6.20321
1 1 6.48082 6.95349 8.6129
3 1 8.32911 7.78474 7.09059
2 1 7.71928 6.88275 8.13219
6 2 5.89956 7.80308 8.30776
4 1 7.57775 8.38714 6.18361
7 2 8.34607 6.05996 8.47977
10 2 8.16397 8.99019 5.40325
ITEM: TIMESTEP
1200
ITEM: NUMBER OF ATOMS
10
ITEM: BOX BOUNDS pp pp pp
0.0000000000000000e+00 1.5000000000000000e+01
0.0000000000000000e+00 1.5000000000000000e+01
0.0000000000000000e+00 1.5000000000000000e+01
ITEM: ATOMS id type x y z
5 2 6.29671 6.20594 9.46837
8 2 9.32856 7.87125 6.95589
9 2 6.43699 8.30959 6.0472
1 1 6.52838 6.96613 8.65023
3 1 8.28359 7.78224 7.06691
2 1 7.77828 6.86203 8.14756
6 2 5.85527 7.80523 8.48829
4 1 7.53426 8.38729 6.14796
7 2 8.50496 6.03787 8.4546
10 2 7.95442 9.00393 5.39871
ITEM: TIMESTEP
1300
ITEM: NUMBER OF ATOMS
10
ITEM: BOX BOUNDS pp pp pp
0.0000000000000000e+00 1.5000000000000000e+01
0.0000000000000000e+00 1.5000000000000000e+01
0.0000000000000000e+00 1.5000000000000000e+01
ITEM: ATOMS id type x y z
5 2 6.38684 6.36458 9.54785
8 2 9.34588 8.05688 7.01162
9 2 6.35302 8.02884 6.05494
1 1 6.6515 6.94851 8.68644
3 1 8.24798 7.75061 7.02663
2 1 7.85062 6.8681 8.09038
6 2 5.95749 7.84741 8.51149
4 1 7.3888 8.35416 6.14749
7 2 8.44706 6.15 8.49706
10 2 7.80028 9.24406 5.56037
ITEM: TIMESTEP
1400
ITEM: NUMBER OF ATOMS
10
ITEM: BOX BOUNDS pp pp pp
0.0000000000000000e+00 1.5000000000000000e+01
0.0000000000000000e+00 1.5000000000000000e+01
0.0000000000000000e+00 1.5000000000000000e+01
ITEM: ATOMS id type x y z
5 2 6.37393 6.0937 9.40491
8 2 9.28496 8.09363 6.76676
9 2 6.24295 8.00053 6.33682
1 1 6.72265 6.94311 8.75425
3 1 8.25516 7.82472 6.99266
2 1 7.8897 6.95575 8.08564
6 2 6.09689 7.77494 8.74453
4 1 7.31381 8.30343 6.17435
7 2 8.68485 6.13402 8.24355
10 2 7.35246 8.96108 5.35109
ITEM: TIMESTEP
1500
ITEM: NUMBER OF ATOMS
10
ITEM: BOX BOUNDS pp pp pp
0.0000000000000000e+00 1.5000000000000000e+01
0.0000000000000000e+00 1.5000000000000000e+01
0.0000000000000000e+00 1.5000000000000000e+01
ITEM: ATOMS id type x y z
5 2 6.74457 6.36571 9.70764
8 2 9.1347 8.13217 6.85689
9 2 6.12288 8.06346 6.24123
1 1 6.86185 6.94038 8.82866
3 1 8.12213 7.78982 6.933
2 1 7.98653 6.87818 8.01843
6 2 6.03262 7.67097 8.55393
4 1 7.1472 8.32648 6.17613
7 2 8.93129 6.27564 8.34092
10 2 7.45171 9.10285 5.45107
ITEM: TIMESTEP
1600
ITEM: NUMBER OF ATOMS
10
ITEM: BOX BOUNDS pp pp pp
0.0000000000000000e+00 1.5000000000000000e+01
0.0000000000000000e+00 1.5000000000000000e+01
0.0000000000000000e+00 1.5000000000000000e+01
ITEM: ATOMS id type x y z
5 2 6.96662 6.08603 9.59747
8 2 9.19712 8.04413 6.61464
9 2 6.01162 8.14301 6.53046
1 1 6.95831 6.92526 8.85196
3 1 8.11861 7.87041 6.91039
2 1 7.98434 6.95015 8.03581
6 2 6.1069 7.55832 8.81698
4 1 7.078 8.3 6.18597
7 2 8.78489 6.34118 8.19553
10 2 7.22126 8.77238 5.22912
ITEM: TIMESTEP
1700
ITEM: NUMBER OF ATOMS
10
ITEM: BOX BOUNDS pp pp pp
0.0000000000000000e+00 1.5000000000000000e+01
0.0000000000000000e+00 1.5000000000000000e+01
0.0000000000000000e+00 1.5000000000000000e+01
ITEM: ATOMS id type x y z
5 2 7.05193 6.26315 9.78451
8 2 9.05084 8.22355 6.51673
9 2 6.06341 7.97568 6.54591
1 1 7.04968 6.91342 8.91918
3 1 8.09148 7.83586 6.841
2 1 8.01262 6.9253 7.99483
6 2 6.0998 7.5193 8.78888
4 1 6.98941 8.29336 6.189
7 2 8.9993 6.38305 8.22354
10 2 6.99963 9.04767 5.36543
ITEM: TIMESTEP
1800
ITEM: NUMBER OF ATOMS
10
ITEM: BOX BOUNDS pp pp pp
0.0000000000000000e+00 1.5000000000000000e+01
0.0000000000000000e+00 1.5000000000000000e+01
0.0000000000000000e+00 1.5000000000000000e+01
ITEM: ATOMS id type x y z
5 2 7.09604 6.17914 9.72762
8 2 9.00479 8.30341 6.4632
9 2 5.90889 7.80107 6.64212
1 1 7.10882 6.9217 8.9155
3 1 8.03976 7.87514 6.77967
2 1 8.10789 6.96955 7.99137
6 2 6.32223 7.61917 8.7756
4 1 6.88835 8.23832 6.25528
7 2 9.0261 6.33789 8.17384
10 2 6.89697 8.95104 5.45573
ITEM: TIMESTEP
1900
ITEM: NUMBER OF ATOMS
10
ITEM: BOX BOUNDS pp pp pp
0.0000000000000000e+00 1.5000000000000000e+01
0.0000000000000000e+00 1.5000000000000000e+01
0.0000000000000000e+00 1.5000000000000000e+01
ITEM: ATOMS id type x y z
5 2 7.28007 6.09989 9.64451
8 2 8.88739 8.35401 6.34483
9 2 5.86004 7.79949 6.58307
1 1 7.19967 6.9132 8.93007
3 1 7.99953 7.88798 6.81457
2 1 8.18973 7.0152 7.9973
6 2 6.33972 7.61264 9.06407
4 1 6.78968 8.21023 6.25124
7 2 9.00076 6.36886 7.98892
10 2 6.68434 8.82549 5.30453
ITEM: TIMESTEP
2000
ITEM: NUMBER OF ATOMS
10
ITEM: BOX BOUNDS pp pp pp
0.0000000000000000e+00 1.5000000000000000e+01
0.0000000000000000e+00 1.5000000000000000e+01
0.0000000000000000e+00 1.5000000000000000e+01
ITEM: ATOMS id type x y z
5 2 7.64888 6.38316 9.86222
8 2 8.75219 8.40964 6.38776
9 2 5.78206 7.70026 6.52707
1 1 7.34565 6.90407 8.92575
3 1 7.91799 7.83904 6.77346
2 1 8.14006 7.04984 7.91997
6 2 6.40641 7.40741 9.01515
4 1 6.71782 8.19413 6.28826
7 2 9.10995 6.45425 8.09502
10 2 6.69542 8.94287 5.55711
ITEM: TIMESTEP
2100
ITEM: NUMBER OF ATOMS
10
ITEM: BOX BOUNDS pp pp pp
0.0000000000000000e+00 1.5000000000000000e+01
0.0000000000000000e+00 1.5000000000000000e+01
0.0000000000000000e+00 1.5000000000000000e+01
ITEM: ATOMS id type x y z
5 2 7.67982 6.16805 9.70203
8 2 8.71908 8.30389 6.05999
9 2 5.78537 7.72796 6.89231
1 1 7.37679 6.89517 8.99688
3 1 7.91663 7.9391 6.73942
2 1 8.22419 7.11483 7.88809
6 2 6.41098 7.3837 9.2179
4 1 6.65928 8.12153 6.34834
7 2 9.11541 6.53101 7.79923
10 2 6.35205 8.68164 5.38116
ITEM: TIMESTEP
2200
ITEM: NUMBER OF ATOMS
10
ITEM: BOX BOUNDS pp pp pp
0.0000000000000000e+00 1.5000000000000000e+01
0.0000000000000000e+00 1.5000000000000000e+01
0.0000000000000000e+00 1.5000000000000000e+01
ITEM: ATOMS id type x y z
5 2 7.78891 6.33868 9.86882
8 2 8.6029 8.31757 6.13674
9 2 5.70247 7.6074 6.97716
1 1 7.53015 6.94783 8.9367
3 1 7.81381 7.91803 6.72081
2 1 8.29734 7.07036 7.88322
6 2 6.51183 7.36678 8.80778
4 1 6.51702 8.08931 6.39138
7 2 9.28899 6.62158 7.81325
10 2 6.27894 8.81489 5.6926
ITEM: TIMESTEP
2300
ITEM: NUMBER OF ATOMS
10
ITEM: BOX BOUNDS pp pp pp
0.0000000000000000e+00 1.5000000000000000e+01
0.0000000000000000e+00 1.5000000000000000e+01
0.0000000000000000e+00 1.5000000000000000e+01
ITEM: ATOMS id type x y z
5 2 8.02777 6.30413 9.75838
8 2 8.53528 8.38991 6.04071
9 2 5.74039 7.55495 7.04003
1 1 7.66158 6.94527 8.98799
3 1 7.76269 7.95064 6.7523
2 1 8.28884 7.12343 7.83644
6 2 6.63102 7.34768 9.08135
4 1 6.43431 8.03815 6.39778
7 2 9.25595 6.598 7.56536
10 2 6.04903 8.68043 5.55611
ITEM: TIMESTEP
2400
ITEM: NUMBER OF ATOMS
10
ITEM: BOX BOUNDS pp pp pp
0.0000000000000000e+00 1.5000000000000000e+01
0.0000000000000000e+00 1.5000000000000000e+01
0.0000000000000000e+00 1.5000000000000000e+01
ITEM: ATOMS id type x y z
5 2 8.32128 6.33406 9.67575
8 2 8.40616 8.48214 6.06237
9 2 5.67762 7.34828 7.06523
1 1 7.73698 6.97245 8.9959
3 1 7.68981 7.97642 6.67457
2 1 8.27609 7.15588 7.77711
6 2 6.81724 7.30233 9.31524
4 1 6.41351 7.98538 6.48737
7 2 9.16814 6.66689 7.50416
10 2 6.03525 8.54548 5.65653
ITEM: TIMESTEP
2500
ITEM: NUMBER OF ATOMS
10
ITEM: BOX BOUNDS pp pp pp
0.0000000000000000e+00 1.5000000000000000e+01
0.0000000000000000e+00 1.5000000000000000e+01
0.0000000000000000e+00 1.5000000000000000e+01
ITEM: ATOMS id type x y z
5 2 8.36368 6.43571 9.76363
8 2 8.21331 8.57902 6.03051
9 2 5.63127 7.2882 7.0437
1 1 7.83045 6.97631 8.95759
3 1 7.66017 7.89443 6.68601
2 1 8.35902 7.18862 7.72289
6 2 6.73107 7.31846 9.1951
4 1 6.29714 7.95527 6.54979
7 2 9.41955 6.82667 7.54126
10 2 5.88445 8.68417 5.81714
ITEM: TIMESTEP
2600
ITEM: NUMBER OF ATOMS
10
ITEM: BOX BOUNDS pp pp pp
0.0000000000000000e+00 1.5000000000000000e+01
0.0000000000000000e+00 1.5000000000000000e+01
0.0000000000000000e+00 1.5000000000000000e+01
ITEM: ATOMS id type x y z
5 2 8.30665 6.21067 9.55747
8 2 8.13676 8.42378 5.79842
9 2 5.65782 7.3419 7.34084
1 1 7.87196 6.96792 8.89991
3 1 7.61721 7.93707 6.67152
2 1 8.41025 7.30404 7.75367
6 2 6.9361 7.292 9.24955
4 1 6.27789 7.91588 6.60399
7 2 9.35569 6.87723 7.53155
10 2 5.66711 8.325 5.83664
ITEM: TIMESTEP
2700
ITEM: NUMBER OF ATOMS
10
ITEM: BOX BOUNDS pp pp pp
0.0000000000000000e+00 1.5000000000000000e+01
0.0000000000000000e+00 1.5000000000000000e+01
0.0000000000000000e+00 1.5000000000000000e+01
ITEM: ATOMS id type x y z
5 2 8.62329 6.56477 9.65882
8 2 8.05015 8.52415 5.96429
9 2 5.63933 7.24863 7.33832
1 1 7.96048 6.98428 8.9415
3 1 7.57335 7.86231 6.63301
2 1 8.40338 7.27226 7.63934
6 2 6.8819 7.13993 9.20528
4 1 6.19759 7.88591 6.66299
7 2 9.4917 7.11708 7.47612
10 2 5.62888 8.59687 5.98517
ITEM: TIMESTEP
2800
ITEM: NUMBER OF ATOMS
10
ITEM: BOX BOUNDS pp pp pp
0.0000000000000000e+00 1.5000000000000000e+01
0.0000000000000000e+00 1.5000000000000000e+01
0.0000000000000000e+00 1.5000000000000000e+01
ITEM: ATOMS id type x y z
5 2 8.90603 6.47002 9.50064
8 2 7.98493 8.56946 5.88413
9 2 5.64562 7.29383 7.52558
1 1 8.08518 7.02817 8.89606
3 1 7.45811 7.95513 6.66181
2 1 8.34818 7.30541 7.64448
6 2 7.15306 7.15832 9.44523
4 1 6.18726 7.78785 6.70886
7 2 9.34493 7.06229 7.13817
10 2 5.61704 8.2067 5.92799
ITEM: TIMESTEP
2900
ITEM: NUMBER OF ATOMS
10
ITEM: BOX BOUNDS pp pp pp
0.0000000000000000e+00 1.5000000000000000e+01
0.0000000000000000e+00 1.5000000000000000e+01
0.0000000000000000e+00 1.5000000000000000e+01
ITEM: ATOMS id type x y z
5 2 8.93962 6.55304 9.44941
8 2 7.82129 8.60239 5.94448
9 2 5.666 7.21364 7.63863
1 1 8.22367 7.06912 8.85437
3 1 7.41971 7.96216 6.74496
2 1 8.42216 7.32849 7.55483
6 2 7.24592 7.29232 9.26381
4 1 6.0585 7.68045 6.76824
7 2 9.30237 7.12169 7.05647
10 2 5.40452 8.19558 6.00184
ITEM: TIMESTEP
3000
ITEM: NUMBER OF ATOMS
10
ITEM: BOX BOUNDS pp pp pp
0.0000000000000000e+00 1.5000000000000000e+01
0.0000000000000000e+00 1.5000000000000000e+01
0.0000000000000000e+00 1.5000000000000000e+01
ITEM: ATOMS id type x y z
5 2 9.03804 6.69013 9.442
8 2 7.66017 8.66749 5.96456
9 2 5.71293 6.97235 7.73538
1 1 8.26164 7.10034 8.78253
3 1 7.34368 7.94106 6.69182
2 1 8.45493 7.34232 7.50655
6 2 7.257 7.2921 9.20073
4 1 6.0589 7.64287 6.85983
7 2 9.50294 7.23519 7.04135
10 2 5.23803 8.20321 6.46064
ITEM: TIMESTEP
3100
ITEM: NUMBER OF ATOMS
10
ITEM: BOX BOUNDS pp pp pp
0.0000000000000000e+00 1.5000000000000000e+01
0.0000000000000000e+00 1.5000000000000000e+01
0.0000000000000000e+00 1.5000000000000000e+01
ITEM: ATOMS id type x y z
5 2 9.21032 6.56321 9.23041
8 2 7.48465 8.65346 5.80089
9 2 5.87872 7.00615 7.80274
1 1 8.32769 7.06679 8.80167
3 1 7.30841 7.96893 6.65346
2 1 8.4021 7.46046 7.46154
6 2 7.4952 7.28795 9.52081
4 1 6.05094 7.58626 6.94301
7 2 9.35975 7.24485 7.00137
10 2 5.16047 7.96973 6.37473
ITEM: TIMESTEP
3200
ITEM: NUMBER OF ATOMS
10
ITEM: BOX BOUNDS pp pp pp
0.0000000000000000e+00 1.5000000000000000e+01
0.0000000000000000e+00 1.5000000000000000e+01
0.0000000000000000e+00 1.5000000000000000e+01
ITEM: ATOMS id type x y z
5 2 9.33578 6.9016 9.23809
8 2 7.34479 8.69487 6.01416
9 2 5.56863 6.85929 7.73612
1 1 8.43108 7.11173 8.7021
3 1 7.26219 7.84378 6.69746
2 1 8.43174 7.46926 7.44081
6 2 7.59687 7.21733 9.35374
4 1 5.9837 7.57422 7.01007
7 2 9.37764 7.46076 6.94594
10 2 5.24805 8.09223 6.49832
ITEM: TIMESTEP
3300
ITEM: NUMBER OF ATOMS
10
ITEM: BOX BOUNDS pp pp pp
0.0000000000000000e+00 1.5000000000000000e+01
0.0000000000000000e+00 1.5000000000000000e+01
0.0000000000000000e+00 1.5000000000000000e+01
ITEM: ATOMS id type x y z
5 2 9.4134 6.66429 9.04367
8 2 7.27807 8.616 5.91324
9 2 5.74624 6.84769 7.94565
1 1 8.49632 7.14161 8.67912
3 1 7.19744 7.89826 6.72822
2 1 8.44751 7.55772 7.40681
6 2 7.68208 7.31768 9.42695
4 1 5.95404 7.49849 7.08314
7 2 9.39032 7.39006 6.73746
10 2 5.04207 7.80776 6.43833
ITEM: TIMESTEP
3400
ITEM: NUMBER OF ATOMS
10
ITEM: BOX BOUNDS pp pp pp
0.0000000000000000e+00 1.5000000000000000e+01
0.0000000000000000e+00 1.5000000000000000e+01
0.0000000000000000e+00 1.5000000000000000e+01
ITEM: ATOMS id type x y z
5 2 9.53132 6.85027 9.01042
8 2 7.205 8.67239 5.88852
9 2 6.00613 6.72867 8.02013
1 1 8.55217 7.20051 8.65293
3 1 7.09575 7.9241 6.69766
2 1 8.44453 7.50872 7.33051
6 2 7.6964 7.22333 9.27471
4 1 5.96391 7.43055 7.16694
7 2 9.30161 7.53438 6.7517
10 2 5.04539 7.82774 6.85533
ITEM: TIMESTEP
3500
ITEM: NUMBER OF ATOMS
10
ITEM: BOX BOUNDS pp pp pp
0.0000000000000000e+00 1.5000000000000000e+01
0.0000000000000000e+00 1.5000000000000000e+01
0.0000000000000000e+00 1.5000000000000000e+01
ITEM: ATOMS id type x y z
5 2 9.66484 7.012 8.96796
8 2 6.9766 8.65297 5.92595
9 2 6.03862 6.6812 8.06636
1 1 8.6704 7.26974 8.58227
3 1 7.08402 7.92029 6.75151
2 1 8.39925 7.49638 7.28952
6 2 7.76734 7.07606 9.2738
4 1 5.93317 7.37231 7.22814
7 2 9.24421 7.698 6.54687
10 2 4.91136 7.74747 6.99937
ITEM: TIMESTEP
3600
ITEM: NUMBER OF ATOMS
10
ITEM: BOX BOUNDS pp pp pp
0.0000000000000000e+00 1.5000000000000000e+01
0.0000000000000000e+00 1.5000000000000000e+01
0.0000000000000000e+00 1.5000000000000000e+01
ITEM: ATOMS id type x y z
5 2 9.72933 6.9166 8.67378
8 2 6.93683 8.49839 5.95848
9 2 5.98364 6.67774 8.25864
1 1 8.72103 7.29702 8.45709
3 1 6.99694 7.92363 6.8626
2 1 8.379 7.64281 7.25317
6 2 8.04581 7.11956 9.22336
4 1 5.94924 7.30523 7.3537
7 2 9.15056 7.65001 6.43075
10 2 5.00062 7.34558 6.7847
ITEM: TIMESTEP
3700
ITEM: NUMBER OF ATOMS
10
ITEM: BOX BOUNDS pp pp pp
0.0000000000000000e+00 1.5000000000000000e+01
0.0000000000000000e+00 1.5000000000000000e+01
0.0000000000000000e+00 1.5000000000000000e+01
ITEM: ATOMS id type x y z
5 2 9.85156 7.35808 8.63566
8 2 6.78947 8.62835 6.11974
9 2 5.93666 6.40666 8.15543
1 1 8.8009 7.32356 8.40644
3 1 6.9874 7.81259 6.85318
2 1 8.37307 7.69383 7.12545
6 2 8.06082 6.96486 9.16213
4 1 5.9237 7.2461 7.48989
7 2 9.04908 7.88899 6.36192
10 2 4.92604 7.51668 7.20432
ITEM: TIMESTEP
3800
ITEM: NUMBER OF ATOMS
10
ITEM: BOX BOUNDS pp pp pp
0.0000000000000000e+00 1.5000000000000000e+01
0.0000000000000000e+00 1.5000000000000000e+01
0.0000000000000000e+00 1.5000000000000000e+01
ITEM: ATOMS id type x y z
5 2 9.94438 7.07613 8.42247
8 2 6.53915 8.52864 6.0378
9 2 6.34693 6.38311 8.22921
1 1 8.82961 7.34592 8.31987
3 1 6.89129 7.88044 6.8369
2 1 8.29961 7.75897 7.18626
6 2 8.3006 7.1431 9.27875
4 1 5.98678 7.18812 7.53688
7 2 9.03275 7.79932 6.28574
10 2 4.91644 7.24896 7.35559
ITEM: TIMESTEP
3900
ITEM: NUMBER OF ATOMS
10
ITEM: BOX BOUNDS pp pp pp
0.0000000000000000e+00 1.5000000000000000e+01
0.0000000000000000e+00 1.5000000000000000e+01
0.0000000000000000e+00 1.5000000000000000e+01
ITEM: ATOMS id type x y z
5 2 9.93766 7.26691 8.41178
8 2 6.42567 8.54623 6.1864
9 2 6.24677 6.24344 8.20126
1 1 8.89951 7.40773 8.268
3 1 6.86946 7.85103 6.88594
2 1 8.31699 7.74764 7.08611
6 2 8.26289 7.20251 9.09607
4 1 5.97528 7.11198 7.60763
7 2 9.0052 7.88465 6.28805
10 2 4.87831 7.36605 7.61937
ITEM: TIMESTEP
4000
ITEM: NUMBER OF ATOMS
10
ITEM: BOX BOUNDS pp pp pp
0.0000000000000000e+00 1.5000000000000000e+01
0.0000000000000000e+00 1.5000000000000000e+01
0.0000000000000000e+00 1.5000000000000000e+01
ITEM: ATOMS id type x y z
5 2 10.0232 7.34324 8.14792
8 2 6.37233 8.46932 6.21005
9 2 6.2489 6.25722 8.32361
1 1 8.92006 7.45051 8.19804
3 1 6.82964 7.82564 7.00803
2 1 8.32535 7.77964 7.03856
6 2 8.35394 7.25121 9.14912
4 1 5.97457 7.07074 7.66367
7 2 8.87469 7.89346 6.08385
10 2 4.95321 7.24627 7.52464
ITEM: TIMESTEP
4100
ITEM: NUMBER OF ATOMS
10
ITEM: BOX BOUNDS pp pp pp
0.0000000000000000e+00 1.5000000000000000e+01
0.0000000000000000e+00 1.5000000000000000e+01
0.0000000000000000e+00 1.5000000000000000e+01
ITEM: ATOMS id type x y z
5 2 10.1291 7.45271 7.97566
8 2 6.39867 8.40755 6.15093
9 2 6.41158 6.35935 8.5439
1 1 9.00301 7.48402 8.08134
3 1 6.75735 7.84641 7.00951
2 1 8.21929 7.8125 7.06945
6 2 8.58435 7.1506 9.08591
4 1 6.02783 6.99957 7.76452
7 2 8.67105 7.95543 6.05291
10 2 4.88433 7.03941 7.5308
ITEM: TIMESTEP
4200
ITEM: NUMBER OF ATOMS
10
ITEM: BOX BOUNDS pp pp pp
0.0000000000000000e+00 1.5000000000000000e+01
0.0000000000000000e+00 1.5000000000000000e+01
0.0000000000000000e+00 1.5000000000000000e+01
ITEM: ATOMS id type x y z
10 2 5.04558 7.03886 8.16207
8 2 6.18374 8.43655 6.43234
9 2 6.67633 6.27828 8.50706
1 1 9.00794 7.52455 7.98986
3 1 6.75759 7.74538 7.01124
2 1 8.1983 7.80827 6.9608
6 2 8.62902 6.96853 8.77834
4 1 6.05194 6.98751 7.84941
7 2 8.48456 8.28773 6.06272
5 2 10.0101 7.81582 8.07861
ITEM: TIMESTEP
4300
ITEM: NUMBER OF ATOMS
10
ITEM: BOX BOUNDS pp pp pp
0.0000000000000000e+00 1.5000000000000000e+01
0.0000000000000000e+00 1.5000000000000000e+01
0.0000000000000000e+00 1.5000000000000000e+01
ITEM: ATOMS id type x y z
10 2 5.08073 6.61775 7.95195
8 2 6.07521 8.38355 6.36808
9 2 6.79178 6.34941 8.64369
1 1 9.03238 7.55303 7.85581
3 1 6.67954 7.80695 7.14327
2 1 8.10615 7.95524 6.94326
6 2 8.65747 7.21817 8.88675
4 1 6.15396 6.86338 7.96695
7 2 8.55898 8.21218 5.9162
5 2 10.1276 7.3674 7.66655
ITEM: TIMESTEP
4400
ITEM: NUMBER OF ATOMS
10
ITEM: BOX BOUNDS pp pp pp
0.0000000000000000e+00 1.5000000000000000e+01
0.0000000000000000e+00 1.5000000000000000e+01
0.0000000000000000e+00 1.5000000000000000e+01
ITEM: ATOMS id type x y z
10 2 5.10598 6.86377 8.28323
8 2 5.99657 8.4365 6.80204
9 2 6.66793 5.98364 8.53756
1 1 9.03814 7.63339 7.79206
3 1 6.69305 7.71245 7.16019
2 1 8.12998 7.89696 6.84489
6 2 8.81154 7.24905 8.76149
4 1 6.1549 6.8305 8.03794
7 2 8.35404 8.40838 5.95329
5 2 10.0916 7.83887 7.54094
ITEM: TIMESTEP
4500
ITEM: NUMBER OF ATOMS
10
ITEM: BOX BOUNDS pp pp pp
0.0000000000000000e+00 1.5000000000000000e+01
0.0000000000000000e+00 1.5000000000000000e+01
0.0000000000000000e+00 1.5000000000000000e+01
ITEM: ATOMS id type x y z
10 2 5.11481 6.69001 8.27438
8 2 5.88981 8.48334 6.8257
9 2 6.95478 6.06181 8.43421
1 1 9.09428 7.67845 7.69808
3 1 6.60913 7.72938 7.20803
2 1 8.02975 7.88587 6.92752
6 2 9.10009 7.46435 8.75611
4 1 6.21171 6.79091 8.06679
7 2 8.33108 8.26177 5.92044
5 2 10.0642 7.7511 7.27562
ITEM: TIMESTEP
4600
ITEM: NUMBER OF ATOMS
10
ITEM: BOX BOUNDS pp pp pp
0.0000000000000000e+00 1.5000000000000000e+01
0.0000000000000000e+00 1.5000000000000000e+01
0.0000000000000000e+00 1.5000000000000000e+01
ITEM: ATOMS id type x y z
10 2 5.2731 6.59807 8.51986
8 2 5.86645 8.44359 6.92173
9 2 6.98839 6.04291 8.51956
1 1 9.07263 7.70142 7.64891
3 1 6.59785 7.69156 7.24565
2 1 8.01619 7.94231 6.83479
6 2 8.94998 7.44127 8.72433
4 1 6.27415 6.7564 8.13787
7 2 8.16263 8.36533 5.80441
5 2 10.1185 7.77874 7.19578
ITEM: TIMESTEP
4700
ITEM: NUMBER OF ATOMS
10
ITEM: BOX BOUNDS pp pp pp
0.0000000000000000e+00 1.5000000000000000e+01
0.0000000000000000e+00 1.5000000000000000e+01
0.0000000000000000e+00 1.5000000000000000e+01
ITEM: ATOMS id type x y z
10 2 5.3013 6.61681 8.60125
8 2 5.86014 8.3318 6.9919
9 2 7.13211 6.05645 8.68642
1 1 9.0483 7.73742 7.52943
3 1 6.63984 7.6458 7.31264
2 1 7.97454 8.00054 6.75152
6 2 8.848 7.35198 8.55227
4 1 6.31451 6.69254 8.23393
7 2 8.06496 8.52301 5.8583
5 2 10.0543 7.88216 7.23374
ITEM: TIMESTEP
4800
ITEM: NUMBER OF ATOMS
10
ITEM: BOX BOUNDS pp pp pp
0.0000000000000000e+00 1.5000000000000000e+01
0.0000000000000000e+00 1.5000000000000000e+01
0.0000000000000000e+00 1.5000000000000000e+01
ITEM: ATOMS id type x y z
10 2 5.41733 6.24127 8.53163
8 2 5.67824 8.22271 6.99777
9 2 7.25891 6.25671 8.80557
1 1 9.07398 7.76798 7.40178
3 1 6.57286 7.70987 7.40246
2 1 7.88327 7.96004 6.87035
6 2 9.25586 7.43513 8.41432
4 1 6.40768 6.67272 8.24682
7 2 7.87715 8.45923 5.79396
5 2 10.0098 7.94135 6.81729
ITEM: TIMESTEP
4900
ITEM: NUMBER OF ATOMS
10
ITEM: BOX BOUNDS pp pp pp
0.0000000000000000e+00 1.5000000000000000e+01
0.0000000000000000e+00 1.5000000000000000e+01
0.0000000000000000e+00 1.5000000000000000e+01
ITEM: ATOMS id type x y z
10 2 5.63018 6.5964 8.96452
8 2 5.76497 8.2758 7.28415
9 2 7.31364 6.03034 8.65035
1 1 9.04901 7.80945 7.30502
3 1 6.58472 7.60123 7.41725
2 1 7.803 7.94431 6.76233
6 2 9.2908 7.28701 8.22673
4 1 6.49726 6.63911 8.3353
7 2 7.68377 8.59812 5.9115
5 2 9.83671 8.46775 6.93236
ITEM: TIMESTEP
5000
ITEM: NUMBER OF ATOMS
10
ITEM: BOX BOUNDS pp pp pp
0.0000000000000000e+00 1.5000000000000000e+01
0.0000000000000000e+00 1.5000000000000000e+01
0.0000000000000000e+00 1.5000000000000000e+01
ITEM: ATOMS id type x y z
10 2 5.65426 6.24146 8.86859
8 2 5.64044 8.08914 7.20856
9 2 7.5321 6.09465 8.72555
1 1 9.01719 7.8491 7.19002
3 1 6.59627 7.62221 7.54967
2 1 7.75264 8.09884 6.79549
6 2 9.20953 7.57771 8.26933
4 1 6.56694 6.574 8.38281
7 2 7.57817 8.39887 5.78144
5 2 9.91123 7.95327 6.52757
ITEM: TIMESTEP
5100
ITEM: NUMBER OF ATOMS
10
ITEM: BOX BOUNDS pp pp pp
0.0000000000000000e+00 1.5000000000000000e+01
0.0000000000000000e+00 1.5000000000000000e+01
0.0000000000000000e+00 1.5000000000000000e+01
ITEM: ATOMS id type x y z
10 2 5.82575 6.45164 9.19626
8 2 5.63259 8.06959 7.44645
9 2 7.51217 5.94314 8.60103
1 1 8.97754 7.89216 7.13036
3 1 6.58827 7.56689 7.54235
2 1 7.73334 8.0706 6.74496
6 2 9.13348 7.51123 8.14922
4 1 6.65222 6.54885 8.44885
7 2 7.45444 8.55462 5.74244
5 2 9.85735 8.21877 6.55445
ITEM: TIMESTEP
5200
ITEM: NUMBER OF ATOMS
10
ITEM: BOX BOUNDS pp pp pp
0.0000000000000000e+00 1.5000000000000000e+01
0.0000000000000000e+00 1.5000000000000000e+01
0.0000000000000000e+00 1.5000000000000000e+01
ITEM: ATOMS id type x y z
10 2 5.9236 6.38246 9.20478
8 2 5.5482 8.02552 7.51736
9 2 7.65891 5.98993 8.50296
1 1 9.0078 7.93602 7.05471
3 1 6.54073 7.55715 7.61019
2 1 7.6589 8.02596 6.77802
6 2 9.46037 7.59393 7.96904
4 1 6.69423 6.5507 8.47597
7 2 7.44101 8.44727 5.83952
5 2 9.68199 8.36189 6.34199
ITEM: TIMESTEP
5300
ITEM: NUMBER OF ATOMS
10
ITEM: BOX BOUNDS pp pp pp
0.0000000000000000e+00 1.5000000000000000e+01
0.0000000000000000e+00 1.5000000000000000e+01
0.0000000000000000e+00 1.5000000000000000e+01
ITEM: ATOMS id type x y z
10 2 5.97691 6.14132 9.15427
8 2 5.54158 7.95014 7.62579
9 2 7.69613 5.9581 8.5959
1 1 8.93489 7.98188 6.95911
3 1 6.57813 7.55821 7.70369
2 1 7.62827 8.0392 6.78154
6 2 9.42947 7.61003 7.90262
4 1 6.79585 6.55689 8.51702
7 2 7.3006 8.40457 5.76575
5 2 9.55646 8.33878 6.0765
ITEM: TIMESTEP
5400
ITEM: NUMBER OF ATOMS
10
ITEM: BOX BOUNDS pp pp pp
0.0000000000000000e+00 1.5000000000000000e+01
0.0000000000000000e+00 1.5000000000000000e+01
0.0000000000000000e+00 1.5000000000000000e+01
ITEM: ATOMS id type x y z
10 2 6.11387 6.30977 9.34307
8 2 5.7486 8.03066 7.85884
9 2 7.79817 5.82838 8.51747
1 1 8.83399 8.03945 6.89482
3 1 6.66559 7.51789 7.71767
2 1 7.50322 8.0495 6.6554
6 2 9.19707 7.51867 7.73316
4 1 6.92581 6.49164 8.63689
7 2 7.07261 8.51815 5.74627
5 2 9.62199 8.42347 6.26148
ITEM: TIMESTEP
5500
ITEM: NUMBER OF ATOMS
10
ITEM: BOX BOUNDS pp pp pp
0.0000000000000000e+00 1.5000000000000000e+01
0.0000000000000000e+00 1.5000000000000000e+01
0.0000000000000000e+00 1.5000000000000000e+01
ITEM: ATOMS id type x y z
10 2 6.53825 5.79872 9.28547
8 2 5.53439 7.94026 7.95561
9 2 8.0515 6.12463 8.36156
1 1 8.79467 8.10371 6.75402
3 1 6.60105 7.53859 7.84617
2 1 7.47185 8.02911 6.76939
6 2 9.31073 7.70032 7.65977
4 1 7.03851 6.54654 8.597
7 2 6.85156 8.19629 5.92005
5 2 9.40109 8.15207 5.90706
ITEM: TIMESTEP
5600
ITEM: NUMBER OF ATOMS
10
ITEM: BOX BOUNDS pp pp pp
0.0000000000000000e+00 1.5000000000000000e+01
0.0000000000000000e+00 1.5000000000000000e+01
0.0000000000000000e+00 1.5000000000000000e+01
ITEM: ATOMS id type x y z
10 2 6.70618 6.2714 9.63668
8 2 5.77139 7.96043 8.05511
9 2 8.076 5.95243 8.34038
1 1 8.68223 8.16283 6.68734
3 1 6.66102 7.39899 7.85359
2 1 7.34867 7.94767 6.72384
6 2 9.3909 7.60872 7.34305
4 1 7.18097 6.51648 8.69491
7 2 6.74266 8.4923 5.9556
5 2 9.19948 8.77891 5.80006
ITEM: TIMESTEP
5700
ITEM: NUMBER OF ATOMS
10
ITEM: BOX BOUNDS pp pp pp
0.0000000000000000e+00 1.5000000000000000e+01
0.0000000000000000e+00 1.5000000000000000e+01
0.0000000000000000e+00 1.5000000000000000e+01
ITEM: ATOMS id type x y z
10 2 6.73079 6.01449 9.46606
8 2 5.62797 7.63682 8.08622
9 2 8.27834 6.07701 8.56917
1 1 8.63217 8.16987 6.57434
3 1 6.69997 7.43974 7.93647
2 1 7.29906 8.03833 6.75995
6 2 9.40866 7.88555 7.27462
4 1 7.30297 6.49488 8.70778
7 2 6.60348 8.34925 6.00084
5 2 8.86978 8.4 5.62079
ITEM: TIMESTEP
5800
ITEM: NUMBER OF ATOMS
10
ITEM: BOX BOUNDS pp pp pp
0.0000000000000000e+00 1.5000000000000000e+01
0.0000000000000000e+00 1.5000000000000000e+01
0.0000000000000000e+00 1.5000000000000000e+01
ITEM: ATOMS id type x y z
10 2 6.89734 6.16548 9.69141
8 2 5.67044 7.57203 8.26646