LAMMPS (2 Aug 2023 - Update 2)
#13 Butadiene
units           metal
boundary        p p p
atom_style      atomic

neighbor        2.0 bin
neigh_modify    delay 0 every 1 check yes

read_data       restart.lmp
Reading data file ...
  orthogonal box = (0 0 0) to (15 15 15)
  1 by 1 by 3 MPI processor grid
  reading atoms ...
  10 atoms
  reading velocities ...
  10 velocities
  read_data CPU = 0.001 seconds
mass            1 12.0
mass            2 2

variable        sysvol          equal vol
variable        sysmass         equal mass(all)/6.0221367e+23
variable        sysdensity      equal v_sysmass/v_sysvol/1.0e-24
variable	out_freq 	equal 100

pair_style      deepmd ../files/frozen_model_1_compressed.pb ../files/frozen_model_2_compressed.pb ../files/frozen_model_3_compressed.pb ../files/frozen_model_3_compressed.pb out_file md.out out_freq 10 atomic relative 1.0
Summary of lammps deepmd module ...
  >>> Info of deepmd-kit:
  installed to:       /rs1/researchers/w/wjpfaend/rahul/MLP/DeePMD-kit/deepmd_cpu
  source:             v2.2.8-dirty
  source branch:      master
  source commit:      b875ea8
  source commit at:   2024-01-22 22:28:58 -0500
  support model ver.: 1.1 
  build variant:      cpu
  build with tf inc:  /rs1/researchers/w/wjpfaend/rahul/MLP/DeePMD-kit/tensorflow/lib/python3.11/site-packages/tensorflow/include;/rs1/researchers/w/wjpfaend/rahul/MLP/DeePMD-kit/tensorflow/lib/python3.11/site-packages/tensorflow/include
  build with tf lib:  /rs1/researchers/w/wjpfaend/rahul/MLP/DeePMD-kit/tensorflow/lib/python3.11/site-packages/tensorflow/libtensorflow_cc.so.2
  set tf intra_op_parallelism_threads: 0
  set tf inter_op_parallelism_threads: 0
  >>> Info of lammps module:
  use deepmd-kit at:  /rs1/researchers/w/wjpfaend/rahul/MLP/DeePMD-kit/deepmd_cpu
  source:             v2.2.8-dirty
  source branch:      master
  source commit:      b875ea8
  source commit at:   2024-01-22 22:28:58 -0500
  build float prec:   double
  build with tf inc:  /rs1/researchers/w/wjpfaend/rahul/MLP/DeePMD-kit/tensorflow/lib/python3.11/site-packages/tensorflow/include;/rs1/researchers/w/wjpfaend/rahul/MLP/DeePMD-kit/tensorflow/lib/python3.11/site-packages/tensorflow/include
  build with tf lib:  /rs1/researchers/w/wjpfaend/rahul/MLP/DeePMD-kit/tensorflow/lib/python3.11/site-packages/tensorflow/libtensorflow_cc.so.2
pair_coeff	* *

#
velocity        all create 300.0 2345678 rot no dist gaussian
fix             1 all nvt temp 300.0 300.0 0.05
fix             2 all plumed plumedfile plumed.dat outfile PLUMED.log

timestep        0.0005
thermo_style    custom step pe ke etotal v_sysdensity temp press vol
thermo          10

dump            10 all custom 100 btd.dump id type x y z
dump		101 all xyz 20 btd.xyz
dump_modify	101 element C H

fix		extra all print 20 "$(step), $(ke), $(pe), $(etotal), $(temp), $(press), $(vol)" file logfile screen no

restart	        20000 dump.restart

run             50000

CITE-CITE-CITE-CITE-CITE-CITE-CITE-CITE-CITE-CITE-CITE-CITE-CITE

Your simulation uses code contributions which should be cited:

- USER-DEEPMD package:

@article{Wang_ComputPhysCommun_2018_v228_p178,
  author = {Wang, Han and Zhang, Linfeng and Han, Jiequn and E, Weinan},
  doi = {10.1016/j.cpc.2018.03.016},
  url = {https://doi.org/10.1016/j.cpc.2018.03.016},
  year = 2018,
  month = {jul},
  publisher = {Elsevier {BV}},
  volume = 228,
  journal = {Comput. Phys. Commun.},
  title = {{DeePMD-kit: A deep learning package for many-body potential energy representation and molecular dynamics}},
  pages = {178--184}
}
@misc{Zeng_JChemPhys_2023_v159_p054801,
  title  = {{DeePMD-kit v2: A software package for deep potential models}},
  author =   {Jinzhe Zeng and Duo Zhang and Denghui Lu and Pinghui Mo and Zeyu Li
         and Yixiao Chen and Mari{\'a}n Rynik and Li'ang Huang and Ziyao Li and 
         Shaochen Shi and Yingze Wang and Haotian Ye and Ping Tuo and Jiabin
         Yang and Ye Ding and Yifan Li and Davide Tisi and Qiyu Zeng and Han 
         Bao and Yu Xia and Jiameng Huang and Koki Muraoka and Yibo Wang and 
         Junhan Chang and Fengbo Yuan and Sigbj{\o}rn L{\o}land Bore and Chun
         Cai and Yinnian Lin and Bo Wang and Jiayan Xu and Jia-Xin Zhu and 
         Chenxing Luo and Yuzhi Zhang and Rhys E A Goodall and Wenshuo Liang
         and Anurag Kumar Singh and Sikai Yao and Jingchao Zhang and Renata
         Wentzcovitch and Jiequn Han and Jie Liu and Weile Jia and Darrin M
         York and Weinan E and Roberto Car and Linfeng Zhang and Han Wang},
  journal =  {J. Chem. Phys.},
  volume =   159,
  issue =    5,  
  year =    2023,
  pages  =   054801,
  doi =      {10.1063/5.0155600},
}

CITE-CITE-CITE-CITE-CITE-CITE-CITE-CITE-CITE-CITE-CITE-CITE-CITE

Generated 0 of 1 mixed pair_coeff terms from geometric mixing rule
Neighbor list info ...
  update: every = 1 steps, delay = 0 steps, check = yes
  max neighbors/atom: 2000, page size: 100000
  master list distance cutoff = 8
  ghost atom cutoff = 8
  binsize = 4, bins = 4 4 4
  1 neighbor lists, perpetual/occasional/extra = 1 0 0
  (1) pair deepmd, perpetual
      attributes: full, newton on
      pair build: full/bin/atomonly
      stencil: full/bin/3d
      bin: standard
Per MPI rank memory allocation (min/avg/max) = 2.957 | 2.999 | 3.082 Mbytes
   Step         PotEng         KinEng         TotEng      v_sysdensity       Temp          Press          Volume    
         0  -56.646736      0.34900239    -56.297733      0.029520714    300           -2274.3823      3375         
        10  -56.404713      0.38656305    -56.01815       0.029520714    332.28688     -1162.7606      3375         
        20  -56.420507      0.35351622    -56.066991      0.029520714    303.88006      1766.3184      3375         
        30  -56.465167      0.41375994    -56.051407      0.029520714    355.66513      1130.4531      3375         
        40  -56.451057      0.39001909    -56.061038      0.029520714    335.25767     -1078.337       3375         
        50  -56.436747      0.37515694    -56.06159       0.029520714    322.48226     -1045.7806      3375         
        60  -56.373112      0.30913177    -56.06398       0.029520714    265.72749      987.21714      3375         
        70  -56.519733      0.4492112     -56.070522      0.029520714    386.13879      1072.3233      3375         
        80  -56.540141      0.46724475    -56.072896      0.029520714    401.6403      -905.92308      3375         
        90  -56.465644      0.3828415     -56.082802      0.029520714    329.08786     -1056.4573      3375         
       100  -56.458911      0.36174282    -56.097169      0.029520714    310.95158      551.25871      3375         
       110  -56.488372      0.38259084    -56.105782      0.029520714    328.8724       894.39235      3375         
       120  -56.474871      0.34851957    -56.126352      0.029520714    299.58497     -485.8242       3375         
       130  -56.402756      0.27890628    -56.12385       0.029520714    239.74587     -344.54914      3375         
       140  -56.529452      0.37765141    -56.151801      0.029520714    324.6265       907.60667      3375         
       150  -56.494807      0.32862731    -56.16618       0.029520714    282.48572      429.44975      3375         
       160  -56.460864      0.27172475    -56.189139      0.029520714    233.57268     -1730.257       3375         
       170  -56.621492      0.41693869    -56.204553      0.029520714    358.39756     -1533.3869      3375         
       180  -56.670874      0.42864675    -56.242227      0.029520714    368.46173      1700.6399      3375         
       190  -56.499869      0.23973382    -56.260135      0.029520714    206.0735       1966.4321      3375         
       200  -56.522997      0.23551895    -56.287478      0.029520714    202.45043     -550.21664      3375         
       210  -56.562716      0.25790777    -56.304808      0.029520714    221.6957      -1011.9765      3375         
       220  -56.551109      0.2308491     -56.32026       0.029520714    198.43626     -225.32647      3375         
       230  -56.550324      0.21794615    -56.332378      0.029520714    187.34498      190.24144      3375         
       240  -56.651203      0.30159888    -56.349604      0.029520714    259.25228     -134.36094      3375         
       250  -56.653384      0.29550244    -56.357882      0.029520714    254.01182     -321.24164      3375         
       260  -56.651931      0.28250463    -56.369427      0.029520714    242.839        842.93469      3375         
       270  -56.607062      0.22943662    -56.377626      0.029520714    197.22211      765.55635      3375         
       280  -56.612752      0.22651287    -56.386239      0.029520714    194.70887     -1189.3644      3375         
       290  -56.542463      0.1619404     -56.380523      0.029520714    139.20283     -868.63872      3375         
       300  -56.568296      0.18337865    -56.384918      0.029520714    157.631        1050.9924      3375         
       310  -56.657615      0.27373968    -56.383875      0.029520714    235.3047       772.78861      3375         
       320  -56.626881      0.24633844    -56.380543      0.029520714    211.75079     -698.3575       3375         
       330  -56.624109      0.24839369    -56.375715      0.029520714    213.51746     -761.34264      3375         
       340  -56.68346       0.30967387    -56.373787      0.029520714    266.19348      433.71164      3375         
       350  -56.59903       0.23797334    -56.361057      0.029520714    204.56021      954.71523      3375         
       360  -56.533014      0.16955215    -56.363462      0.029520714    145.74583     -265.4394       3375         
       370  -56.600402      0.25332763    -56.347074      0.029520714    217.75864     -1130.1977      3375         
       380  -56.581162      0.23828079    -56.342881      0.029520714    204.82449      207.40066      3375         
       390  -56.558881      0.22549115    -56.333389      0.029520714    193.83061      798.04142      3375         
       400  -56.577103      0.25541338    -56.32169       0.029520714    219.55154     -228.56487      3375         
       410  -56.565524      0.25229107    -56.313232      0.029520714    216.86763     -269.55538      3375         
       420  -56.607108      0.30679705    -56.300311      0.029520714    263.72059      753.74957      3375         
       430  -56.640836      0.35370053    -56.287135      0.029520714    304.03849      194.87019      3375         
       440  -56.600609      0.31918133    -56.281428      0.029520714    274.36603     -1591.8813      3375         
       450  -56.524338      0.26511007    -56.259228      0.029520714    227.88675     -839.00322      3375         
       460  -56.489733      0.21381093    -56.275923      0.029520714    183.79037      1446.276       3375         
       470  -56.4411        0.20154161    -56.239558      0.029520714    173.24375      1647.1802      3375         
       480  -56.625844      0.37659031    -56.249253      0.029520714    323.71438     -308.44851      3375         
       490  -56.564995      0.32960331    -56.235391      0.029520714    283.32469     -1473.298       3375         
       500  -56.570925      0.34559636    -56.225328      0.029520714    297.0722      -547.26407      3375         
       510  -56.602289      0.38056147    -56.221728      0.029520714    327.12796      776.14005      3375         
       520  -56.610054      0.39717305    -56.212881      0.029520714    341.40716      58.611406      3375         
       530  -56.450217      0.23996127    -56.210256      0.029520714    206.26902     -427.31719      3375         
       540  -56.522995      0.3200634     -56.202931      0.029520714    275.12425      893.14254      3375         
       550  -56.459874      0.25759657    -56.202277      0.029520714    221.4282       658.63777      3375         
       560  -56.46527       0.26845676    -56.196813      0.029520714    230.76354     -1270.0067      3375         
       570  -56.490506      0.31183428    -56.178671      0.029520714    268.05056     -804.04588      3375         
       580  -56.627601      0.44520416    -56.182397      0.029520714    382.69437      801.7523       3375         
       590  -56.531755      0.36672597    -56.165029      0.029520714    315.23506      980.2772       3375         
       600  -56.497267      0.33215529    -56.165112      0.029520714    285.51835     -665.37304      3375         
       610  -56.498441      0.34246946    -56.155971      0.029520714    294.38434     -1358.8411      3375         
       620  -56.551436      0.39495188    -56.156484      0.029520714    339.49786      804.78895      3375         
       630  -56.443929      0.30078541    -56.143144      0.029520714    258.55302      1772.5048      3375         
       640  -56.431186      0.28913143    -56.142055      0.029520714    248.53534     -632.16666      3375         
       650  -56.423102      0.28488098    -56.138221      0.029520714    244.88169     -1802.6639      3375         
       660  -56.473008      0.3451685     -56.127839      0.029520714    296.70441      449.13889      3375         
       670  -56.552337      0.43106217    -56.121275      0.029520714    370.53801      1300.171       3375         
       680  -56.590562      0.47836692    -56.112195      0.029520714    411.20084     -320.77563      3375         
       690  -56.523655      0.41609319    -56.107562      0.029520714    357.67078     -412.47525      3375         
       700  -56.430409      0.32624586    -56.104163      0.029520714    280.43864      620.2172       3375         
       710  -56.428648      0.32892767    -56.099721      0.029520714    282.74391     -93.449986      3375         
       720  -56.494889      0.38922732    -56.105662      0.029520714    334.57706     -1607.1977      3375         
       730  -56.389243      0.30672274    -56.08252       0.029520714    263.65671     -658.62819      3375         
       740  -56.458866      0.35689145    -56.101975      0.029520714    306.78138      1851.4132      3375         
       750  -56.448295      0.37763452    -56.070661      0.029520714    324.61198      2016.345       3375         
       760  -56.560864      0.4848635     -56.076         0.029520714    416.78526     -781.38406      3375         
       770  -56.50372       0.43251151    -56.071209      0.029520714    371.78385     -2106.1262      3375         
       780  -56.576091      0.51392803    -56.062163      0.029520714    441.76892     -384.27037      3375         
       790  -56.347473      0.28365331    -56.06382       0.029520714    243.82639      1296.1986      3375         
       800  -56.430716      0.36790924    -56.062807      0.029520714    316.25219      290.25388      3375         
       810  -56.41695       0.35353489    -56.063415      0.029520714    303.8961      -863.31058      3375         
       820  -56.408101      0.35136104    -56.05674       0.029520714    302.02748      529.11249      3375         
       830  -56.379537      0.32390606    -56.055631      0.029520714    278.42737      1007.2313      3375         
       840  -56.588321      0.53264815    -56.055673      0.029520714    457.8606      -1059.7213      3375         
       850  -56.44457       0.39332396    -56.051246      0.029520714    338.09851     -943.94683      3375         
       860  -56.519961      0.46312522    -56.056836      0.029520714    398.09918      682.74271      3375         
       870  -56.483764      0.42405731    -56.059707      0.029520714    364.51668      887.38352      3375         
       880  -56.408473      0.33983564    -56.068637      0.029520714    292.12033     -720.36037      3375         
       890  -56.395371      0.32394137    -56.07143       0.029520714    278.45772     -1115.0259      3375         
       900  -56.466995      0.37873833    -56.088257      0.029520714    325.5608       1161.7102      3375         
       910  -56.424784      0.34312789    -56.081656      0.029520714    294.95032      2046.7681      3375         
       920  -56.5395        0.42411499    -56.115385      0.029520714    364.56626     -895.90373      3375         
       930  -56.457881      0.35228016    -56.105601      0.029520714    302.81755     -2505.4825      3375         
       940  -56.54776       0.42610225    -56.121658      0.029520714    366.27449      28.023507      3375         
       950  -56.553645      0.40848944    -56.145155      0.029520714    351.13465      1842.3031      3375         
       960  -56.498788      0.34024765    -56.15854       0.029520714    292.47448      463.23665      3375         
       970  -56.534209      0.35410086    -56.180108      0.029520714    304.38261     -831.98418      3375         
       980  -56.527771      0.33484631    -56.192924      0.029520714    287.83154     -392.00067      3375         
       990  -56.446508      0.24084816    -56.20566       0.029520714    207.03138      92.586773      3375         
      1000  -56.515762      0.29666212    -56.2191        0.029520714    255.00867     -444.43184      3375         
      1010  -56.483818      0.25075922    -56.233059      0.029520714    215.55087      5.2414881      3375         
      1020  -56.640721      0.39745807    -56.243263      0.029520714    341.65216      1277.4243      3375         
      1030  -56.606716      0.35565353    -56.251063      0.029520714    305.71727      1097.6012      3375         
      1040  -56.583353      0.30454578    -56.278807      0.029520714    261.78541     -1257.5596      3375         
      1050  -56.546314      0.26999651    -56.276318      0.029520714    232.0871      -2078.9814      3375         
      1060  -56.572479      0.28795685    -56.284522      0.029520714    247.52568      313.35987      3375         
      1070  -56.409288      0.11425664    -56.295031      0.029520714    98.214206      2072.1501      3375         
      1080  -56.663354      0.36030244    -56.303052      0.029520714    309.71344      267.3864       3375         
      1090  -56.55738       0.25174298    -56.305637      0.029520714    216.39649     -1448.026       3375         
      1100  -56.557412      0.25488804    -56.302524      0.029520714    219.09997     -245.8731       3375         
      1110  -56.653812      0.34223309    -56.311579      0.029520714    294.18115      890.28404      3375         
      1120  -56.6745        0.36030455    -56.314196      0.029520714    309.71526      194.54559      3375         
      1130  -56.480605      0.16757613    -56.313029      0.029520714    144.04726     -540.99315      3375         
      1140  -56.580065      0.26557513    -56.31449       0.029520714    228.28651     -315.73334      3375         
      1150  -56.556746      0.24376547    -56.31298       0.029520714    209.53909      468.31335      3375         
      1160  -56.600699      0.28781179    -56.312887      0.029520714    247.40099     -100.43083      3375         
      1170  -56.521815      0.22218275    -56.299632      0.029520714    190.98673     -444.6372       3375         
      1180  -56.612864      0.31355255    -56.299311      0.029520714    269.52757      869.72151      3375         
      1190  -56.619716      0.33664701    -56.283069      0.029520714    289.3794       1221.4982      3375         
      1200  -56.557993      0.27607419    -56.281919      0.029520714    237.31144     -1166.2174      3375         
      1210  -56.509065      0.25359983    -56.255465      0.029520714    217.99263     -2430.2662      3375         
      1220  -56.654609      0.42168358    -56.232926      0.029520714    362.47623      142.47467      3375         
      1230  -56.43875       0.21255692    -56.226193      0.029520714    182.71244      2520.4481      3375         
      1240  -56.456846      0.26785051    -56.188995      0.029520714    230.24241      1176.8783      3375         
      1250  -56.557364      0.37971691    -56.177648      0.029520714    326.40199     -1394.4834      3375         
      1260  -56.469335      0.33031009    -56.139025      0.029520714    283.93223     -1275.0635      3375         
      1270  -56.430679      0.31710369    -56.113575      0.029520714    272.5801       544.9226       3375         
      1280  -56.634311      0.55618414    -56.078127      0.029520714    478.09198      468.18645      3375         
      1290  -56.39952       0.34806458    -56.051455      0.029520714    299.19386     -464.22217      3375         
      1300  -56.424367      0.39605186    -56.028315      0.029520714    340.44339      53.933599      3375         
      1310  -56.454201      0.44690279    -56.007298      0.029520714    384.1545       1067.5922      3375         
      1320  -56.458968      0.45920586    -55.999762      0.029520714    394.73013     -409.1373       3375         
      1330  -56.224318      0.23986582    -55.984452      0.029520714    206.18697     -1687.4935      3375         
      1340  -56.42209       0.45353606    -55.968554      0.029520714    389.85641      321.10636      3375         
      1350  -56.399833      0.43088094    -55.968952      0.029520714    370.38223      2230.0615      3375         
      1360  -56.469074      0.50314384    -55.96593       0.029520714    432.49891      18.941123      3375         
      1370  -56.345283      0.38441309    -55.96087       0.029520714    330.43878     -2213.5397      3375         
      1380  -56.568758      0.60433551    -55.964422      0.029520714    519.48255     -495.33574      3375         
      1390  -56.3161        0.33970716    -55.976393      0.029520714    292.00988      1894.7305      3375         
      1400  -56.428251      0.45442273    -55.973828      0.029520714    390.61858      761.2183       3375         
      1410  -56.308285      0.31472723    -55.993557      0.029520714    270.53732     -1309.2501      3375         
      1420  -56.327287      0.33846328    -55.988824      0.029520714    290.94065     -1034.5397      3375         
      1430  -56.361727      0.3545273     -56.0072        0.029520714    304.74917      1095.199       3375         
      1440  -56.602226      0.59426574    -56.007961      0.029520714    510.82665      877.42312      3375         
      1450  -56.377588      0.34846124    -56.029127      0.029520714    299.53483     -805.09185      3375         
      1460  -56.528055      0.48757234    -56.040483      0.029520714    419.11375     -286.99779      3375         
      1470  -56.427373      0.37032879    -56.057045      0.029520714    318.33202      974.56736      3375         
      1480  -56.410577      0.33713099    -56.073446      0.029520714    289.79543     -271.36799      3375         
      1490  -56.458337      0.37151505    -56.086822      0.029520714    319.35172     -1687.7809      3375         
      1500  -56.472156      0.37669425    -56.095462      0.029520714    323.80373     -252.65565      3375         
      1510  -56.398571      0.28059166    -56.117979      0.029520714    241.19462      2254.3455      3375         
      1520  -56.526692      0.40542981    -56.121262      0.029520714    348.50461      1180.7373      3375         
      1530  -56.516657      0.37755683    -56.1391        0.029520714    324.5452      -1792.1559      3375         
      1540  -56.496101      0.35120635    -56.144894      0.029520714    301.8945      -1070.0884      3375         
      1550  -56.546256      0.37745517    -56.168801      0.029520714    324.45781      832.01241      3375         
      1560  -56.549468      0.38189207    -56.167576      0.029520714    328.27174      526.9836       3375         
      1570  -56.443263      0.25682483    -56.186438      0.029520714    220.76481     -796.53095      3375         
      1580  -56.558212      0.36505626    -56.193156      0.029520714    313.79979     -571.38029      3375         
      1590  -56.487744      0.29146792    -56.196276      0.029520714    250.54377      1328.6283      3375         
      1600  -56.484749      0.28061176    -56.204137      0.029520714    241.2119       821.7527       3375         
      1610  -56.46604       0.25516797    -56.210873      0.029520714    219.34059     -1087.8039      3375         
      1620  -56.640735      0.42908813    -56.211647      0.029520714    368.84113     -691.25328      3375         
      1630  -56.520081      0.30499584    -56.215085      0.029520714    262.17228      992.7146       3375         
      1640  -56.576268      0.35037514    -56.225893      0.029520714    301.18        -121.63175      3375         
      1650  -56.51066       0.29142453    -56.219235      0.029520714    250.50647     -1396.0771      3375         
      1660  -56.538682      0.31053421    -56.228148      0.029520714    266.93302      135.14266      3375         
      1670  -56.421036      0.19024726    -56.230789      0.029520714    163.5352       1753.5042      3375         
      1680  -56.591631      0.37686085    -56.21477       0.029520714    323.94694      729.00422      3375         
      1690  -56.487697      0.25234753    -56.23535       0.029520714    216.91616     -1453.0353      3375         
      1700  -56.532025      0.32008833    -56.211936      0.029520714    275.14568     -1392.7952      3375         
      1710  -56.593367      0.37427903    -56.219088      0.029520714    321.72762      1052.932       3375         
      1720  -56.594338      0.37801573    -56.216322      0.029520714    324.93967      1279.1581      3375         
      1730  -56.444599      0.228528      -56.216071      0.029520714    196.44106     -555.63637      3375         
      1740  -56.550702      0.33618732    -56.214514      0.029520714    288.98425     -816.91024      3375         
      1750  -56.503012      0.291899      -56.211113      0.029520714    250.91433      569.10429      3375         
      1760  -56.518462      0.30623365    -56.212229      0.029520714    263.23629     -103.06467      3375         
      1770  -56.494797      0.29435121    -56.200446      0.029520714    253.02223     -1135.3555      3375         
      1780  -56.533413      0.3272777     -56.206135      0.029520714    281.32561      517.27271      3375         
      1790  -56.522236      0.32209442    -56.200142      0.029520714    276.8701       1645.9706      3375         
      1800  -56.588199      0.40000891    -56.18819       0.029520714    343.84485      161.08458      3375         
      1810  -56.505791      0.30770512    -56.198086      0.029520714    264.50116     -1577.6136      3375         
      1820  -56.523513      0.33852611    -56.184987      0.029520714    290.99466     -928.91868      3375         
      1830  -56.508328      0.31653316    -56.191795      0.029520714    272.08968      1114.0464      3375         
      1840  -56.505331      0.32200473    -56.183326      0.029520714    276.793        1115.7844      3375         
      1850  -56.466081      0.27880234    -56.187278      0.029520714    239.65653     -1066.8869      3375         
      1860  -56.54314       0.36444372    -56.178697      0.029520714    313.27326     -962.85018      3375         
      1870  -56.471046      0.29609151    -56.174954      0.029520714    254.51818      1553.0023      3375         
      1880  -56.569005      0.39354967    -56.175455      0.029520714    338.29253      761.19456      3375         
      1890  -56.560367      0.3908379     -56.169529      0.029520714    335.96151     -1209.8038      3375         
      1900  -56.553162      0.38605764    -56.167104      0.029520714    331.85243     -559.90657      3375         
      1910  -56.376311      0.20880519    -56.167506      0.029520714    179.48747      347.37275      3375         
      1920  -56.561728      0.39793085    -56.163797      0.029520714    342.05855     -126.4358       3375         
      1930  -56.464836      0.30123564    -56.163601      0.029520714    258.94004     -487.15085      3375         
      1940  -56.39855       0.24015832    -56.158391      0.029520714    206.4384       248.89195      3375         
      1950  -56.551933      0.39357809    -56.158355      0.029520714    338.31696      1729.5377      3375         
      1960  -56.655643      0.50664632    -56.148996      0.029520714    435.50961      673.72274      3375         
      1970  -56.427911      0.27350698    -56.154404      0.029520714    235.10467     -2159.7989      3375         
      1980  -56.521416      0.38047153    -56.140945      0.029520714    327.05065     -1567.6881      3375         
      1990  -56.552602      0.4063329     -56.146269      0.029520714    349.2809       1606.8395      3375         
      2000  -56.427381      0.28342857    -56.143953      0.029520714    243.6332       1437.9047      3375         
      2010  -56.456755      0.31165615    -56.145099      0.029520714    267.89744     -780.6353       3375         
      2020  -56.545295      0.4102001     -56.135095      0.029520714    352.60512     -815.19926      3375         
      2030  -56.452385      0.316939      -56.135446      0.029520714    272.43854      66.183117      3375         
      2040  -56.528243      0.39644068    -56.131802      0.029520714    340.77762      190.83246      3375         
      2050  -56.5851        0.45571474    -56.129386      0.029520714    391.72919     -161.32286      3375         
      2060  -56.488346      0.36108901    -56.127257      0.029520714    310.38957      46.866908      3375         
      2070  -56.447196      0.31979684    -56.127399      0.029520714    274.89511      1124.7223      3375         
      2080  -56.466708      0.3451194     -56.121589      0.029520714    296.66221      196.94275      3375         
      2090  -56.518325      0.39594143    -56.122384      0.029520714    340.34847     -1611.5538      3375         
      2100  -56.489959      0.37223471    -56.117725      0.029520714    319.97034     -599.67324      3375         
      2110  -56.463787      0.34881746    -56.11497       0.029520714    299.84103      1208.5475      3375         
      2120  -56.486471      0.36964857    -56.116822      0.029520714    317.74731      790.57297      3375         
      2130  -56.478708      0.36535664    -56.113351      0.029520714    314.05799     -977.68901      3375         
      2140  -56.498202      0.40687579    -56.091327      0.029520714    349.74757     -822.51768      3375         
      2150  -56.551164      0.45013378    -56.10103       0.029520714    386.93183      1000.1851      3375         
      2160  -56.523804      0.43336765    -56.090436      0.029520714    372.51978      1158.1069      3375         
      2170  -56.393402      0.30145245    -56.09195       0.029520714    259.12641     -869.65208      3375         
      2180  -56.44595       0.36052356    -56.085426      0.029520714    309.90351     -1541.7884      3375         
      2190  -56.458989      0.37604273    -56.082946      0.029520714    323.24369      489.5232       3375         
      2200  -56.457475      0.3780467     -56.079428      0.029520714    324.96629      914.3516       3375         
      2210  -56.388415      0.31544525    -56.07297       0.029520714    271.15452     -96.144911      3375         
      2220  -56.530468      0.45919336    -56.071274      0.029520714    394.71938      54.272994      3375         
      2230  -56.607388      0.53879587    -56.068593      0.029520714    463.14514      720.91622      3375         
      2240  -56.448285      0.37117073    -56.077115      0.029520714    319.05575      38.225685      3375         
      2250  -56.352769      0.28096052    -56.071809      0.029520714    241.51168     -1665.7574      3375         
      2260  -56.41289       0.34633599    -56.066554      0.029520714    297.70798     -1006.7736      3375         
      2270  -56.414932      0.33627496    -56.078657      0.029520714    289.05959      1487.5357      3375         
      2280  -56.459957      0.38708851    -56.072868      0.029520714    332.73856      1722.84        3375         
      2290  -56.562599      0.47067826    -56.091921      0.029520714    404.59172     -1117.1896      3375         
      2300  -56.494307      0.41327264    -56.081034      0.029520714    355.24625     -1645.663       3375         
      2310  -56.487245      0.39442874    -56.092816      0.029520714    339.04817      956.11436      3375         
      2320  -56.486129      0.3790201     -56.107108      0.029520714    325.80301      1085.9767      3375         
      2330  -56.501237      0.39006569    -56.111172      0.029520714    335.29772     -335.18027      3375         
      2340  -56.343145      0.2219839     -56.121161      0.029520714    190.8158      -386.82207      3375         
      2350  -56.495672      0.36216067    -56.133511      0.029520714    311.31077     -326.80886      3375         
      2360  -56.519917      0.37803383    -56.141883      0.029520714    324.95522      254.72678      3375         
      2370  -56.533845      0.38033281    -56.153512      0.029520714    326.93141      118.71604      3375         
      2380  -56.442168      0.27829491    -56.163873      0.029520714    239.22035     -540.75424      3375         
      2390  -56.675383      0.49722415    -56.178158      0.029520714    427.41038      436.61576      3375         
      2400  -56.488217      0.29645009    -56.191767      0.029520714    254.82641      1088.4983      3375         
      2410  -56.465388      0.25566627    -56.209722      0.029520714    219.76892     -1165.6295      3375         
      2420  -56.567802      0.35869727    -56.209105      0.029520714    308.33365     -1260.7317      3375         
      2430  -56.570485      0.34093285    -56.229552      0.029520714    293.06348      1320.4605      3375         
      2440  -56.448189      0.21346354    -56.234725      0.029520714    183.49176      1142.1144      3375         
      2450  -56.607824      0.36101632    -56.246808      0.029520714    310.32708     -829.81327      3375         
      2460  -56.546009      0.29033029    -56.255678      0.029520714    249.56587     -1110.5748      3375         
      2470  -56.539913      0.27687047    -56.263042      0.029520714    237.99591     -84.35348       3375         
      2480  -56.600983      0.32737776    -56.273605      0.029520714    281.41162      1386.1218      3375         
      2490  -56.619258      0.33930925    -56.279949      0.029520714    291.66785      783.30033      3375         
      2500  -56.571227      0.2827587     -56.288468      0.029520714    243.05739     -1190.2707      3375         
      2510  -56.587248      0.29162378    -56.295624      0.029520714    250.67775     -354.49444      3375         
      2520  -56.517663      0.21625735    -56.301405      0.029520714    185.8933       578.48247      3375         
      2530  -56.574789      0.2681539     -56.306635      0.029520714    230.50321     -1024.3223      3375         
      2540  -56.533879      0.23037111    -56.303507      0.029520714    198.02538     -466.8489       3375         
      2550  -56.628205      0.31925572    -56.30895       0.029520714    274.42997      1618.5423      3375         
      2560  -56.614503      0.30639999    -56.308103      0.029520714    263.37928      887.62409      3375         
      2570  -56.645983      0.33287011    -56.313113      0.029520714    286.13281     -908.81678      3375         
      2580  -56.56216       0.25615528    -56.306005      0.029520714    220.18927     -1221.8996      3375         
      2590  -56.608209      0.29508514    -56.313124      0.029520714    253.65311     -83.69715       3375         
      2600  -56.470523      0.16608607    -56.304437      0.029520714    142.76642      1574.6716      3375         
      2610  -56.57725       0.27713464    -56.300115      0.029520714    238.22298      211.00424      3375         
      2620  -56.521251      0.22800762    -56.293244      0.029520714    195.99375     -1858.9162      3375         
      2630  -56.671901      0.39362832    -56.278273      0.029520714    338.36013      99.54553       3375         
      2640  -56.560274      0.29839836    -56.261876      0.029520714    256.50113      1699.8191      3375         
      2650  -56.581409      0.33888308    -56.242526      0.029520714    291.30151     -205.98093      3375         
      2660  -56.531211      0.30699027    -56.224221      0.029520714    263.88668     -794.70548      3375         
      2670  -56.527903      0.33417554    -56.193728      0.029520714    287.25494      163.19041      3375         
      2680  -56.347545      0.17310167    -56.174443      0.029520714    148.79698      320.02764      3375         
      2690  -56.564148      0.41264368    -56.151505      0.029520714    354.7056      -554.86989      3375         
      2700  -56.507879      0.39103589    -56.116843      0.029520714    336.1317      -950.63783      3375         
      2710  -56.464833      0.37317543    -56.091657      0.029520714    320.77897      562.8712       3375         
      2720  -56.445357      0.39025583    -56.055102      0.029520714    335.46117      2047.1919      3375         
      2730  -56.527732      0.48455042    -56.043182      0.029520714    416.51613     -446.79044      3375         
      2740  -56.370211      0.35664664    -56.013565      0.029520714    306.57094     -2139.7503      3375         
      2750  -56.54938       0.54771369    -56.001667      0.029520714    470.81084      269.68279      3375         
      2760  -56.451785      0.46153665    -55.990248      0.029520714    396.73366      1817.8708      3375         
      2770  -56.303449      0.33087334    -55.972576      0.029520714    284.41639      67.724817      3375         
      2780  -56.324439      0.33869021    -55.985748      0.029520714    291.13573     -1423.97        3375         
      2790  -56.500283      0.55099999    -55.949283      0.029520714    473.63571     -580.88298      3375         
      2800  -56.399376      0.43854265    -55.960833      0.029520714    376.96817      938.03664      3375         
      2810  -56.399626      0.43561172    -55.964015      0.029520714    374.44877      664.31772      3375         
      2820  -56.442526      0.48004856    -55.962477      0.029520714    412.64636     -733.84848      3375         
      2830  -56.524159      0.55180299    -55.972356      0.029520714    474.32596     -58.411096      3375         
      2840  -56.300749      0.31922567    -55.981523      0.029520714    274.40414      1282.585       3375         
      2850  -56.392802      0.39752195    -55.99528       0.029520714    341.70707     -762.6299       3375         
      2860  -56.32804       0.32593183    -56.002108      0.029520714    280.16871     -1694.0864      3375         
      2870  -56.434444      0.41962651    -56.014817      0.029520714    360.70799      721.22762      3375         
      2880  -56.415937      0.39212143    -56.023815      0.029520714    337.06482      1421.2554      3375         
      2890  -56.659395      0.60259058    -56.056804      0.029520714    517.98262     -439.94343      3375         
      2900  -56.386964      0.3288086     -56.058156      0.029520714    282.64156     -799.27435      3375         
      2910  -56.444746      0.36327709    -56.081469      0.029520714    312.27043      145.2351       3375         
      2920  -56.464999      0.36337305    -56.101626      0.029520714    312.35291      1217.2571      3375         
      2930  -56.551508      0.43128781    -56.12022       0.029520714    370.73197      436.92212      3375         
      2940  -56.406333      0.26730009    -56.139032      0.029520714    229.76928     -1724.5585      3375         
      2950  -56.517499      0.36764383    -56.149855      0.029520714    316.02405     -685.92399      3375         
      2960  -56.491419      0.32755993    -56.163859      0.029520714    281.56821      1136.2956      3375         
      2970  -56.534801      0.35619715    -56.178604      0.029520714    306.18456     -454.02864      3375         
      2980  -56.584258      0.3912004     -56.193057      0.029520714    336.27311     -351.18516      3375         
      2990  -56.560328      0.3496533     -56.210674      0.029520714    300.55952      1462.9407      3375         
      3000  -56.516315      0.30364971    -56.212665      0.029520714    261.01515      409.58863      3375         
      3010  -56.531531      0.3020752     -56.229455      0.029520714    259.66171     -827.86387      3375         
      3020  -56.515067      0.28267747    -56.23239       0.029520714    242.98756     -764.73505      3375         
      3030  -56.495784      0.25816383    -56.23762       0.029520714    221.91581     -527.54553      3375         
      3040  -56.588437      0.34428938    -56.244147      0.029520714    295.94873      1126.0889      3375         
      3050  -56.553955      0.30963902    -56.244316      0.029520714    266.16353      1015.9451      3375         
      3060  -56.527045      0.27169427    -56.255351      0.029520714    233.54648     -1481.2644      3375         
      3070  -56.600527      0.35972129    -56.240806      0.029520714    309.21389     -345.31523      3375         
      3080  -56.576365      0.32922931    -56.247136      0.029520714    283.0032       1134.9657      3375         
      3090  -56.544043      0.29615268    -56.247891      0.029520714    254.57076     -157.015        3375         
      3100  -56.559719      0.31111295    -56.248606      0.029520714    267.4305      -255.05809      3375         
      3110  -56.508382      0.26191757    -56.246464      0.029520714    225.1425      -151.22529      3375         
      3120  -56.424074      0.17936569    -56.244708      0.029520714    154.18149     -273.33693      3375         
      3130  -56.637892      0.39738872    -56.240503      0.029520714    341.59255      462.36089      3375         
      3140  -56.570848      0.33312675    -56.237721      0.029520714    286.35341     -168.10865      3375         
      3150  -56.515558      0.28172665    -56.233831      0.029520714    242.17024     -428.11547      3375         
      3160  -56.619881      0.39217993    -56.227701      0.029520714    337.11511      1187.3547      3375         
      3170  -56.604028      0.3735737     -56.230454      0.029520714    321.12133      332.81528      3375         
      3180  -56.429324      0.20666201    -56.222662      0.029520714    177.64521     -1626.3044      3375         
      3190  -56.577298      0.35758288    -56.219715      0.029520714    307.37572     -160.34463      3375         
      3200  -56.486354      0.27111373    -56.21524       0.029520714    233.04745      1367.0964      3375         
      3210  -56.455217      0.24401765    -56.211199      0.029520714    209.75585      208.70355      3375         
      3220  -56.644004      0.43137583    -56.212628      0.029520714    370.80762     -997.69576      3375         
      3230  -56.645874      0.45173239    -56.194142      0.029520714    388.30598     -1093.7562      3375         
      3240  -56.45353       0.25337243    -56.200158      0.029520714    217.79716      437.25712      3375         
      3250  -56.487805      0.29756347    -56.190242      0.029520714    255.78346      1534.3615      3375         
      3260  -56.583913      0.39286703    -56.191046      0.029520714    337.70574      266.46076      3375         
      3270  -56.483547      0.29979619    -56.183751      0.029520714    257.70269     -641.52858      3375         
      3280  -56.49331       0.31434055    -56.17897       0.029520714    270.20493      60.441481      3375         
      3290  -56.521967      0.34673168    -56.175235      0.029520714    298.04811     -369.39026      3375         
      3300  -56.538186      0.36621549    -56.171971      0.029520714    314.79626     -1265.8662      3375         
      3310  -56.450494      0.29066348    -56.159831      0.029520714    249.85228      353.03891      3375         
      3320  -56.590214      0.43106714    -56.159147      0.029520714    370.54228      1721.2755      3375         
      3330  -56.535262      0.38067326    -56.154588      0.029520714    327.22405      400.07876      3375         
      3340  -56.386859      0.23564869    -56.15121       0.029520714    202.56196     -1286.4534      3375         
      3350  -56.546671      0.41142136    -56.135249      0.029520714    353.6549      -1249.6613      3375         
      3360  -56.566012      0.4269322     -56.13908       0.029520714    366.98791      606.3744       3375         
      3370  -56.366714      0.23469907    -56.132014      0.029520714    201.74567      1729.004       3375         
      3380  -56.41635       0.28860398    -56.127746      0.029520714    248.08195     -260.45219      3375         
      3390  -56.524735      0.40026723    -56.124468      0.029520714    344.0669      -1426.966       3375         
      3400  -56.518227      0.40267331    -56.115553      0.029520714    346.13515      482.47727      3375         
      3410  -56.526389      0.42029234    -56.106097      0.029520714    361.28034      509.81073      3375         
      3420  -56.483613      0.37862836    -56.104984      0.029520714    325.46627     -589.59507      3375         
      3430  -56.465675      0.3703997     -56.095276      0.029520714    318.39297      273.82593      3375         
      3440  -56.479         0.38687204    -56.092128      0.029520714    332.55248      624.64416      3375         
      3450  -56.413039      0.32150924    -56.09153       0.029520714    276.36708     -295.13864      3375         
      3460  -56.374295      0.29890109    -56.075394      0.029520714    256.93327     -747.47981      3375         
      3470  -56.48509       0.41420174    -56.070889      0.029520714    356.0449      -631.5588       3375         
      3480  -56.517861      0.4587275     -56.059134      0.029520714    394.31893      1161.6166      3375         
      3490  -56.531845      0.49119199    -56.040653      0.029520714    422.22518      1393.7924      3375         
      3500  -56.458652      0.41850702    -56.040145      0.029520714    359.74569     -1947.4996      3375         
      3510  -56.392091      0.38330178    -56.008789      0.029520714    329.48351     -1251.4031      3375         
      3520  -56.394039      0.37445734    -56.019581      0.029520714    321.8809       1976.3362      3375         
      3530  -56.360196      0.37766164    -55.982534      0.029520714    324.63529      1041.6272      3375         
      3540  -56.432258      0.45259781    -55.979661      0.029520714    389.04989     -509.97983      3375         
      3550  -56.378146      0.40877191    -55.969374      0.029520714    351.37746     -708.56482      3375         
      3560  -56.432665      0.49156521    -55.9411        0.029520714    422.546       -857.82313      3375         
      3570  -56.53938       0.60611469    -55.933265      0.029520714    521.01192      160.76848      3375         
      3580  -56.305865      0.3816295     -55.924236      0.029520714    328.04604      171.17895      3375         
      3590  -56.315676      0.39662535    -55.919051      0.029520714    340.93636     -100.50559      3375         
      3600  -56.474124      0.5581378     -55.915987      0.029520714    479.77133      1666.8498      3375         
      3610  -56.318555      0.39000328    -55.928551      0.029520714    335.24408      259.65835      3375         
      3620  -56.243493      0.33829618    -55.905197      0.029520714    290.79701     -2472.7541      3375         
      3630  -56.527964      0.60072198    -55.927242      0.029520714    516.37639     -166.76939      3375         
      3640  -56.404118      0.47111677    -55.933001      0.029520714    404.96866      1913.1757      3375         
      3650  -56.359664      0.41952281    -55.940142      0.029520714    360.61886      290.01255      3375         
      3660  -56.434045      0.46320144    -55.970843      0.029520714    398.1647      -1020.054       3375         
      3670  -56.392267      0.41763327    -55.974634      0.029520714    358.99462     -801.27385      3375         
      3680  -56.397878      0.38839459    -56.009483      0.029520714    333.86125      586.32663      3375         
      3690  -56.558806      0.52831824    -56.030488      0.029520714    454.13864      1130.0064      3375         
      3700  -56.426248      0.36593754    -56.060311      0.029520714    314.55733     -205.85023      3375         
      3710  -56.37153       0.28858234    -56.082947      0.029520714    248.06335     -1026.9209      3375         
      3720  -56.46947       0.3582821     -56.111188      0.029520714    307.97678      207.18438      3375         
      3730  -56.595226      0.47577615    -56.11945       0.029520714    408.97383      238.77879      3375         
      3740  -56.465056      0.31492812    -56.150128      0.029520714    270.70999     -593.0526       3375         
      3750  -56.603664      0.4293294     -56.174335      0.029520714    369.04853      330.38773      3375         
      3760  -56.605612      0.40894775    -56.196664      0.029520714    351.52861      878.36574      3375         
      3770  -56.461792      0.25465065    -56.207141      0.029520714    218.89591     -395.86487      3375         
      3780  -56.49581       0.26546197    -56.230348      0.029520714    228.18924     -711.57247      3375         
      3790  -56.542121      0.31134072    -56.230781      0.029520714    267.62629      23.110841      3375         
      3800  -56.478689      0.23419911    -56.24449       0.029520714    201.31591      584.84628      3375         
      3810  -56.560103      0.31389988    -56.246203      0.029520714    269.82613      839.48763      3375         
      3820  -56.627584      0.36878945    -56.258794      0.029520714    317.00882     -753.98884      3375         
      3830  -56.563753      0.29838102    -56.265372      0.029520714    256.48622     -1563.4529      3375         
      3840  -56.593286      0.32815372    -56.265132      0.029520714    282.07862      677.69505      3375         
      3850  -56.501846      0.22830903    -56.273537      0.029520714    196.25283      1290.4244      3375         
      3860  -56.525131      0.24907089    -56.27606       0.029520714    214.09959     -330.81645      3375         
      3870  -56.580311      0.30647197    -56.273839      0.029520714    263.44115     -91.331961      3375         
      3880  -56.57351       0.29821079    -56.2753        0.029520714    256.33989      77.522658      3375         
      3890  -56.541187      0.26647221    -56.274715      0.029520714    229.05763     -629.65641      3375         
      3900  -56.608926      0.33852172    -56.270404      0.029520714    290.99089     -88.979967      3375         
      3910  -56.563686      0.29468755    -56.268999      0.029520714    253.31134      57.425567      3375         
      3920  -56.570251      0.30690583    -56.263345      0.029520714    263.81409      249.40295      3375         
      3930  -56.614721      0.35671985    -56.258001      0.029520714    306.63387      721.53127      3375         
      3940  -56.543412      0.28808831    -56.255324      0.029520714    247.63868     -760.56579      3375         
      3950  -56.502094      0.25916411    -56.24293       0.029520714    222.77564     -867.35839      3375         
      3960  -56.523822      0.2865718     -56.23725       0.029520714    246.3351       1516.2679      3375         
      3970  -56.593584      0.36769556    -56.225889      0.029520714    316.06851      787.6557       3375         
      3980  -56.497988      0.28369681    -56.214291      0.029520714    243.86378     -1202.941       3375         
      3990  -56.466417      0.27168771    -56.194729      0.029520714    233.54085     -895.81388      3375         
      4000  -56.580147      0.4020847     -56.178063      0.029520714    345.62918     -204.44903      3375         
      4010  -56.569926      0.41350512    -56.156421      0.029520714    355.44609      761.80862      3375         
      4020  -56.423373      0.29481494    -56.128558      0.029520714    253.42085      1107.7985      3375         
      4030  -56.516404      0.40982611    -56.106578      0.029520714    352.28364     -673.22791      3375         
      4040  -56.397272      0.31282273    -56.084449      0.029520714    268.90022     -232.0417       3375         
      4050  -56.334963      0.28042327    -56.05454       0.029520714    241.04987      626.23172      3375         
      4060  -56.488229      0.46245769    -56.025771      0.029520714    397.52537     -1071.9523      3375         
      4070  -56.460068      0.46399872    -55.996069      0.029520714    398.85003     -581.96571      3375         
      4080  -56.383721      0.42458165    -55.95914       0.029520714    364.9674       1525.0439      3375         
      4090  -56.49421       0.56273323    -55.931476      0.029520714    483.72152      543.5322       3375         
      4100  -56.452956      0.54060749    -55.912348      0.029520714    464.7024      -999.64533      3375         
      4110  -56.26066       0.3644559     -55.896204      0.029520714    313.28373     -814.57332      3375         
      4120  -56.344958      0.46944724    -55.875511      0.029520714    403.53355      395.60725      3375         
      4130  -56.373692      0.49937527    -55.874317      0.029520714    429.25947      1322.8922      3375         
      4140  -56.228303      0.3487905     -55.879513      0.029520714    299.81786      31.009865      3375         
      4150  -56.330535      0.4700807     -55.860454      0.029520714    404.07807     -1450.7048      3375         
      4160  -56.573985      0.69890334    -55.875082      0.029520714    600.77239     -123.34695      3375         
      4170  -56.37944       0.5011156     -55.878324      0.029520714    430.75544      693.60151      3375         
      4180  -56.367847      0.47255357    -55.895293      0.029520714    406.20373     -603.05091      3375         
      4190  -56.418239      0.50979087    -55.908448      0.029520714    438.21264     -281.37963      3375         
      4200  -56.298194      0.37974217    -55.918452      0.029520714    326.4237       1338.5768      3375         
      4210  -56.253949      0.32433143    -55.929617      0.029520714    278.79301      877.28549      3375         
      4220  -56.512764      0.56314418    -55.94962       0.029520714    484.07477     -1009.5819      3375         
      4230  -56.333587      0.38635712    -55.947229      0.029520714    332.10986     -1221.4508      3375         
      4240  -56.321809      0.35693239    -55.964876      0.029520714    306.81657      255.31169      3375         
      4250  -56.545121      0.56937852    -55.975743      0.029520714    489.43377      1367.8573      3375         
      4260  -56.585004      0.58449837    -56.000506      0.029520714    502.43069     -339.79796      3375         
      4270  -56.341736      0.34011409    -56.001622      0.029520714    292.35968     -1671.5821      3375         
      4280  -56.422365      0.40155237    -56.020813      0.029520714    345.17159      395.4534       3375         
      4290  -56.463026      0.41897558    -56.04405       0.029520714    360.14846      1534.083       3375         
      4300  -56.378317      0.33876542    -56.039552      0.029520714    291.20037     -260.2757       3375         
      4310  -56.407839      0.34877385    -56.059065      0.029520714    299.80355     -642.7293       3375         
      4320  -56.467387      0.39810807    -56.069279      0.029520714    342.21089      499.56981      3375         
      4330  -56.489049      0.41084985    -56.078199      0.029520714    353.16364      14.901491      3375         
      4340  -56.602377      0.50890635    -56.09347       0.029520714    437.45232     -636.31771      3375         
      4350  -56.495805      0.38819291    -56.107612      0.029520714    333.68789     -520.09591      3375         
      4360  -56.524856      0.40022599    -56.12463       0.029520714    344.03144      282.92438      3375         
      4370  -56.45563       0.31895522    -56.136674      0.029520714    274.17166      1630.1606      3375         
      4380  -56.415094      0.26472136    -56.150373      0.029520714    227.55262     -215.57308      3375         
      4390  -56.476071      0.32641947    -56.149652      0.029520714    280.58788     -1812.6459      3375         
      4400  -56.618656      0.45743341    -56.161223      0.029520714    393.20654      421.16201      3375         
      4410  -56.47161       0.29906171    -56.172549      0.029520714    257.07134      964.36986      3375         
      4420  -56.515395      0.33390849    -56.181486      0.029520714    287.02539     -638.41811      3375         
      4430  -56.58411       0.39223778    -56.191872      0.029520714    337.16484     -357.75964      3375         
      4440  -56.571724      0.37045271    -56.201272      0.029520714    318.43854      244.42724      3375         
      4450  -56.438544      0.22835379    -56.210191      0.029520714    196.29131      462.45459      3375         
      4460  -56.546675      0.32691708    -56.219758      0.029520714    281.01562      553.83967      3375         
      4470  -56.504179      0.2790976     -56.225081      0.029520714    239.91033     -743.14686      3375         
      4480  -56.499347      0.27075718    -56.22859       0.029520714    232.74097     -584.01609      3375         
      4490  -56.503214      0.26743675    -56.235777      0.029520714    229.88675      1243.0687      3375         
      4500  -56.608546      0.36027584    -56.24827       0.029520714    309.69058     -357.45282      3375         
      4510  -56.496028      0.26038233    -56.235645      0.029520714    223.82282     -1219.713       3375         
      4520  -56.581971      0.33497697    -56.246994      0.029520714    287.94385      833.85577      3375         
      4530  -56.635828      0.3842924     -56.251535      0.029520714    330.33504      590.22189      3375         
      4540  -56.577342      0.32147788    -56.255864      0.029520714    276.34012     -627.8537       3375         
      4550  -56.432825      0.17422452    -56.258601      0.029520714    149.76218     -456.07194      3375         
      4560  -56.510658      0.25212792    -56.258531      0.029520714    216.72739      121.95201      3375         
      4570  -56.568961      0.3049402     -56.26402       0.029520714    262.12445      1173.6052      3375         
      4580  -56.532641      0.27860017    -56.25404       0.029520714    239.48275      401.10114      3375         
      4590  -56.548044      0.29295444    -56.255089      0.029520714    251.82157     -1508.743       3375         
      4600  -56.671761      0.41988962    -56.251871      0.029520714    360.93416     -458.42689      3375         
      4610  -56.584805      0.34054919    -56.244256      0.029520714    292.73368      1052.4864      3375         
      4620  -56.503711      0.26575876    -56.237952      0.029520714    228.44436     -205.54403      3375         
      4630  -56.530041      0.29906591    -56.230975      0.029520714    257.07495     -150.97843      3375         
      4640  -56.511363      0.28881828    -56.222545      0.029520714    248.26616      549.49809      3375         
      4650  -56.393919      0.18660704    -56.207312      0.029520714    160.4061      -7.4257091      3375         
      4660  -56.556334      0.36272187    -56.193612      0.029520714    311.79317     -514.08676      3375         
      4670  -56.583358      0.41449146    -56.168866      0.029520714    356.29394     -662.54832      3375         
      4680  -56.501702      0.36506465    -56.136637      0.029520714    313.80701      316.62929      3375         
      4690  -56.505273      0.39721898    -56.108054      0.029520714    341.44664      1320.6845      3375         
      4700  -56.557316      0.47291812    -56.084398      0.029520714    406.51709     -175.93072      3375         
      4710  -56.320386      0.26342682    -56.056959      0.029520714    226.43984     -1336.3258      3375         
      4720  -56.453541      0.41785602    -56.035685      0.029520714    359.1861      -145.9956       3375         
      4730  -56.41317       0.39541643    -56.017753      0.029520714    339.89718      1271.5908      3375         
      4740  -56.374148      0.38378333    -55.990365      0.029520714    329.89745      325.80781      3375         
      4750  -56.403295      0.42284744    -55.980447      0.029520714    363.47669     -885.97223      3375         
      4760  -56.526309      0.57996454    -55.946345      0.029520714    498.53344     -424.00938      3375         
      4770  -56.390328      0.45200378    -55.938324      0.029520714    388.53927      519.57211      3375         
      4780  -56.453948      0.52301161    -55.930936      0.029520714    449.5771       265.66047      3375         
      4790  -56.341861      0.42234386    -55.919517      0.029520714    363.04381     -572.34459      3375         
      4800  -56.42704       0.50698976    -55.92005       0.029520714    435.80483     -146.87876      3375         
      4810  -56.377816      0.45775421    -55.920062      0.029520714    393.4823       1038.9334      3375         
      4820  -56.334941      0.41244243    -55.922498      0.029520714    354.53261     -213.37901      3375         
      4830  -56.354182      0.42554767    -55.928635      0.029520714    365.79779     -1566.6787      3375         
      4840  -56.426218      0.4893814     -55.936836      0.029520714    420.66881      511.73681      3375         
      4850  -56.346882      0.4013042     -55.945578      0.029520714    344.95827      1837.9671      3375         
      4860  -56.5258        0.5658454     -55.959955      0.029520714    486.39672     -195.24798      3375         
      4870  -56.575351      0.59616355    -55.979187      0.029520714    512.45799     -1445.9409      3375         
      4880  -56.379579      0.37966341    -55.999915      0.029520714    326.35599     -641.99922      3375         
      4890  -56.419112      0.38840453    -56.030708      0.029520714    333.8698       439.79963      3375         
      4900  -56.50364       0.44822755    -56.055412      0.029520714    385.29325      1138.4121      3375         
      4910  -56.306183      0.23634482    -56.069839      0.029520714    203.16034     -107.73988      3375         
      4920  -56.381482      0.28916345    -56.092319      0.029520714    248.56287     -552.38027      3375         
      4930  -56.568072      0.46033681    -56.107736      0.029520714    395.70228      782.9065       3375         
      4940  -56.621414      0.48867302    -56.132741      0.029520714    420.05989     -564.14254      3375         
      4950  -56.527476      0.3697338     -56.157742      0.029520714    317.82057     -1197.5448      3375         
      4960  -56.616234      0.42565701    -56.190577      0.029520714    365.89177      758.602        3375         
      4970  -56.49548       0.29863836    -56.196842      0.029520714    256.70743      854.67146      3375         
      4980  -56.403291      0.19012305    -56.213168      0.029520714    163.42843     -238.67368      3375         
      4990  -56.425055      0.20532577    -56.21973       0.029520714    176.49659     -369.32718      3375         
      5000  -56.588591      0.36269716    -56.225894      0.029520714    311.77192     -486.48819      3375         
      5010  -56.555689      0.32362309    -56.232066      0.029520714    278.18413      761.76893      3375         
      5020  -56.61441       0.37825253    -56.236157      0.029520714    325.14322      860.50444      3375         
      5030  -56.610986      0.36097251    -56.250013      0.029520714    310.28943     -1375.3051      3375         
      5040  -56.518123      0.27643493    -56.241688      0.029520714    237.62152     -667.17573      3375         
      5050  -56.47743       0.2281195     -56.249311      0.029520714    196.08991      1267.7219      3375         
      5060  -56.557868      0.30659721    -56.251271      0.029520714    263.5488       19.363014      3375         
      5070  -56.525805      0.2761525     -56.249653      0.029520714    237.37874     -498.2025       3375         
      5080  -56.509172      0.26080795    -56.248364      0.029520714    224.18868      287.99394      3375         
      5090  -56.533671      0.28811214    -56.245559      0.029520714    247.65917      32.800491      3375         
      5100  -56.625963      0.38287347    -56.24309       0.029520714    329.11534      7.7447374      3375         
      5110  -56.574385      0.3347876     -56.239598      0.029520714    287.78107     -304.6393       3375         
      5120  -56.556997      0.31999696    -56.237         0.029520714    275.06714     -458.45256      3375         
      5130  -56.551212      0.31919063    -56.232021      0.029520714    274.37402      982.65484      3375         
      5140  -56.513513      0.28216246    -56.231351      0.029520714    242.54486      478.63879      3375         
      5150  -56.511556      0.28785064    -56.223706      0.029520714    247.43438     -1452.234       3375         
      5160  -56.544745      0.32470704    -56.220038      0.029520714    279.11589     -327.69974      3375         
      5170  -56.503421      0.28964164    -56.213779      0.029520714    248.97391      1488.9693      3375         
      5180  -56.515941      0.30796149    -56.20798       0.029520714    264.72153      554.48436      3375         
      5190  -56.524355      0.31453393    -56.209821      0.029520714    270.37115     -1051.8248      3375         
      5200  -56.581437      0.39813653    -56.1833        0.029520714    342.23536     -692.61429      3375         
      5210  -56.548691      0.35947216    -56.189218      0.029520714    308.99974      531.50812      3375         
      5220  -56.572276      0.40061695    -56.171659      0.029520714    344.36751      439.37883      3375         
      5230  -56.454989      0.28527127    -56.169718      0.029520714    245.21718     -698.08771      3375         
      5240  -56.478006      0.31356223    -56.164444      0.029520714    269.53589     -545.23777      3375         
      5250  -56.443366      0.28858923    -56.154776      0.029520714    248.06927      1236.3579      3375         
      5260  -56.526827      0.37915391    -56.147674      0.029520714    325.91803      709.42017      3375         
      5270  -56.430146      0.29207526    -56.138071      0.029520714    251.06584     -1231.8847      3375         
      5280  -56.504082      0.37572669    -56.128355      0.029520714    322.97202     -410.7788       3375         
      5290  -56.579698      0.46184657    -56.117852      0.029520714    397.00006      1266.5271      3375         
      5300  -56.600809      0.49399191    -56.106817      0.029520714    424.63197     -90.842337      3375         
      5310  -56.419391      0.31486846    -56.104523      0.029520714    270.65871     -1399.1027      3375         
      5320  -56.357218      0.27631622    -56.080902      0.029520714    237.51947     -39.967184      3375         
      5330  -56.405855      0.32154757    -56.084307      0.029520714    276.40003      1000.6517      3375         
      5340  -56.474891      0.40030715    -56.074583      0.029520714    344.10121      892.4749       3375         
      5350  -56.454637      0.39935485    -56.055282      0.029520714    343.28262     -599.73518      3375         
      5360  -56.539731      0.49936791    -56.040363      0.029520714    429.25314     -1488.9397      3375         
      5370  -56.508206      0.48673523    -56.021471      0.029520714    418.39418      815.83018      3375         
      5380  -56.374646      0.37514057    -55.999506      0.029520714    322.46819      1047.6701      3375         
      5390  -56.432802      0.45884184    -55.97396       0.029520714    394.41721     -1026.5564      3375         
      5400  -56.463802      0.51347348    -55.950329      0.029520714    441.37819     -270.25564      3375         
      5410  -56.321396      0.39962835    -55.921767      0.029520714    343.51772      773.65389      3375         
      5420  -56.271782      0.37388816    -55.897894      0.029520714    321.39164      49.176696      3375         
      5430  -56.368925      0.51162209    -55.857303      0.029520714    439.78675     -329.59913      3375         
      5440  -56.390599      0.57468796    -55.815912      0.029520714    493.99773     -542.24423      3375         
      5450  -56.292834      0.51546792    -55.777366      0.029520714    443.0926       597.09652      3375         
      5460  -56.387682      0.63955289    -55.748129      0.029520714    549.75516      1213.323       3375         
      5470  -56.286224      0.55999489    -55.72623       0.029520714    481.36767     -1544.7098      3375         
      5480  -56.326098      0.62548238    -55.700615      0.029520714    537.66025     -1663.7421      3375         
      5490  -56.300264      0.59910018    -55.701163      0.029520714    514.9823       1954.6903      3375         
      5500  -56.221031      0.52867376    -55.692358      0.029520714    454.44424      763.2138       3375         
      5510  -56.098136      0.40015478    -55.697981      0.029520714    343.97023     -1057.4892      3375         
      5520  -56.22149       0.51063757    -55.710852      0.029520714    438.94047      382.2583       3375         
      5530  -56.414788      0.68909755    -55.72569       0.029520714    592.34341      338.73831      3375         
      5540  -56.334948      0.58322165    -55.751726      0.029520714    501.33323      195.27509      3375         
      5550  -56.323282      0.52381341    -55.799469      0.029520714    450.26632     -54.461629      3375         
      5560  -56.39405       0.56363468    -55.830415      0.029520714    484.49641     -1280.9735      3375         
      5570  -56.414781      0.53794442    -55.876837      0.029520714    462.41324      119.94622      3375         
      5580  -56.354193      0.42564301    -55.92855       0.029520714    365.87973      937.8049       3375         
      5590  -56.369664      0.40443586    -55.965228      0.029520714    347.65022     -880.49955      3375         
      5600  -56.360798      0.36956013    -55.991238      0.029520714    317.67129     -70.820003      3375         
      5610  -56.463241      0.44230945    -56.020932      0.029520714    380.20609      1342.0773      3375         
      5620  -56.488096      0.44327425    -56.044822      0.029520714    381.03542     -177.1355       3375         
      5630  -56.494455      0.4257305     -56.068724      0.029520714    365.95494     -575.154        3375         
      5640  -56.481275      0.3948465     -56.086429      0.029520714    339.40728     -103.09744      3375         
      5650  -56.556456      0.44915467    -56.107301      0.029520714    386.0902      -377.54354      3375         
      5660  -56.491358      0.37578589    -56.115572      0.029520714    323.0229       389.3908       3375         
      5670  -56.473757      0.32743299    -56.146324      0.029520714    281.45909      256.18685      3375         
      5680  -56.433987      0.30026352    -56.133724      0.029520714    258.10441     -475.60752      3375         
      5690  -56.385932      0.23647754    -56.149455      0.029520714    203.27443      491.47792      3375         
      5700  -56.518326      0.36108671    -56.15724       0.029520714    310.3876       576.4577       3375         
      5710  -56.603978      0.44046285    -56.163515      0.029520714    378.61877     -674.34477      3375         
      5720  -56.564333      0.39077512    -56.173558      0.029520714    335.90754     -640.94691      3375         
      5730  -56.476647      0.29645973    -56.180187      0.029520714    254.8347       137.19653      3375         
      5740  -56.544201      0.35490037    -56.1893        0.029520714    305.06986      265.35572      3375         
      5750  -56.490902      0.29917874    -56.191724      0.029520714    257.17194      193.12305      3375         
      5760  -56.487026      0.28730775    -56.199718      0.029520714    246.96772      212.67984      3375         
      5770  -56.483316      0.27905362    -56.204263      0.029520714    239.87253     -89.998168      3375         
      5780  -56.515451      0.30456027    -56.210891      0.029520714    261.79786     -76.084015      3375         
      5790  -56.574266      0.36809385    -56.206172      0.029520714    316.41088     -55.03233       3375         
      5800  -56.608255      0.39594468    -56.21231       0.029520714    340.35126     -285.51191      3375         
      5810  -56.55125       0.33401062    -56.217239      0.029520714    287.11317      138.32233      3375         
      5820  -56.571387      0.34874744    -56.222639      0.029520714    299.78085      493.51482      3375         
      5830  -56.54954       0.3270201     -56.22252       0.029520714    281.10418     -405.66604      3375         
      5840  -56.452146      0.22085403    -56.231292      0.029520714    189.84457     -568.92803      3375         
      5850  -56.562614      0.3428966     -56.219717      0.029520714    294.75151      175.71688      3375         
      5860  -56.576703      0.35024266    -56.22646       0.029520714    301.06612      301.39122      3375         
      5870  -56.484138      0.2605551     -56.223583      0.029520714    223.97133      399.09387      3375         
      5880  -56.525538      0.30105273    -56.224485      0.029520714    258.78281      106.93059      3375         
      5890  -56.670308      0.45039411    -56.219913      0.029520714    387.15561     -642.02999      3375         
      5900  -56.525609      0.30985779    -56.215751      0.029520714    266.35157      110.05479      3375         
      5910  -56.506668      0.293111      -56.213557      0.029520714    251.95615      374.07762      3375         
      5920  -56.53733       0.32413941    -56.21319       0.029520714    278.62796     -536.40927      3375         
      5930  -56.501116      0.29698814    -56.204128      0.029520714    255.28891     -18.299488      3375         
      5940  -56.48409       0.28885442    -56.195235      0.029520714    248.29722      341.26959      3375         
      5950  -56.538137      0.34469631    -56.193441      0.029520714    296.29852     -372.22763      3375         
      5960  -56.49685       0.32240137    -56.174449      0.029520714    277.13395      102.72481      3375         
      5970  -56.497986      0.33171627    -56.166269      0.029520714    285.14097      548.20963      3375         
      5980  -56.533135      0.38703664    -56.146098      0.029520714    332.69397      160.28979      3375         
      5990  -56.485907      0.35428033    -56.131627      0.029520714    304.53688     -80.576791      3375         
      6000  -56.52058       0.40938504    -56.111195      0.029520714    351.9045      -986.84691      3375         
      6010  -56.456016      0.36445238    -56.091564      0.029520714    313.2807      -537.60109      3375         
      6020  -56.352505      0.2790494     -56.073456      0.029520714    239.8689       1074.2298      3375         
      6030  -56.379606      0.32131689    -56.058289      0.029520714    276.20174      607.09712      3375         
      6040  -56.484821      0.45286021    -56.03196       0.029520714    389.27545      76.092655      3375         
      6050  -56.430692      0.42479488    -56.005897      0.029520714    365.15069     -185.48373      3375         
      6060  -56.508037      0.52594943    -55.982088      0.029520714    452.10243     -1046.3887      3375         
      6070  -56.522475      0.56704235    -55.955433      0.029520714    487.42562     -255.35222      3375         
      6080  -56.356011      0.42034992    -55.935661      0.029520714    361.32983      788.20203      3375         
      6090  -56.352673      0.42085358    -55.931819      0.029520714    361.76278      212.29709      3375         
      6100  -56.386153      0.479087      -55.907066      0.029520714    411.81981      433.98938      3375         
      6110  -56.341625      0.43941044    -55.902215      0.029520714    377.71412     -229.90956      3375         
      6120  -56.413386      0.51963008    -55.893756      0.029520714    446.67036     -1210.2615      3375         
      6130  -56.418577      0.52987494    -55.888702      0.029520714    455.47677      148.79369      3375         
      6140  -56.441313      0.55891426    -55.882398      0.029520714    480.43877      830.62993      3375         
      6150  -56.434587      0.5449191     -55.889668      0.029520714    468.40863      344.41148      3375         
      6160  -56.370768      0.47424115    -55.896527      0.029520714    407.65435      370.15148      3375         
      6170  -56.348195      0.43752213    -55.910672      0.029520714    376.09094     -932.497        3375         
      6180  -56.399604      0.47102616    -55.928578      0.029520714    404.89078     -741.72023      3375         
      6190  -56.493548      0.55247588    -55.941072      0.029520714    474.90437      534.89702      3375         
      6200  -56.378237      0.39605585    -55.982182      0.029520714    340.44682     -23.385977      3375         
      6210  -56.378875      0.37959377    -55.999281      0.029520714    326.29613      11.230677      3375         
      6220  -56.435591      0.41031193    -56.025279      0.029520714    352.70125      788.23776      3375         
      6230  -56.457125      0.39608523    -56.06104       0.029520714    340.47208     -229.70648      3375         
      6240  -56.459503      0.35923149    -56.100271      0.029520714    308.79286     -213.44921      3375         
      6250  -56.595182      0.46791046    -56.127272      0.029520714    402.21254      191.18049      3375         
      6260  -56.529634      0.36049807    -56.169136      0.029520714    309.88161     -379.60324      3375         
      6270  -56.428841      0.23807153    -56.190769      0.029520714    204.64461     -290.95923      3375         
      6280  -56.571636      0.36393018    -56.207706      0.029520714    312.83182     -137.39298      3375         
      6290  -56.551285      0.32346979    -56.227815      0.029520714    278.05235     -24.779718      3375         
      6300  -56.41346       0.17719057    -56.23627       0.029520714    152.31177      759.99562      3375         
      6310  -56.551539      0.31542429    -56.236114      0.029520714    271.1365       571.3039       3375         
      6320  -56.696427      0.446837      -56.24959       0.029520714    384.09794     -360.8722       3375         
      6330  -56.540144      0.28236949    -56.257775      0.029520714    242.72283     -309.64275      3375         
      6340  -56.545012      0.2926818     -56.25233       0.029520714    251.58721     -458.18182      3375         
      6350  -56.538681      0.27766888    -56.261012      0.029520714    238.68221     -387.50893      3375         
      6360  -56.526767      0.26848529    -56.258282      0.029520714    230.78807      435.00065      3375         
[...]
     48420  -56.54423       0.59556392    -55.948666      0.029520714    511.94256     -45.204912      3375         
     48430  -56.556465      0.61892666    -55.937539      0.029520714    532.02501     -1023.9869      3375         
     48440  -56.3726        0.42474414    -55.947856      0.029520714    365.10707     -279.4265       3375         
     48450  -56.228814      0.27496976    -55.953845      0.029520714    236.36207      718.50554      3375         
     48460  -56.388378      0.42657815    -55.9618        0.029520714    366.68358      827.29184      3375         
     48470  -56.454519      0.47462269    -55.979897      0.029520714    407.98233     -396.45254      3375         
     48480  -56.357501      0.38277337    -55.974728      0.029520714    329.02929     -894.08957      3375         
     48490  -56.46          0.46394598    -55.996054      0.029520714    398.8047       331.6934       3375         
     48500  -56.509185      0.48881953    -56.020366      0.029520714    420.18583      417.03127      3375         
     48510  -56.367522      0.32924414    -56.038277      0.029520714    283.01595     -27.714464      3375         
     48520  -56.409989      0.35662727    -56.053362      0.029520714    306.55429     -143.61469      3375         
     48530  -56.560591      0.47806662    -56.082525      0.029520714    410.9427      -161.14585      3375         
     48540  -56.535644      0.4297195     -56.105925      0.029520714    369.38385     -295.47479      3375         
     48550  -56.470356      0.34130301    -56.129053      0.029520714    293.38167     -254.66282      3375         
     48560  -56.453623      0.30253575    -56.151087      0.029520714    260.0576       334.77106      3375         
     48570  -56.473734      0.29931954    -56.174415      0.029520714    257.29297      982.93525      3375         
     48580  -56.501621      0.3196573     -56.181964      0.029520714    274.77516      269.95503      3375         
     48590  -56.52861       0.3260993     -56.20251       0.029520714    280.31267     -875.14694      3375         
     48600  -56.561347      0.35101795    -56.210329      0.029520714    301.73256     -684.14104      3375         
     48610  -56.651901      0.42026469    -56.231636      0.029520714    361.25657     -13.843185      3375         
     48620  -56.577901      0.33594725    -56.241954      0.029520714    288.7779       749.7227       3375         
     48630  -56.445905      0.19341562    -56.252489      0.029520714    166.25871      460.53586      3375         
     48640  -56.504731      0.2425584     -56.262172      0.029520714    208.5015      -575.401        3375         
     48650  -56.618584      0.35875235    -56.259832      0.029520714    308.381       -314.80274      3375         
     48660  -56.57882       0.31143753    -56.267383      0.029520714    267.70951      23.696756      3375         
     48670  -56.534013      0.26335873    -56.270655      0.029520714    226.38131     -182.37006      3375         
     48680  -56.57981       0.30332168    -56.276489      0.029520714    260.73318      529.36006      3375         
     48690  -56.576306      0.30640943    -56.269897      0.029520714    263.38739      404.79253      3375         
     48700  -56.504973      0.22958639    -56.275387      0.029520714    197.35085     -244.41622      3375         
     48710  -56.595186      0.32390928    -56.271277      0.029520714    278.43014     -118.5223       3375         
     48720  -56.618795      0.34546597    -56.273329      0.029520714    296.96012     -425.87564      3375         
     48730  -56.497699      0.23197787    -56.265721      0.029520714    199.40655      2.0716754      3375         
     48740  -56.454906      0.18976078    -56.265145      0.029520714    163.11703      739.70781      3375         
     48750  -56.574321      0.30851518    -56.265806      0.029520714    265.19748     -319.15813      3375         
     48760  -56.560084      0.30946683    -56.250617      0.029520714    266.01551     -562.94525      3375         
     48770  -56.606705      0.35812803    -56.248577      0.029520714    307.84433      262.35131      3375         
     48780  -56.640098      0.40105881    -56.23904       0.029520714    344.74733     -5.4577208      3375         
     48790  -56.556718      0.32230653    -56.234411      0.029520714    277.05242      112.07694      3375         
     48800  -56.445514      0.21864986    -56.226864      0.029520714    187.94988      209.13191      3375         
     48810  -56.456822      0.23414531    -56.222677      0.029520714    201.26966     -463.86251      3375         
     48820  -56.512172      0.2952601     -56.216912      0.029520714    253.80351      359.14255      3375         
     48830  -56.572296      0.36976909    -56.202527      0.029520714    317.8509       590.08138      3375         
     48840  -56.677678      0.48433311    -56.193345      0.029520714    416.32933     -602.64551      3375         
     48850  -56.500303      0.31828389    -56.18202       0.029520714    273.59459     -186.91803      3375         
     48860  -56.401401      0.22169564    -56.179706      0.029520714    190.56801      390.03349      3375         
     48870  -56.529817      0.36383234    -56.165985      0.029520714    312.74772     -300.2972       3375         
     48880  -56.57522       0.41730911    -56.157911      0.029520714    358.71597     -365.72278      3375         
     48890  -56.494576      0.34365191    -56.150924      0.029520714    295.40076      27.826994      3375         
     48900  -56.499861      0.35187249    -56.147988      0.029520714    302.46711      376.30581      3375         
     48910  -56.505462      0.36793006    -56.137532      0.029520714    316.27009      406.09072      3375         
     48920  -56.436997      0.3005809     -56.136416      0.029520714    258.37723     -592.12183      3375         
     48930  -56.414934      0.27986788    -56.135066      0.029520714    240.57246     -297.23849      3375         
     48940  -56.542497      0.41816249    -56.124334      0.029520714    359.44954      958.60685      3375         
     48950  -56.596204      0.47263723    -56.123567      0.029520714    406.27564      260.07         3375         
     48960  -56.489063      0.36543922    -56.123624      0.029520714    314.12898     -975.45382      3375         
     48970  -56.511056      0.38462994    -56.126426      0.029520714    330.62519     -340.50113      3375         
     48980  -56.416594      0.29768102    -56.118913      0.029520714    255.88451      862.06572      3375         
     48990  -56.411863      0.2889561     -56.122906      0.029520714    248.38463      514.18966      3375         
     49000  -56.484093      0.35611845    -56.127975      0.029520714    306.11692     -728.86398      3375         
     49010  -56.582891      0.46890271    -56.113988      0.029520714    403.06547     -900.01622      3375         
     49020  -56.498132      0.3754219     -56.12271       0.029520714    322.71002      269.6755       3375         
     49030  -56.489256      0.36532842    -56.123928      0.029520714    314.03374      428.62016      3375         
     49040  -56.485041      0.35910421    -56.125936      0.029520714    308.68345      95.843208      3375         
     49050  -56.46532       0.33818928    -56.12713       0.029520714    290.70513      282.49605      3375         
     49060  -56.401471      0.27447346    -56.126998      0.029520714    235.93546      540.61868      3375         
     49070  -56.564988      0.4358692     -56.129119      0.029520714    374.6701      -39.462577      3375         
     49080  -56.601451      0.4672422     -56.134208      0.029520714    401.63811     -1166.1807      3375         
     49090  -56.380173      0.25035196    -56.129821      0.029520714    215.20078     -562.76643      3375         
     49100  -56.375441      0.23883134    -56.136609      0.029520714    205.29774      1140.3013      3375         
     49110  -56.626922      0.48574188    -56.141181      0.029520714    417.5403       528.41585      3375         
     49120  -56.558123      0.42006026    -56.138062      0.029520714    361.08085     -670.76619      3375         
     49130  -56.394256      0.25468277    -56.139574      0.029520714    218.92352     -485.67602      3375         
     49140  -56.560866      0.41432487    -56.146541      0.029520714    356.15074      181.90833      3375         
     49150  -56.586456      0.43630246    -56.150154      0.029520714    375.04253      526.43566      3375         
     49160  -56.379216      0.22608996    -56.153126      0.029520714    194.34534     -199.98802      3375         
     49170  -56.448879      0.29234819    -56.156531      0.029520714    251.30045     -290.50408      3375         
     49180  -56.567235      0.40369921    -56.163535      0.029520714    347.017        736.01978      3375         
     49190  -56.538423      0.38046069    -56.157962      0.029520714    327.04133     -38.758387      3375         
     49200  -56.537798      0.37072903    -56.167069      0.029520714    318.67607     -980.68269      3375         
     49210  -56.490888      0.31927806    -56.17161       0.029520714    274.44918      35.486405      3375         
     49220  -56.467648      0.29247895    -56.175169      0.029520714    251.41285      807.34392      3375         
     49230  -56.57222       0.39182528    -56.180394      0.029520714    336.81025      324.16525      3375         
     49240  -56.554125      0.36881258    -56.185312      0.029520714    317.0287      -609.33873      3375         
     49250  -56.478738      0.29083828    -56.1879        0.029520714    250.00253     -856.9282       3375         
     49260  -56.511185      0.31419016    -56.196994      0.029520714    270.07565      667.62056      3375         
     49270  -56.517554      0.32126149    -56.196293      0.029520714    276.15411      789.0223       3375         
     49280  -56.511418      0.30103445    -56.210383      0.029520714    258.76709     -783.70191      3375         
     49290  -56.584527      0.37722152    -56.207305      0.029520714    324.25696     -356.73617      3375         
     49300  -56.586605      0.36771243    -56.218893      0.029520714    316.08302      535.86836      3375         
     49310  -56.510413      0.28315088    -56.227262      0.029520714    243.3945       147.20052      3375         
     49320  -56.502855      0.26832609    -56.234529      0.029520714    230.65122      90.740869      3375         
     49330  -56.552634      0.31044628    -56.242188      0.029520714    266.85744     -88.502029      3375         
     49340  -56.508372      0.26004872    -56.248323      0.029520714    223.53605     -91.353302      3375         
     49350  -56.554952      0.29779777    -56.257154      0.029520714    255.98487     -4.436352       3375         
     49360  -56.596663      0.3296724     -56.266991      0.029520714    283.38408     -595.90173      3375         
     49370  -56.602449      0.32994227    -56.272506      0.029520714    283.61606     -253.70406      3375         
     49380  -56.570062      0.28657658    -56.283485      0.029520714    246.33921      939.61301      3375         
     49390  -56.545121      0.24952458    -56.295596      0.029520714    214.48957      453.49255      3375         
     49400  -56.449891      0.15490987    -56.294981      0.029520714    133.15943     -450.58099      3375         
     49410  -56.595603      0.29333632    -56.302267      0.029520714    252.14984     -314.218        3375         
     49420  -56.686409      0.37975238    -56.306656      0.029520714    326.43247      33.992277      3375         
     49430  -56.612185      0.29609579    -56.316089      0.029520714    254.52186      145.40571      3375         
     49440  -56.531914      0.21180516    -56.320109      0.029520714    182.06622     -214.5532       3375         
     49450  -56.512347      0.1919098     -56.320438      0.029520714    164.96432     -251.29747      3375         
     49460  -56.582918      0.25904667    -56.323871      0.029520714    222.67469      564.7724       3375         
     49470  -56.671964      0.34932906    -56.322635      0.029520714    300.28081      452.83386      3375         
     49480  -56.665098      0.34294445    -56.322153      0.029520714    294.79264     -450.36439      3375         
     49490  -56.546683      0.22587616    -56.320807      0.029520714    194.16156     -589.01904      3375         
     49500  -56.572435      0.25260121    -56.319834      0.029520714    217.13422     -12.647163      3375         
     49510  -56.532342      0.21847072    -56.313871      0.029520714    187.79589      509.74204      3375         
     49520  -56.559821      0.24969855    -56.310123      0.029520714    214.63912      139.05507      3375         
     49530  -56.584359      0.28627835    -56.298081      0.029520714    246.08285     -190.07127      3375         
     49540  -56.609395      0.32557359    -56.283821      0.029520714    279.86077      283.82977      3375         
     49550  -56.594652      0.32410027    -56.270552      0.029520714    278.59431      30.308024      3375         
     49560  -56.579288      0.32609594    -56.253192      0.029520714    280.30977     -609.77235      3375         
     49570  -56.471331      0.23656118    -56.23477       0.029520714    203.34633     -223.36093      3375         
     49580  -56.465467      0.24523519    -56.220232      0.029520714    210.80245      405.23599      3375         
     49590  -56.517754      0.31388429    -56.20387       0.029520714    269.81273      494.03624      3375         
     49600  -56.488119      0.31227007    -56.175849      0.029520714    268.42516     -179.22933      3375         
     49610  -56.561413      0.40987002    -56.151543      0.029520714    352.32138     -751.69349      3375         
     49620  -56.547557      0.42243093    -56.125126      0.029520714    363.11866      408.02988      3375         
     49630  -56.416551      0.31404498    -56.102506      0.029520714    269.95085      867.52548      3375         
     49640  -56.375689      0.2860322     -56.089657      0.029520714    245.87126     -540.07363      3375         
     49650  -56.536338      0.47245099    -56.063887      0.029520714    406.11555     -571.42431      3375         
     49660  -56.51343       0.46396094    -56.049469      0.029520714    398.81756      501.33611      3375         
     49670  -56.365478      0.33050448    -56.034974      0.029520714    284.09933      368.31579      3375         
     49680  -56.424595      0.39883116    -56.025764      0.029520714    342.83246     -487.17549      3375         
     49690  -56.471863      0.45363167    -56.018231      0.029520714    389.93859     -636.10671      3375         
     49700  -56.423033      0.41815756    -56.004876      0.029520714    359.4453       255.81915      3375         
     49710  -56.466539      0.46262535    -56.003913      0.029520714    397.66949      703.7083       3375         
     49720  -56.417627      0.41789879    -55.999728      0.029520714    359.22286     -314.46426      3375         
     49730  -56.402586      0.40185784    -56.000728      0.029520714    345.43417     -351.59669      3375         
     49740  -56.496602      0.49608686    -56.000516      0.029520714    426.43278      559.9131       3375         
     49750  -56.376927      0.37210726    -56.00482       0.029520714    319.86078      472.92336      3375         
     49760  -56.362191      0.35392752    -56.008264      0.029520714    304.23361     -490.64489      3375         
     49770  -56.529532      0.51323122    -56.016301      0.029520714    441.16994     -943.03935      3375         
     49780  -56.478885      0.45878697    -56.020098      0.029520714    394.37005      204.81466      3375         
     49790  -56.315557      0.28183133    -56.033726      0.029520714    242.26023      1226.5693      3375         
     49800  -56.437945      0.38822513    -56.04972       0.029520714    333.71559     -286.21175      3375         
     49810  -56.502544      0.45466815    -56.047876      0.029520714    390.82954     -842.06018      3375         
     49820  -56.456713      0.38782116    -56.068892      0.029520714    333.36834      396.77712      3375         
     49830  -56.461717      0.38036387    -56.081353      0.029520714    326.9581       364.00936      3375         
     49840  -56.531554      0.43333061    -56.098224      0.029520714    372.48794     -532.61275      3375         
     49850  -56.458816      0.34212225    -56.116693      0.029520714    294.08588     -509.69024      3375         
     49860  -56.406535      0.27677703    -56.129758      0.029520714    237.91559      411.67128      3375         
     49870  -56.463708      0.3226835     -56.141025      0.029520714    277.37646      963.66259      3375         
     49880  -56.610467      0.45000964    -56.160458      0.029520714    386.82512     -129.61767      3375         
     49890  -56.549237      0.37191535    -56.177322      0.029520714    319.69582     -777.5495       3375         
     49900  -56.503688      0.31111911    -56.192569      0.029520714    267.4358       282.92293      3375         
     49910  -56.531501      0.32116785    -56.210333      0.029520714    276.07362      507.27626      3375         
     49920  -56.575482      0.34496933    -56.230513      0.029520714    296.53321     -872.52364      3375         
     49930  -56.44245       0.2138516     -56.228598      0.029520714    183.82533     -641.1291       3375         
     49940  -56.55872       0.31165131    -56.247068      0.029520714    267.89327      901.37202      3375         
     49950  -56.652506      0.39173397    -56.260772      0.029520714    336.73176      839.05722      3375         
     49960  -56.55382       0.28272189    -56.271098      0.029520714    243.02575     -566.34391      3375         
     49970  -56.555516      0.27382364    -56.281692      0.029520714    235.37688     -1043.4891      3375         
     49980  -56.615132      0.32085128    -56.294281      0.029520714    275.80151      211.79304      3375         
     49990  -56.473102      0.17640016    -56.296702      0.029520714    151.63234      1200.4363      3375         
     50000  -56.543931      0.24150044    -56.302431      0.029520714    207.59208      147.25946      3375         
Loop time of 81.6579 on 3 procs for 50000 steps with 10 atoms

Performance: 26.452 ns/day, 0.907 hours/ns, 612.311 timesteps/s, 6.123 katom-step/s
168.3% CPU use with 3 MPI tasks x no OpenMP threads

MPI task timing breakdown:
Section |  min time  |  avg time  |  max time  |%varavg| %total
---------------------------------------------------------------
Pair    | 26.682     | 43.902     | 77.904     | 362.9 | 53.76
Neigh   | 0.00048658 | 0.0006209  | 0.00087077 |   0.0 |  0.00
Comm    | 1.0356     | 34.959     | 52.174     | 405.7 | 42.81
Output  | 0.52757    | 0.53573    | 0.54711    |   1.1 |  0.66
Modify  | 1.9301     | 2.0223     | 2.1412     |   6.2 |  2.48
Other   |            | 0.2377     |            |       |  0.29

Nlocal:        3.33333 ave          10 max           0 min
Histogram: 2 0 0 0 0 0 0 0 0 1
Nghost:        71.3333 ave          90 max          42 min
Histogram: 1 0 0 0 0 0 0 0 1 1
Neighs:              0 ave           0 max           0 min
Histogram: 3 0 0 0 0 0 0 0 0 0
FullNghs:           30 ave          90 max           0 min
Histogram: 2 0 0 0 0 0 0 0 0 1

Total # of neighbors = 90
Ave neighs/atom = 9
Neighbor list builds = 95
Dangerous builds = 0

write_data	restart.data
System init for write_data ...
Generated 0 of 1 mixed pair_coeff terms from geometric mixing rule
#
Total wall time: 0:01:23
