LAMMPS data file via write_data, version 2 Aug 2023, timestep = 50000, units = metal

10 atoms
2 atom types

0 15 xlo xhi
0 15 ylo yhi
0 15 zlo zhi

Masses

1 12
2 2

Atoms # atomic

8 2 9.30201805277298 7.2299732581708955 8.227249982932486 0 0 0
9 2 7.7361756326600535 8.357631483694469 5.849625571981325 0 0 0
1 1 5.903902669502339 7.314685452190986 7.787726608030474 0 0 0
3 1 8.422910868925026 7.50883776834992 7.653240714224795 0 0 0
2 1 7.168758352257484 6.904771615516637 8.030223481708777 0 0 0
6 2 5.668605332160687 8.30617429653656 7.459893859993978 0 0 0
4 1 8.598978618116494 8.254041816043435 6.5500433293127545 0 0 0
7 2 7.28374448919864 5.9706554912952585 8.650953661354604 0 0 0
10 2 9.566420958458302 8.724684332671796 6.393019261430189 0 0 0
5 2 4.9997324826796605 6.73686122643294 8.180852861138982 0 0 0

Velocities

8 13.547288934638123 16.136165937613445 -10.043479090752404
9 -3.493723844817277 -4.005034412335047 -18.492923810927056
1 5.471962171743821 -2.9951471938283425 7.094380541155468
3 -7.59650328172296 -13.087391425616097 -1.3190439669620992
2 0.4255994411826752 9.835915987763432 -3.2978206546405775
6 5.441041201418726 -0.01809093032722369 -2.6044933006706246
4 -0.8518918580031423 1.6574698221000894 1.6834600449157313
7 -1.55201924430738 18.50283102157793 -5.469659446424765
10 0.8816203535096186 6.661786590086132 3.537745668682886
5 0.48079376035429683 -9.742741349130222 8.106954193277836
