ITEM: TIMESTEP
0
ITEM: NUMBER OF ATOMS
10
ITEM: BOX BOUNDS pp pp pp
0.0000000000000000e+00 1.5000000000000000e+01
0.0000000000000000e+00 1.5000000000000000e+01
0.0000000000000000e+00 1.5000000000000000e+01
ITEM: ATOMS id type x y z
6 2 9.11721 6.67433 5.81748
10 2 6.12443 6.58339 9.77139
4 1 6.31897 7.35663 9.07713
3 1 7.28368 7.08234 8.10814
8 2 7.75413 6.12269 8.13785
1 1 8.65436 7.65828 5.89793
2 1 7.76167 7.90963 6.93869
5 2 8.82982 8.50459 5.1255
7 2 7.35747 8.9574 7.01817
9 2 5.82886 8.33629 8.88725
ITEM: TIMESTEP
100
ITEM: NUMBER OF ATOMS
10
ITEM: BOX BOUNDS pp pp pp
0.0000000000000000e+00 1.5000000000000000e+01
0.0000000000000000e+00 1.5000000000000000e+01
0.0000000000000000e+00 1.5000000000000000e+01
ITEM: ATOMS id type x y z
6 2 8.97219 6.45908 5.79905
10 2 6.09539 6.65124 9.8709
4 1 6.30774 7.44724 9.13008
3 1 7.17464 7.15591 8.04266
8 2 7.61561 6.1002 8.14466
1 1 8.69019 7.53503 5.86917
2 1 7.83881 7.93133 6.90659
5 2 9.02378 8.25455 5.21589
7 2 7.6309 8.99126 6.91563
9 2 5.71782 8.34662 9.25189
ITEM: TIMESTEP
200
ITEM: NUMBER OF ATOMS
10
ITEM: BOX BOUNDS pp pp pp
0.0000000000000000e+00 1.5000000000000000e+01
0.0000000000000000e+00 1.5000000000000000e+01
0.0000000000000000e+00 1.5000000000000000e+01
ITEM: ATOMS id type x y z
6 2 9.30881 6.62128 5.60658
10 2 5.82717 6.84628 9.78834
4 1 6.34579 7.59866 9.16328
3 1 7.0706 7.11857 8.06773
8 2 7.19049 6.04346 8.05561
1 1 8.73353 7.46457 5.87916
2 1 7.87074 7.80567 6.91631
5 2 8.9839 8.24923 5.08155
7 2 7.57733 8.87177 6.82408
9 2 6.11235 8.66313 9.37395
ITEM: TIMESTEP
300
ITEM: NUMBER OF ATOMS
10
ITEM: BOX BOUNDS pp pp pp
0.0000000000000000e+00 1.5000000000000000e+01
0.0000000000000000e+00 1.5000000000000000e+01
0.0000000000000000e+00 1.5000000000000000e+01
ITEM: ATOMS id type x y z
6 2 8.79282 6.24528 5.80518
10 2 5.95578 6.85429 9.81548
4 1 6.31464 7.6048 9.13751
3 1 7.1185 7.20464 8.05173
8 2 7.28538 6.13384 8.09736
1 1 8.67881 7.37622 5.88468
2 1 7.90059 7.87005 6.87631
5 2 9.18187 8.06643 5.28174
7 2 7.86502 8.96129 6.91708
9 2 5.96794 8.62465 9.27075
ITEM: TIMESTEP
400
ITEM: NUMBER OF ATOMS
10
ITEM: BOX BOUNDS pp pp pp
0.0000000000000000e+00 1.5000000000000000e+01
0.0000000000000000e+00 1.5000000000000000e+01
0.0000000000000000e+00 1.5000000000000000e+01
ITEM: ATOMS id type x y z
6 2 8.7836 6.31224 5.65596
10 2 5.72278 7.06133 9.75777
4 1 6.29103 7.73331 9.088
3 1 7.17889 7.14388 8.10287
8 2 7.25664 6.0069 8.02261
1 1 8.6587 7.31956 5.87148
2 1 7.89716 7.82064 6.96501
5 2 9.17036 8.01699 5.14961
7 2 7.84633 8.90024 7.11331
9 2 6.1896 8.81794 9.02564
ITEM: TIMESTEP
500
ITEM: NUMBER OF ATOMS
10
ITEM: BOX BOUNDS pp pp pp
0.0000000000000000e+00 1.5000000000000000e+01
0.0000000000000000e+00 1.5000000000000000e+01
0.0000000000000000e+00 1.5000000000000000e+01
ITEM: ATOMS id type x y z
6 2 8.85526 6.11698 5.93862
10 2 5.76855 7.14464 9.77619
4 1 6.3622 7.76858 9.12605
3 1 7.07053 7.22546 8.02672
8 2 6.94256 6.15502 7.93816
1 1 8.69367 7.24776 5.94036
2 1 7.89115 7.79258 6.87719
5 2 9.26399 7.82963 5.26572
7 2 7.82818 8.91557 6.81579
9 2 6.36021 8.85186 9.33262
ITEM: TIMESTEP
600
ITEM: NUMBER OF ATOMS
10
ITEM: BOX BOUNDS pp pp pp
0.0000000000000000e+00 1.5000000000000000e+01
0.0000000000000000e+00 1.5000000000000000e+01
0.0000000000000000e+00 1.5000000000000000e+01
ITEM: ATOMS id type x y z
6 2 8.70542 6.04512 5.71157
10 2 5.82776 7.1417 9.77374
4 1 6.3007 7.89691 9.13371
3 1 7.01799 7.27188 8.04952
8 2 6.89499 6.20526 8.12091
1 1 8.67448 7.11279 5.88323
2 1 8.00997 7.76167 6.91822
5 2 9.33227 7.74589 5.23837
7 2 8.11584 8.83959 6.89354
9 2 6.22881 8.98292 9.2428
ITEM: TIMESTEP
700
ITEM: NUMBER OF ATOMS
10
ITEM: BOX BOUNDS pp pp pp
0.0000000000000000e+00 1.5000000000000000e+01
0.0000000000000000e+00 1.5000000000000000e+01
0.0000000000000000e+00 1.5000000000000000e+01
ITEM: ATOMS id type x y z
6 2 8.60667 6.0416 5.58383
1 1 8.61759 7.078 5.89548
10 2 5.63133 7.50769 9.73062
8 2 6.82804 6.16704 8.10051
3 1 7.03109 7.29579 8.08253
7 2 8.27694 8.68497 7.10001
2 1 8.08024 7.62035 7.00126
5 2 9.19718 7.64004 5.16645
9 2 6.25813 9.11481 9.16824
4 1 6.32536 8.01649 9.02728
ITEM: TIMESTEP
800
ITEM: NUMBER OF ATOMS
10
ITEM: BOX BOUNDS pp pp pp
0.0000000000000000e+00 1.5000000000000000e+01
0.0000000000000000e+00 1.5000000000000000e+01
0.0000000000000000e+00 1.5000000000000000e+01
ITEM: ATOMS id type x y z
6 2 8.42606 5.82091 6.03794
1 1 8.6613 6.89764 5.98439
10 2 5.71149 7.43357 9.67935
8 2 6.52114 6.36491 7.85893
3 1 6.96313 7.35809 7.9425
7 2 8.33292 8.81452 6.93566
2 1 8.00529 7.74201 6.91952
5 2 9.45434 7.3377 5.4003
9 2 6.68636 9.08754 9.26398
4 1 6.3689 8.0624 9.10574
ITEM: TIMESTEP
900
ITEM: NUMBER OF ATOMS
10
ITEM: BOX BOUNDS pp pp pp
0.0000000000000000e+00 1.5000000000000000e+01
0.0000000000000000e+00 1.5000000000000000e+01
0.0000000000000000e+00 1.5000000000000000e+01
ITEM: ATOMS id type x y z
6 2 8.36149 5.83996 5.81731
1 1 8.63162 6.86775 5.9879
10 2 5.49901 7.92107 9.55594
8 2 6.48852 6.37478 7.7883
3 1 6.94728 7.33309 8.03935
7 2 8.38882 8.61055 7.18878
2 1 8.02867 7.60703 6.98215
5 2 9.47515 7.28644 5.39685
9 2 6.8575 9.17295 9.12018
4 1 6.40135 8.19451 8.99421
ITEM: TIMESTEP
1000
ITEM: NUMBER OF ATOMS
10
ITEM: BOX BOUNDS pp pp pp
0.0000000000000000e+00 1.5000000000000000e+01
0.0000000000000000e+00 1.5000000000000000e+01
0.0000000000000000e+00 1.5000000000000000e+01
ITEM: ATOMS id type x y z
6 2 8.12111 5.79179 5.65526
1 1 8.58696 6.75772 5.95949
10 2 5.45539 7.89798 9.45722
8 2 6.50445 6.4496 8.0207
3 1 6.9841 7.44322 8.02452
7 2 8.75658 8.44874 7.15839
2 1 8.13191 7.57841 7.01165
5 2 9.49147 7.00501 5.47391
9 2 6.55448 9.33598 9.21857
4 1 6.33712 8.26913 8.9885
ITEM: TIMESTEP
1100
ITEM: NUMBER OF ATOMS
10
ITEM: BOX BOUNDS pp pp pp
0.0000000000000000e+00 1.5000000000000000e+01
0.0000000000000000e+00 1.5000000000000000e+01
0.0000000000000000e+00 1.5000000000000000e+01
ITEM: ATOMS id type x y z
6 2 8.3124 5.66063 5.82712
1 1 8.63117 6.66724 6.03523
10 2 5.49809 7.98114 9.51884
8 2 6.20629 6.64943 7.8905
3 1 6.84727 7.52355 7.95204
7 2 8.68336 8.45092 7.01664
2 1 8.07593 7.52239 6.99769
5 2 9.59529 7.01783 5.54378
9 2 6.9325 9.23956 9.25395
4 1 6.42831 8.32357 8.98807
ITEM: TIMESTEP
1200
ITEM: NUMBER OF ATOMS
10
ITEM: BOX BOUNDS pp pp pp
0.0000000000000000e+00 1.5000000000000000e+01
0.0000000000000000e+00 1.5000000000000000e+01
0.0000000000000000e+00 1.5000000000000000e+01
ITEM: ATOMS id type x y z
6 2 8.07869 5.62783 5.91676
1 1 8.58373 6.60491 6.05778
5 2 9.41552 6.87208 5.482
3 1 6.88285 7.52333 7.93445
8 2 6.32483 6.6443 7.63127
7 2 8.68229 8.39748 7.26475
2 1 8.13591 7.48015 7.06839
9 2 6.92928 9.34075 9.22489
4 1 6.4294 8.40984 8.92902
10 2 5.50205 8.2282 9.43148
ITEM: TIMESTEP
1300
ITEM: NUMBER OF ATOMS
10
ITEM: BOX BOUNDS pp pp pp
0.0000000000000000e+00 1.5000000000000000e+01
0.0000000000000000e+00 1.5000000000000000e+01
0.0000000000000000e+00 1.5000000000000000e+01
ITEM: ATOMS id type x y z
6 2 7.76837 5.80543 5.7906
1 1 8.52655 6.51733 6.06826
5 2 9.548 6.50554 5.59497
3 1 6.90297 7.55489 7.93732
8 2 6.19244 6.69864 7.88985
7 2 9.03146 8.11613 7.44871
2 1 8.1737 7.48424 7.13313
9 2 6.98634 9.44402 8.89136
4 1 6.41043 8.51444 8.83547
10 2 5.51548 8.22482 9.42837
ITEM: TIMESTEP
1400
ITEM: NUMBER OF ATOMS
10
ITEM: BOX BOUNDS pp pp pp
0.0000000000000000e+00 1.5000000000000000e+01
0.0000000000000000e+00 1.5000000000000000e+01
0.0000000000000000e+00 1.5000000000000000e+01
ITEM: ATOMS id type x y z
6 2 7.9872 5.51588 5.97163
1 1 8.57656 6.41299 6.17458
5 2 9.57411 6.52503 5.72883
3 1 6.799 7.63232 7.90806
8 2 5.99259 6.97802 7.60188
7 2 8.84226 8.12396 7.23594
2 1 8.09005 7.36218 7.04836
9 2 7.19026 9.33421 9.25777
4 1 6.52845 8.58591 8.83226
10 2 5.57328 8.78244 9.3134
ITEM: TIMESTEP
1500
ITEM: NUMBER OF ATOMS
10
ITEM: BOX BOUNDS pp pp pp
0.0000000000000000e+00 1.5000000000000000e+01
0.0000000000000000e+00 1.5000000000000000e+01
0.0000000000000000e+00 1.5000000000000000e+01
ITEM: ATOMS id type x y z
6 2 7.78662 5.40733 5.90115
1 1 8.48045 6.24822 6.18102
5 2 9.51177 6.15945 5.79259
3 1 6.89422 7.76859 7.90019
8 2 6.10105 7.07675 7.64426
7 2 8.99518 8.06742 7.27853
2 1 8.16358 7.36512 7.07685
9 2 7.09296 9.5062 9.27745
4 1 6.495 8.68372 8.83589
10 2 5.4369 8.60893 9.03129
ITEM: TIMESTEP
1600
ITEM: NUMBER OF ATOMS
10
ITEM: BOX BOUNDS pp pp pp
0.0000000000000000e+00 1.5000000000000000e+01
0.0000000000000000e+00 1.5000000000000000e+01
0.0000000000000000e+00 1.5000000000000000e+01
ITEM: ATOMS id type x y z
6 2 7.71793 5.63695 5.80617
1 1 8.4603 6.29156 6.20617
5 2 9.5397 6.24716 6.00865
3 1 6.84441 7.70858 7.88428
8 2 5.99253 7.00407 7.85268
7 2 9.00488 7.75777 7.49429
2 1 8.09474 7.24754 7.18663
9 2 7.26113 9.60017 8.89121
4 1 6.6022 8.76329 8.67746
10 2 5.59793 8.90797 9.1087
ITEM: TIMESTEP
1700
ITEM: NUMBER OF ATOMS
10
ITEM: BOX BOUNDS pp pp pp
0.0000000000000000e+00 1.5000000000000000e+01
0.0000000000000000e+00 1.5000000000000000e+01
0.0000000000000000e+00 1.5000000000000000e+01
ITEM: ATOMS id type x y z
6 2 7.54832 5.45203 6.14112
1 1 8.41246 6.15193 6.27856
5 2 9.37688 5.93824 5.84105
2 1 8.14846 7.29551 7.21897
8 2 6.05085 7.17137 7.41677
7 2 8.9936 7.96031 7.47652
9 2 7.41458 9.43167 9.08288
4 1 6.59272 8.8217 8.69809
10 2 5.56685 8.98202 8.95425
3 1 6.87517 7.77826 7.80045
ITEM: TIMESTEP
1800
ITEM: NUMBER OF ATOMS
10
ITEM: BOX BOUNDS pp pp pp
0.0000000000000000e+00 1.5000000000000000e+01
0.0000000000000000e+00 1.5000000000000000e+01
0.0000000000000000e+00 1.5000000000000000e+01
ITEM: ATOMS id type x y z
6 2 7.53699 5.44161 6.13034
1 1 8.38013 6.07722 6.37044
5 2 9.4432 5.81649 6.15247
2 1 8.16095 7.2229 7.1499
8 2 5.94437 7.3939 7.30787
7 2 9.07544 7.78039 7.53409
9 2 7.45786 9.40719 9.11348
4 1 6.64488 8.86962 8.65118
10 2 5.62623 9.08782 9.03642
3 1 6.8207 7.87902 7.7642
ITEM: TIMESTEP
1900
ITEM: NUMBER OF ATOMS
10
ITEM: BOX BOUNDS pp pp pp
0.0000000000000000e+00 1.5000000000000000e+01
0.0000000000000000e+00 1.5000000000000000e+01
0.0000000000000000e+00 1.5000000000000000e+01
ITEM: ATOMS id type x y z
6 2 7.57097 5.53015 5.7769
1 1 8.37349 6.05563 6.32626
5 2 9.3718 5.74524 6.17213
2 1 8.1003 7.0861 7.29883
8 2 5.8944 7.47963 7.53169
7 2 9.03913 7.33065 7.71708
9 2 7.45211 9.67645 8.95491
4 1 6.67124 9.01143 8.53436
10 2 5.70268 9.39676 8.73075
3 1 6.87046 7.85703 7.84147
ITEM: TIMESTEP
2000
ITEM: NUMBER OF ATOMS
10
ITEM: BOX BOUNDS pp pp pp
0.0000000000000000e+00 1.5000000000000000e+01
0.0000000000000000e+00 1.5000000000000000e+01
0.0000000000000000e+00 1.5000000000000000e+01
ITEM: ATOMS id type x y z
6 2 7.46545 5.33051 5.92348
1 1 8.24183 5.94765 6.44915
5 2 9.28758 5.43213 6.37681
2 1 8.12113 7.08785 7.28146
8 2 6.04317 7.61336 7.18576
7 2 9.11325 7.4569 7.71137
9 2 7.39008 9.58573 9.21174
4 1 6.73051 9.04923 8.54276
10 2 5.68172 9.43368 8.54215
3 1 6.93031 7.97655 7.71626
ITEM: TIMESTEP
2100
ITEM: NUMBER OF ATOMS
10
ITEM: BOX BOUNDS pp pp pp
0.0000000000000000e+00 1.5000000000000000e+01
0.0000000000000000e+00 1.5000000000000000e+01
0.0000000000000000e+00 1.5000000000000000e+01
ITEM: ATOMS id type x y z
6 2 7.33798 5.46919 6.15562
1 1 8.24151 5.85827 6.56815
5 2 9.19284 5.48499 6.74685
2 1 8.02276 7.05919 7.29888
7 2 8.97867 7.42119 7.79238
8 2 6.01688 7.78319 7.01232
9 2 7.70059 9.25395 9.08945
4 1 6.81748 9.07049 8.4824
10 2 5.93073 9.66745 8.54924
3 1 6.91263 8.03539 7.57443
ITEM: TIMESTEP
2200
ITEM: NUMBER OF ATOMS
10
ITEM: BOX BOUNDS pp pp pp
0.0000000000000000e+00 1.5000000000000000e+01
0.0000000000000000e+00 1.5000000000000000e+01
0.0000000000000000e+00 1.5000000000000000e+01
ITEM: ATOMS id type x y z
6 2 7.25917 5.69311 5.93508
1 1 8.1379 5.86165 6.55752
5 2 8.97157 5.15536 6.42221
2 1 8.08204 6.95814 7.52552
7 2 8.89872 7.08292 8.17999
8 2 6.07555 7.6671 7.0528
9 2 7.73128 9.64623 8.87074
4 1 6.86025 9.2335 8.31433
10 2 5.88519 9.73973 8.19141
3 1 6.97024 7.98596 7.64209
ITEM: TIMESTEP
2300
ITEM: NUMBER OF ATOMS
10
ITEM: BOX BOUNDS pp pp pp
0.0000000000000000e+00 1.5000000000000000e+01
0.0000000000000000e+00 1.5000000000000000e+01
0.0000000000000000e+00 1.5000000000000000e+01
ITEM: ATOMS id type x y z
6 2 7.34653 5.34467 6.00373
1 1 8.12091 5.74577 6.70162
5 2 9.00475 5.09536 6.89058
2 1 8.00588 6.93441 7.36053
7 2 8.81834 7.07657 8.11538
8 2 6.10262 8.02057 6.87558
9 2 7.68051 9.59867 8.99817
4 1 6.93006 9.2349 8.33137
10 2 6.07545 9.90866 8.41503
3 1 6.95912 8.11417 7.53824
ITEM: TIMESTEP
2400
ITEM: NUMBER OF ATOMS
10
ITEM: BOX BOUNDS pp pp pp
0.0000000000000000e+00 1.5000000000000000e+01
0.0000000000000000e+00 1.5000000000000000e+01
0.0000000000000000e+00 1.5000000000000000e+01
ITEM: ATOMS id type x y z
6 2 7.21779 5.31922 6.1193
1 1 8.03508 5.69224 6.72084
5 2 8.89043 5.07622 6.80194
2 1 8.02103 6.90358 7.43442
7 2 8.94241 7.01118 8.06246
8 2 6.23941 8.13283 6.80326
9 2 7.63092 9.58057 9.11608
4 1 6.92644 9.30417 8.3006
10 2 6.12658 9.91644 7.92409
3 1 7.0302 8.13061 7.55445
ITEM: TIMESTEP
2500
ITEM: NUMBER OF ATOMS
10
ITEM: BOX BOUNDS pp pp pp
0.0000000000000000e+00 1.5000000000000000e+01
0.0000000000000000e+00 1.5000000000000000e+01
0.0000000000000000e+00 1.5000000000000000e+01
ITEM: ATOMS id type x y z
6 2 7.32302 5.55158 5.90641
1 1 8.00645 5.74612 6.74142
5 2 8.71874 4.92487 7.06386
2 1 7.93622 6.89603 7.53539
7 2 8.6469 6.99966 8.30654
8 2 6.14639 7.84601 6.9001
9 2 7.80752 9.73381 8.84794
4 1 7.04749 9.30503 8.18769
10 2 6.25458 10.0665 7.97197
3 1 7.04765 8.06909 7.51753
ITEM: TIMESTEP
2600
ITEM: NUMBER OF ATOMS
10
ITEM: BOX BOUNDS pp pp pp
0.0000000000000000e+00 1.5000000000000000e+01
0.0000000000000000e+00 1.5000000000000000e+01
0.0000000000000000e+00 1.5000000000000000e+01
ITEM: ATOMS id type x y z
6 2 7.18384 5.48389 6.09169
1 1 7.95024 5.65151 6.87605
5 2 8.60646 4.90345 7.25618
2 1 7.90024 6.92307 7.54649
7 2 8.66126 7.06632 8.36629
8 2 6.19599 8.01074 6.69178
9 2 7.93635 9.27895 8.82204
4 1 7.11487 9.35355 8.15348
10 2 6.50828 10.1555 7.90692
3 1 7.03995 8.12541 7.38299
ITEM: TIMESTEP
2700
ITEM: NUMBER OF ATOMS
10
ITEM: BOX BOUNDS pp pp pp
0.0000000000000000e+00 1.5000000000000000e+01
0.0000000000000000e+00 1.5000000000000000e+01
0.0000000000000000e+00 1.5000000000000000e+01
ITEM: ATOMS id type x y z
6 2 6.91155 5.46514 6.37508
1 1 7.77414 5.60408 6.96792
5 2 8.45012 4.75333 7.11887
7 2 8.8064 6.85593 8.35765
2 1 7.96199 6.81056 7.59797
8 2 6.61026 8.09007 6.42478
3 1 7.18556 8.19769 7.39343
9 2 7.6698 9.60365 9.0128
4 1 7.11571 9.42401 8.04682
10 2 6.4515 10.2338 7.56295
ITEM: TIMESTEP
2800
ITEM: NUMBER OF ATOMS
10
ITEM: BOX BOUNDS pp pp pp
0.0000000000000000e+00 1.5000000000000000e+01
0.0000000000000000e+00 1.5000000000000000e+01
0.0000000000000000e+00 1.5000000000000000e+01
ITEM: ATOMS id type x y z
6 2 7.34353 5.11003 6.10906
1 1 7.80031 5.55043 7.01822
5 2 8.32422 4.77009 7.54045
7 2 8.23684 6.7615 8.533
2 1 7.77812 6.79558 7.59997
8 2 6.4544 8.26787 6.54991
3 1 7.14388 8.21336 7.37372
9 2 8.01821 9.80579 8.71995
4 1 7.29296 9.47357 7.95144
10 2 6.65516 10.307 7.77652
ITEM: TIMESTEP
2900
ITEM: NUMBER OF ATOMS
10
ITEM: BOX BOUNDS pp pp pp
0.0000000000000000e+00 1.5000000000000000e+01
0.0000000000000000e+00 1.5000000000000000e+01
0.0000000000000000e+00 1.5000000000000000e+01
ITEM: ATOMS id type x y z
6 2 7.10662 5.34439 6.15858
1 1 7.70608 5.56722 7.05053
5 2 8.2671 4.69547 7.51276
7 2 8.35599 6.66598 8.65943
2 1 7.7452 6.77195 7.71838
8 2 6.67177 8.20655 6.41037
3 1 7.20658 8.19589 7.37042
9 2 7.86574 9.76131 8.79094
4 1 7.34618 9.51493 7.8807
10 2 6.83246 10.2463 7.2368
ITEM: TIMESTEP
3000
ITEM: NUMBER OF ATOMS
10
ITEM: BOX BOUNDS pp pp pp
0.0000000000000000e+00 1.5000000000000000e+01
0.0000000000000000e+00 1.5000000000000000e+01
0.0000000000000000e+00 1.5000000000000000e+01
ITEM: ATOMS id type x y z
6 2 6.94813 5.38444 6.33662
1 1 7.59814 5.52894 7.17617
5 2 7.89384 4.75914 7.81754
7 2 8.40992 6.97882 8.56474
2 1 7.75793 6.83488 7.67283
8 2 6.94284 8.12714 6.17949
3 1 7.34387 8.1972 7.22445
9 2 7.69213 9.47794 8.94693
4 1 7.3416 9.45761 7.86862
10 2 6.98794 10.3807 7.3912
ITEM: TIMESTEP
3100
ITEM: NUMBER OF ATOMS
10
ITEM: BOX BOUNDS pp pp pp
0.0000000000000000e+00 1.5000000000000000e+01
0.0000000000000000e+00 1.5000000000000000e+01
0.0000000000000000e+00 1.5000000000000000e+01
ITEM: ATOMS id type x y z
6 2 7.26651 5.47951 6.12418
1 1 7.60317 5.55727 7.19429
7 2 7.97236 6.86862 8.84877
2 1 7.64646 6.82184 7.83966
5 2 7.65645 4.615 7.78351
8 2 6.78158 8.08502 6.29365
3 1 7.29784 8.16915 7.22972
10 2 7.19897 10.3011 7.11077
9 2 7.9872 9.59316 8.68627
4 1 7.49602 9.498 7.74331
ITEM: TIMESTEP
3200
ITEM: NUMBER OF ATOMS
10
ITEM: BOX BOUNDS pp pp pp
0.0000000000000000e+00 1.5000000000000000e+01
0.0000000000000000e+00 1.5000000000000000e+01
0.0000000000000000e+00 1.5000000000000000e+01
ITEM: ATOMS id type x y z
6 2 7.1516 5.3105 6.27352
1 1 7.48098 5.48746 7.34357
7 2 7.77599 6.75244 8.89461
2 1 7.55429 6.77458 7.79554
5 2 7.75433 4.60964 7.97837
8 2 7.02062 8.2449 6.13664
3 1 7.35593 8.22913 7.21086
10 2 7.48902 10.3731 6.91972
9 2 7.9667 9.80287 8.65225
4 1 7.60309 9.52991 7.65568
ITEM: TIMESTEP
3300
ITEM: NUMBER OF ATOMS
10
ITEM: BOX BOUNDS pp pp pp
0.0000000000000000e+00 1.5000000000000000e+01
0.0000000000000000e+00 1.5000000000000000e+01
0.0000000000000000e+00 1.5000000000000000e+01
ITEM: ATOMS id type x y z
6 2 6.91433 4.98448 6.59185
1 1 7.27181 5.46687 7.43789
7 2 7.83127 6.93353 8.8373
2 1 7.61704 6.76258 7.76154
5 2 7.42538 4.74525 8.1784
8 2 7.38452 8.21723 6.04997
3 1 7.55139 8.26564 7.1308
10 2 7.3681 10.3321 6.92134
9 2 7.88077 9.8847 8.63719
4 1 7.61303 9.52536 7.61526
ITEM: TIMESTEP
3400
ITEM: NUMBER OF ATOMS
10
ITEM: BOX BOUNDS pp pp pp
0.0000000000000000e+00 1.5000000000000000e+01
0.0000000000000000e+00 1.5000000000000000e+01
0.0000000000000000e+00 1.5000000000000000e+01
ITEM: ATOMS id type x y z
6 2 7.00101 5.43135 6.3668
1 1 7.2718 5.53098 7.45624
7 2 7.65574 6.88215 8.98229
2 1 7.47927 6.83543 7.92529
5 2 7.48229 4.60694 8.13148
8 2 7.22757 8.02106 6.13306
3 1 7.5014 8.14215 7.174
10 2 7.72374 10.2228 6.60881
9 2 8.07372 9.90275 8.42492
4 1 7.74084 9.51694 7.48474
ITEM: TIMESTEP
3500
ITEM: NUMBER OF ATOMS
10
ITEM: BOX BOUNDS pp pp pp
0.0000000000000000e+00 1.5000000000000000e+01
0.0000000000000000e+00 1.5000000000000000e+01
0.0000000000000000e+00 1.5000000000000000e+01
ITEM: ATOMS id type x y z
6 2 7.12456 5.17056 6.53554
1 1 7.24457 5.52235 7.57349
7 2 7.54941 7.19875 8.91288
2 1 7.43108 6.89374 7.86902
5 2 7.17417 4.85208 8.39467
8 2 7.11873 8.06405 5.99836
3 1 7.52249 8.15569 7.03351
10 2 7.86852 10.2571 6.82698
4 1 7.82271 9.46325 7.47267
9 2 8.16351 9.46725 8.52845
ITEM: TIMESTEP
3600
ITEM: NUMBER OF ATOMS
10
ITEM: BOX BOUNDS pp pp pp
0.0000000000000000e+00 1.5000000000000000e+01
0.0000000000000000e+00 1.5000000000000000e+01
0.0000000000000000e+00 1.5000000000000000e+01
ITEM: ATOMS id type x y z
6 2 6.80556 5.38951 6.57759
1 1 7.08446 5.53995 7.59391
7 2 7.74537 6.9928 9.02636
2 1 7.49148 6.82669 7.93787
5 2 6.90383 4.75484 8.35026
8 2 7.54964 7.81526 6.04852
3 1 7.6502 8.13402 7.10365
10 2 7.98385 10.2326 6.4591
4 1 7.81569 9.51104 7.37366
9 2 7.88471 9.9647 8.37261
ITEM: TIMESTEP
3700
ITEM: NUMBER OF ATOMS
10
ITEM: BOX BOUNDS pp pp pp
0.0000000000000000e+00 1.5000000000000000e+01
0.0000000000000000e+00 1.5000000000000000e+01
0.0000000000000000e+00 1.5000000000000000e+01
ITEM: ATOMS id type x y z
6 2 6.83554 4.95609 6.71745
1 1 7.05848 5.54353 7.68868
7 2 7.38094 7.0362 8.97097
2 1 7.35369 6.86715 7.92214
5 2 6.97848 4.91927 8.57164
8 2 7.67866 8.07759 6.00864
3 1 7.58292 8.16079 7.04769
10 2 8.22217 10.0819 6.5076
4 1 7.99209 9.46608 7.30695
9 2 8.10512 9.92363 8.31991
ITEM: TIMESTEP
3800
ITEM: NUMBER OF ATOMS
10
ITEM: BOX BOUNDS pp pp pp
0.0000000000000000e+00 1.5000000000000000e+01
0.0000000000000000e+00 1.5000000000000000e+01
0.0000000000000000e+00 1.5000000000000000e+01
ITEM: ATOMS id type x y z
6 2 7.08597 4.97297 6.94484
1 1 6.99514 5.5727 7.79607
7 2 6.9959 7.28713 8.92419
2 1 7.227 6.9203 7.92242
5 2 6.61663 4.9663 8.65485
8 2 7.58952 7.7558 5.9329
3 1 7.65269 8.13941 7.00395
10 2 8.16922 10.0954 6.36667
4 1 8.15932 9.41888 7.26138
9 2 8.46183 9.83471 8.16269
ITEM: TIMESTEP
3900
ITEM: NUMBER OF ATOMS
10
ITEM: BOX BOUNDS pp pp pp
0.0000000000000000e+00 1.5000000000000000e+01
0.0000000000000000e+00 1.5000000000000000e+01
0.0000000000000000e+00 1.5000000000000000e+01
ITEM: ATOMS id type x y z
6 2 6.71684 5.36656 6.75412
7 2 7.3502 7.387 9.10512
2 1 7.21643 7.00171 8.02585
5 2 6.53682 5.05801 8.65743
1 1 6.8177 5.64854 7.82284
8 2 8.1186 7.49309 6.10073
3 1 7.80789 7.99091 7.0395
10 2 8.56763 9.89859 6.22951
4 1 8.14888 9.37631 7.09991
9 2 7.88856 9.91192 8.1135
ITEM: TIMESTEP
4000
ITEM: NUMBER OF ATOMS
10
ITEM: BOX BOUNDS pp pp pp
0.0000000000000000e+00 1.5000000000000000e+01
0.0000000000000000e+00 1.5000000000000000e+01
0.0000000000000000e+00 1.5000000000000000e+01
ITEM: ATOMS id type x y z
6 2 6.87092 5.11684 7.01915
7 2 7.04494 7.51416 8.91384
2 1 7.17435 7.05897 7.97197
5 2 6.20005 5.29373 8.74802
1 1 6.78271 5.71559 7.92194
8 2 8.04202 7.50385 6.02932
3 1 7.87529 7.95306 6.97048
10 2 8.64957 9.85481 6.28843
4 1 8.21581 9.30637 7.10989
9 2 8.02755 9.7327 8.04456
ITEM: TIMESTEP
4100
ITEM: NUMBER OF ATOMS
10
ITEM: BOX BOUNDS pp pp pp
0.0000000000000000e+00 1.5000000000000000e+01
0.0000000000000000e+00 1.5000000000000000e+01
0.0000000000000000e+00 1.5000000000000000e+01
ITEM: ATOMS id type x y z
6 2 7.05176 4.97918 7.15277
7 2 6.68679 7.57436 8.87563
2 1 7.0593 7.05316 7.98071
5 2 6.1169 5.27524 8.78216
1 1 6.74816 5.68308 7.96353
8 2 7.97858 7.41884 6.05922
3 1 7.81671 7.99939 7.03588
10 2 8.94229 9.59657 6.14201
4 1 8.36878 9.31256 7.02478
9 2 8.38999 10.0866 7.84779
ITEM: TIMESTEP
4200
ITEM: NUMBER OF ATOMS
10
ITEM: BOX BOUNDS pp pp pp
0.0000000000000000e+00 1.5000000000000000e+01
0.0000000000000000e+00 1.5000000000000000e+01
0.0000000000000000e+00 1.5000000000000000e+01
ITEM: ATOMS id type x y z
6 2 6.61623 4.98007 7.31522
7 2 6.80322 7.60507 8.9095
2 1 7.13982 7.02439 7.97407
5 2 6.06261 5.55506 8.90658
1 1 6.58744 5.77379 8.01522
8 2 8.47374 7.44624 6.17188
3 1 7.97285 7.9595 6.98134
10 2 9.02585 9.58667 6.19702
4 1 8.32592 9.25454 6.97682
9 2 7.98618 9.97357 7.70409
ITEM: TIMESTEP
4300
ITEM: NUMBER OF ATOMS
10
ITEM: BOX BOUNDS pp pp pp
0.0000000000000000e+00 1.5000000000000000e+01
0.0000000000000000e+00 1.5000000000000000e+01
0.0000000000000000e+00 1.5000000000000000e+01
ITEM: ATOMS id type x y z
6 2 6.90184 5.14954 7.22919
8 2 8.32605 7.14317 6.32051
1 1 6.54639 5.82495 8.04358
2 1 7.07513 7.14745 8.04495
5 2 5.84247 5.40898 8.86309
4 1 8.42016 9.2193 6.8852
3 1 7.98208 7.85211 7.05291
10 2 9.06586 9.45116 5.98336
9 2 8.22908 10.0337 7.55806
7 2 6.61609 7.7706 8.77495
ITEM: TIMESTEP
4400
ITEM: NUMBER OF ATOMS
10
ITEM: BOX BOUNDS pp pp pp
0.0000000000000000e+00 1.5000000000000000e+01
0.0000000000000000e+00 1.5000000000000000e+01
0.0000000000000000e+00 1.5000000000000000e+01
ITEM: ATOMS id type x y z
6 2 7.01051 5.09028 7.56279
8 2 8.25429 7.09586 6.09638
1 1 6.55823 5.8938 8.18625
2 1 6.91443 7.23901 7.94033
5 2 5.93023 5.64283 9.00015
4 1 8.53751 9.08309 6.88226
3 1 7.96257 7.81889 6.96023
10 2 9.28917 9.31608 6.19632
9 2 8.27751 9.7799 7.73694
7 2 6.52584 8.08632 8.48198
ITEM: TIMESTEP
4500
ITEM: NUMBER OF ATOMS
10
ITEM: BOX BOUNDS pp pp pp
0.0000000000000000e+00 1.5000000000000000e+01
0.0000000000000000e+00 1.5000000000000000e+01
0.0000000000000000e+00 1.5000000000000000e+01
ITEM: ATOMS id type x y z
6 2 6.69152 5.16057 7.59118
8 2 8.48998 7.00831 6.37056
1 1 6.38528 5.97893 8.21713
2 1 7.02256 7.2177 7.96411
5 2 5.53617 5.91217 8.9192
4 1 8.53082 9.07072 6.76234
3 1 8.1107 7.74553 7.06478
10 2 9.33858 9.1754 5.93086
9 2 8.18929 9.89816 7.32295
7 2 6.58232 7.98812 8.70414
ITEM: TIMESTEP
4600
ITEM: NUMBER OF ATOMS
10
ITEM: BOX BOUNDS pp pp pp
0.0000000000000000e+00 1.5000000000000000e+01
0.0000000000000000e+00 1.5000000000000000e+01
0.0000000000000000e+00 1.5000000000000000e+01
ITEM: ATOMS id type x y z
6 2 6.56795 5.02091 7.70978
8 2 8.55376 6.97781 6.57189
1 1 6.37223 6.01165 8.22588
2 1 6.93162 7.26217 8.00913
5 2 5.5881 5.91881 8.973
4 1 8.6372 8.98111 6.70019
3 1 8.05192 7.78505 7.06276
10 2 9.45686 8.92513 6.04756
9 2 8.41131 10.0653 6.98243
7 2 6.58818 8.07215 8.61657
ITEM: TIMESTEP
4700
ITEM: NUMBER OF ATOMS
10
ITEM: BOX BOUNDS pp pp pp
0.0000000000000000e+00 1.5000000000000000e+01
0.0000000000000000e+00 1.5000000000000000e+01
0.0000000000000000e+00 1.5000000000000000e+01
ITEM: ATOMS id type x y z
6 2 6.69205 5.13051 8.12768
8 2 8.57749 6.84523 6.39756
1 1 6.32527 6.0904 8.36685
2 1 6.93049 7.26242 7.89818
5 2 5.46045 6.19071 9.02903
4 1 8.69534 8.9434 6.76496
3 1 8.06472 7.72788 6.93661
10 2 9.52634 8.98823 6.01844
9 2 8.40838 9.80343 7.25556
7 2 6.36437 8.11735 8.2611
ITEM: TIMESTEP
4800
ITEM: NUMBER OF ATOMS
10
ITEM: BOX BOUNDS pp pp pp
0.0000000000000000e+00 1.5000000000000000e+01
0.0000000000000000e+00 1.5000000000000000e+01
0.0000000000000000e+00 1.5000000000000000e+01
ITEM: ATOMS id type x y z
6 2 6.76586 5.24244 7.8543
8 2 8.62512 6.73721 6.85367
1 1 6.28808 6.1414 8.30223
2 1 6.89384 7.3952 7.98849
5 2 5.37719 6.0399 8.90569
4 1 8.73774 8.84231 6.61898
3 1 8.10378 7.66035 7.09832
10 2 9.55611 8.73757 5.94495
9 2 8.28623 9.86865 6.87884
7 2 6.37292 8.35869 8.40346
ITEM: TIMESTEP
4900
ITEM: NUMBER OF ATOMS
10
ITEM: BOX BOUNDS pp pp pp
0.0000000000000000e+00 1.5000000000000000e+01
0.0000000000000000e+00 1.5000000000000000e+01
0.0000000000000000e+00 1.5000000000000000e+01
ITEM: ATOMS id type x y z
8 2 8.73249 6.68054 6.98295
1 1 6.21972 6.25539 8.38176
2 1 6.8912 7.39649 7.85827
5 2 5.35327 6.39918 8.96753
6 2 6.48946 5.24764 8.09576
4 1 8.71562 8.76228 6.59612
3 1 8.18906 7.59439 7.13721
10 2 9.72299 8.86235 6.13042
9 2 8.1585 9.65378 6.67373
7 2 6.57374 8.32521 8.19844
ITEM: TIMESTEP
5000
ITEM: NUMBER OF ATOMS
10
ITEM: BOX BOUNDS pp pp pp
0.0000000000000000e+00 1.5000000000000000e+01
0.0000000000000000e+00 1.5000000000000000e+01
0.0000000000000000e+00 1.5000000000000000e+01
ITEM: ATOMS id type x y z
8 2 8.59933 6.61617 6.77949
1 1 6.20171 6.3326 8.51467
2 1 6.77904 7.39563 7.78341
5 2 5.1066 6.51121 8.80602
6 2 6.75529 5.40097 8.72371
4 1 8.89509 8.69492 6.56922
3 1 8.16067 7.62979 7.13788
10 2 9.76272 8.36681 6.04859
9 2 8.62771 9.77862 6.75755
7 2 6.05327 8.22861 7.74256
ITEM: TIMESTEP
5100
ITEM: NUMBER OF ATOMS
10
ITEM: BOX BOUNDS pp pp pp
0.0000000000000000e+00 1.5000000000000000e+01
0.0000000000000000e+00 1.5000000000000000e+01
0.0000000000000000e+00 1.5000000000000000e+01
ITEM: ATOMS id type x y z
8 2 8.77548 6.70449 7.26786
1 1 6.11662 6.41546 8.47928
2 1 6.81149 7.42573 7.8504
5 2 5.17898 6.62438 8.92922
6 2 6.41385 5.37467 8.66928
4 1 8.8785 8.58008 6.5026
3 1 8.19463 7.59611 7.14489
10 2 9.91958 8.42305 6.19351
9 2 8.5878 9.57322 6.22467
7 2 6.24085 8.41594 7.7414
ITEM: TIMESTEP
5200
ITEM: NUMBER OF ATOMS
10
ITEM: BOX BOUNDS pp pp pp
0.0000000000000000e+00 1.5000000000000000e+01
0.0000000000000000e+00 1.5000000000000000e+01
0.0000000000000000e+00 1.5000000000000000e+01
ITEM: ATOMS id type x y z
8 2 8.89205 6.68079 7.50024
1 1 6.04367 6.48989 8.4677
2 1 6.85522 7.50354 7.87455
5 2 5.01532 6.73439 8.84325
6 2 6.46811 5.50723 8.6091
4 1 8.88469 8.5123 6.43598
3 1 8.24582 7.51595 7.21806
10 2 9.95059 8.35147 6.10281
9 2 8.34188 9.42572 6.13915
7 2 6.27967 8.39034 7.71669
ITEM: TIMESTEP
5300
ITEM: NUMBER OF ATOMS
10
ITEM: BOX BOUNDS pp pp pp
0.0000000000000000e+00 1.5000000000000000e+01
0.0000000000000000e+00 1.5000000000000000e+01
0.0000000000000000e+00 1.5000000000000000e+01
ITEM: ATOMS id type x y z
8 2 8.65384 6.48641 7.30846
1 1 6.10968 6.59869 8.57668
2 1 6.73062 7.5205 7.73361
5 2 5.09142 6.66722 8.86601
6 2 6.7718 5.78176 8.9768
4 1 8.9685 8.42948 6.49797
3 1 8.17238 7.50731 7.16428
10 2 9.9302 8.13407 6.24704
9 2 8.59846 9.44653 6.33101
7 2 6.19124 8.3682 7.32443
ITEM: TIMESTEP
5400
ITEM: NUMBER OF ATOMS
10
ITEM: BOX BOUNDS pp pp pp
0.0000000000000000e+00 1.5000000000000000e+01
0.0000000000000000e+00 1.5000000000000000e+01
0.0000000000000000e+00 1.5000000000000000e+01
ITEM: ATOMS id type x y z
8 2 8.76482 6.5585 7.53171
1 1 5.99856 6.6979 8.60822
2 1 6.82947 7.4469 7.72707
5 2 4.96386 7.06118 8.79242
6 2 6.30164 5.75619 9.03123
4 1 8.94047 8.37132 6.38333
3 1 8.25458 7.46407 7.26211
10 2 10.0803 8.2325 6.18126
9 2 8.48527 9.25901 5.99626
7 2 6.38961 8.47156 7.47178
ITEM: TIMESTEP
5500
ITEM: NUMBER OF ATOMS
10
ITEM: BOX BOUNDS pp pp pp
0.0000000000000000e+00 1.5000000000000000e+01
0.0000000000000000e+00 1.5000000000000000e+01
0.0000000000000000e+00 1.5000000000000000e+01
ITEM: ATOMS id type x y z
8 2 8.84556 6.80816 7.74266
1 1 6.01342 6.74107 8.58179
2 1 6.74162 7.60347 7.79777
5 2 4.99341 7.00783 8.74033
6 2 6.3251 5.76738 9.0014
4 1 9.03156 8.15913 6.32827
3 1 8.23362 7.57487 7.28541
10 2 9.96385 7.65081 6.21399
9 2 8.72238 9.04363 5.64926
7 2 6.15242 8.47098 7.58194
ITEM: TIMESTEP
5600
ITEM: NUMBER OF ATOMS
10
ITEM: BOX BOUNDS pp pp pp
0.0000000000000000e+00 1.5000000000000000e+01
0.0000000000000000e+00 1.5000000000000000e+01
0.0000000000000000e+00 1.5000000000000000e+01
ITEM: ATOMS id type x y z
8 2 8.70671 6.54005 7.76148
1 1 5.9694 6.93379 8.68943
2 1 6.76071 7.5159 7.71932
5 2 4.96854 7.3944 8.80939
6 2 6.23788 6.17173 9.40439
4 1 9.06702 8.16083 6.38022
3 1 8.22019 7.38315 7.18028
10 2 10.0926 7.89919 6.10776
9 2 8.76412 9.02669 5.91489
7 2 6.25017 8.22591 7.07561
ITEM: TIMESTEP
5700
ITEM: NUMBER OF ATOMS
10
ITEM: BOX BOUNDS pp pp pp
0.0000000000000000e+00 1.5000000000000000e+01
0.0000000000000000e+00 1.5000000000000000e+01
0.0000000000000000e+00 1.5000000000000000e+01
ITEM: ATOMS id type x y z
3 1 8.22599 7.36971 7.27631
1 1 5.97299 6.9937 8.65933
6 2 6.36884 6.22477 9.34158
5 2 4.93133 7.2864 8.78431
8 2 8.65782 6.59171 7.90821
4 1 9.08294 8.03123 6.34155
9 2 8.57386 8.86726 5.76498
10 2 10.1094 7.6813 6.23381
7 2 6.16649 8.38163 7.07714
2 1 6.7708 7.63652 7.68597
ITEM: TIMESTEP
5800
ITEM: NUMBER OF ATOMS
10
ITEM: BOX BOUNDS pp pp pp
0.0000000000000000e+00 1.5000000000000000e+01
0.0000000000000000e+00 1.5000000000000000e+01
0.0000000000000000e+00 1.5000000000000000e+01
ITEM: ATOMS id type x y z
3 1 8.22926 7.46358 7.35673