10
 Atoms. Timestep: 0
C 8.65436 7.65828 5.89793
C 7.76167 7.90963 6.93869
C 7.28368 7.08234 8.10814
C 6.31897 7.35663 9.07713
H 8.82982 8.50459 5.1255
H 9.11721 6.67433 5.81748
H 7.35747 8.9574 7.01817
H 7.75413 6.12269 8.13785
H 5.82886 8.33629 8.88725
H 6.12443 6.58339 9.77139
10
 Atoms. Timestep: 20
C 8.65834 7.63735 5.84122
C 7.81391 7.96208 6.94149
C 7.29359 7.07063 8.12366
C 6.30395 7.37851 9.10464
H 8.86661 8.39139 5.12456
H 9.00199 6.61342 5.84097
H 7.44191 8.97741 6.85819
H 7.77194 6.10361 8.21482
H 5.69013 8.26434 9.06313
H 5.93275 6.57838 9.72127
10
 Atoms. Timestep: 40
C 8.65236 7.60574 5.8374
C 7.87813 7.95671 6.91384
C 7.26092 7.1641 8.13906
C 6.27152 7.35408 9.10833
H 8.95093 8.25449 5.05794
H 9.05979 6.58625 5.64693
H 7.4556 8.95295 6.90454
H 7.74638 6.12927 8.23837
H 5.66124 8.25224 9.25457
H 5.87252 6.56107 9.79479
10
 Atoms. Timestep: 60
C 8.66669 7.53486 5.85527
C 7.86309 7.92916 6.92909
C 7.23451 7.22039 8.14798
C 6.23485 7.36099 9.07936
H 8.9399 8.34166 5.03154
H 9.0804 6.53817 5.61198
H 7.55173 9.00926 6.953
H 7.65822 6.23619 8.1691
H 5.74709 8.32644 9.30565
H 6.15185 6.49589 9.74751
10
 Atoms. Timestep: 80
C 8.66634 7.51281 5.88424
C 7.83287 7.92781 6.93314
C 7.23627 7.19296 8.07855
C 6.25148 7.40954 9.07829
H 8.86859 8.33975 5.22732
H 9.00306 6.52126 5.74983
H 7.71025 9.00886 6.87137
H 7.61218 6.19192 8.16206
H 5.7373 8.33486 9.31934
H 6.2709 6.56461 9.7138
10
 Atoms. Timestep: 100
C 8.69019 7.53503 5.86917
C 7.83881 7.93133 6.90659
C 7.17464 7.15591 8.04266
C 6.30774 7.44724 9.13008
H 9.02378 8.25455 5.21589
H 8.97219 6.45908 5.79905
H 7.6309 8.99126 6.91563
H 7.61561 6.1002 8.14466
H 5.71782 8.34662 9.25189
H 6.09539 6.65124 9.8709
10
 Atoms. Timestep: 120
C 8.70324 7.54245 5.87092
C 7.82712 7.92521 6.88985
C 7.12972 7.1142 8.08173
C 6.34859 7.46628 9.149
H 9.26787 8.19238 5.08007
H 9.00167 6.46006 5.74854
H 7.47198 8.981 6.99287
H 7.52885 6.10975 8.05587
H 5.82932 8.42701 9.13903
H 5.97229 6.76098 9.9236
10
 Atoms. Timestep: 140
C 8.70096 7.52453 5.9024
C 7.7911 7.901 6.89474
C 7.18492 7.07708 8.06879
C 6.32634 7.50979 9.121
H 9.18831 8.24651 5.20176
H 8.97676 6.52472 5.80788
H 7.484 8.96389 6.90824
H 7.39349 6.02073 8.04362
H 6.04396 8.5856 9.14249
H 6.01757 6.80419 9.86337
10
 Atoms. Timestep: 160
C 8.72116 7.51544 5.88484
C 7.78755 7.84679 6.91417
C 7.18484 7.10716 8.0588
C 6.30958 7.54747 9.09235
H 8.98844 8.3309 5.32587
H 9.05086 6.45972 5.85158
H 7.53526 8.88727 6.86282
H 7.32474 5.97834 8.03698
H 6.20645 8.61405 9.27401
H 5.99946 6.84855 9.83682
10
 Atoms. Timestep: 180
C 8.71983 7.49092 5.8808
C 7.84839 7.80062 6.90354
C 7.09939 7.13087 8.07364
C 6.32595 7.57536 9.11793
H 8.95284 8.34101 5.20406
H 9.28277 6.49846 5.69187
H 7.52291 8.85958 6.89823
H 7.30593 6.06875 8.03345
H 6.20996 8.61795 9.37183
H 5.88825 6.84767 9.83413
10
 Atoms. Timestep: 200
C 8.73353 7.46457 5.87916
C 7.87074 7.80567 6.91631
C 7.0706 7.11857 8.06773
C 6.34579 7.59866 9.16328
H 8.9839 8.24923 5.08155
H 9.30881 6.62128 5.60658
H 7.57733 8.87177 6.82408
H 7.19049 6.04346 8.05561
H 6.11235 8.66313 9.37395
H 5.82717 6.84628 9.78834
10
 Atoms. Timestep: 220
C 8.74139 7.45908 5.87604
C 7.85808 7.82678 6.92035
C 7.10357 7.13012 8.07637
C 6.36157 7.6012 9.13704
H 8.92448 8.23647 5.19806
H 9.17012 6.47804 5.74749
H 7.60302 8.86147 6.80794
H 7.06455 6.00719 8.0082
H 6.09352 8.63938 9.31001
H 5.88066 6.89441 9.7585
10
 Atoms. Timestep: 240
C 8.72225 7.44589 5.90175
C 7.8476 7.83309 6.90841
C 7.14995 7.14311 8.05067
C 6.33242 7.60587 9.12027
H 9.01105 8.22144 5.21354
H 8.98853 6.32846 5.87829
H 7.56223 8.89489 6.90146
H 7.14452 6.06396 7.93596
H 6.19423 8.67465 9.25859
H 5.91008 6.86877 9.81454
10
 Atoms. Timestep: 260
C 8.69896 7.4112 5.90982
C 7.83165 7.88001 6.91565
C 7.1257 7.14321 8.05045
C 6.32097 7.59856 9.10416
H 9.23866 8.03676 5.14838
H 8.93461 6.35867 5.80318
H 7.60706 8.97715 6.94163
H 7.3269 6.0754 7.97317
H 6.24499 8.67886 9.28486
H 5.90813 6.89524 9.85724
10
 Atoms. Timestep: 280
C 8.70334 7.37758 5.87182
C 7.85313 7.9153 6.89877
C 7.09028 7.15623 8.05411
C 6.31321 7.59103 9.13102
H 9.29379 8.01125 5.19151
H 8.87117 6.33706 5.7964
H 7.74889 8.99174 6.91369
H 7.3979 6.07587 8.09435
H 6.1476 8.65428 9.30643
H 5.90489 6.90898 9.85226
10
 Atoms. Timestep: 300
C 8.67881 7.37622 5.88468
C 7.90059 7.87005 6.87631
C 7.1185 7.20464 8.05173
C 6.31464 7.6048 9.13751
H 9.18187 8.06643 5.28174
H 8.79282 6.24528 5.80518
H 7.86502 8.96129 6.91708
H 7.28538 6.13384 8.09736
H 5.96794 8.62465 9.27075
H 5.95578 6.85429 9.81548
10
 Atoms. Timestep: 320
C 8.67783 7.3356 5.87397
C 7.89577 7.84421 6.94816
C 7.14909 7.23929 8.07125
C 6.307 7.64217 9.11232
H 9.13928 8.06753 5.19207
H 8.82309 6.24462 5.66438
H 7.90109 8.95977 6.95701
H 7.22685 6.16404 8.01156
H 5.84461 8.62807 9.2659
H 6.011 6.7883 9.7639
10
 Atoms. Timestep: 340
C 8.66052 7.31417 5.87607
C 7.95207 7.85272 6.94698
C 7.14075 7.22873 8.09322
C 6.28111 7.65787 9.09948
H 9.09435 8.00811 5.10563
H 8.83315 6.3381 5.59638
H 7.87882 8.933 6.99815
H 7.27636 6.10825 8.0663
H 5.90684 8.65931 9.28636
H 5.92782 6.85231 9.74165
10
 Atoms. Timestep: 360
C 8.66593 7.34336 5.84105
C 7.98242 7.84925 6.93754
C 7.13663 7.18518 8.09469
C 6.25503 7.65477 9.1018
H 9.05137 8.05093 5.13127
H 8.76868 6.22497 5.69023
H 7.91163 8.93717 6.95887
H 7.32083 6.12736 8.21498
H 6.07065 8.71584 9.26963
H 5.76077 6.96831 9.77357
10
 Atoms. Timestep: 380
C 8.65175 7.36139 5.85511
C 7.9351 7.82735 6.9635
C 7.15055 7.15923 8.11494
C 6.28615 7.66959 9.05622
H 9.07959 8.02187 5.1585
H 8.73181 6.22544 5.75154
H 7.94273 8.93991 6.96743
H 7.32566 6.09485 8.17278
H 6.19872 8.76343 9.1564
H 5.70413 7.06917 9.74373
10
 Atoms. Timestep: 400
C 8.6587 7.31956 5.87148
C 7.89716 7.82064 6.96501
C 7.17889 7.14388 8.10287
C 6.29103 7.73331 9.088
H 9.17036 8.01699 5.14961
H 8.7836 6.31224 5.65596
H 7.84633 8.90024 7.11331
H 7.25664 6.0069 8.02261
H 6.1896 8.81794 9.02564
H 5.72278 7.06133 9.75777
10
 Atoms. Timestep: 420
C 8.68499 7.3108 5.87043
C 7.91553 7.79289 6.94211
C 7.10601 7.15219 8.10748
C 6.34379 7.73959 9.08535
H 9.19002 8.07939 5.23911
H 8.80951 6.26376 5.61608
H 7.80438 8.86946 7.0754
H 7.12935 6.07599 8.05024
H 6.09569 8.78977 9.06486
H 5.79307 7.16876 9.81104
10
 Atoms. Timestep: 440
C 8.72311 7.33351 5.85989
C 7.92609 7.74571 6.93375
C 7.04084 7.16632 8.05516
C 6.32935 7.75399 9.12371
H 9.18046 8.07948 5.28998
H 8.84339 6.19771 5.63867
H 7.92178 8.85826 6.84971
H 7.05212 6.09015 8.18263
H 6.12954 8.85303 9.18112
H 5.88035 7.14418 9.91186
10
 Atoms. Timestep: 460
C 8.71685 7.27608 5.90979
C 7.89942 7.75234 6.90652
C 7.00777 7.20439 8.04508
C 6.32225 7.78025 9.09736
H 9.18396 8.01957 5.27455
H 8.96876 6.28058 5.63096
H 7.93241 8.83751 6.90024
H 7.08201 6.07091 8.14503
H 6.27762 8.84284 9.31279
H 6.00153 7.09029 9.87293
10
 Atoms. Timestep: 480
C 8.73567 7.20135 5.90643
C 7.84907 7.78967 6.9064
C 7.03905 7.22819 8.04491
C 6.32305 7.79488 9.10123
H 9.23437 8.01586 5.24064
H 8.99998 6.19057 5.71347
H 7.82693 8.86879 7.01486
H 7.06509 6.15541 7.96272
H 6.36376 8.84048 9.3648
H 5.95289 7.06432 9.83871
10
 Atoms. Timestep: 500
C 8.69367 7.24776 5.94036
C 7.89115 7.79258 6.87719
C 7.07053 7.22546 8.02672
C 6.3622 7.76858 9.12605
H 9.26399 7.82963 5.26572
H 8.85526 6.11698 5.93862
H 7.82818 8.91557 6.81579
H 6.94256 6.15502 7.93816
H 6.36021 8.85186 9.33262
H 5.76855 7.14464 9.77619
10
 Atoms. Timestep: 520
C 8.72499 7.21321 5.89592
C 7.91765 7.85608 6.89765
C 7.05005 7.22841 8.05027
C 6.3749 7.7606 9.16504
H 9.30481 7.72169 5.1739
H 8.73029 6.11111 6.05851
H 7.82771 8.91446 6.66588
H 6.86386 6.10394 7.94543
H 6.35724 8.85576 9.29432
H 5.6345 7.16324 9.69767
10
 Atoms. Timestep: 540
C 8.69735 7.15827 5.95644
C 7.94469 7.86019 6.87469
C 7.03753 7.25734 8.05485
C 6.36276 7.78688 9.1335
H 9.25429 7.62487 5.09581
H 8.80181 6.11228 5.93084
H 7.78651 8.93628 6.84165
H 6.9532 6.20369 7.8812
H 6.39533 8.82773 9.35841
H 5.6789 7.13905 9.66417
10
 Atoms. Timestep: 560
C 8.70694 7.12547 5.94491
C 7.92064 7.79988 6.90593
C 7.07875 7.29811 7.99861
C 6.30149 7.83308 9.11682
H 9.15895 7.73471 5.10234
H 8.81396 6.01472 5.91206
H 7.95677 8.93845 6.92823
H 6.97887 6.22415 7.90223
H 6.39153 8.87224 9.48967
H 5.777 7.09655 9.75686
10
 Atoms. Timestep: 580
C 8.68588 7.14154 5.91883
C 7.95832 7.76538 6.919
C 7.0301 7.3157 8.04796
C 6.3179 7.84856 9.05811
H 9.14434 7.76129 5.24742
H 8.74062 6.0337 5.91474
H 8.15949 8.8141 6.82123
H 6.91275 6.17975 8.03833
H 6.30641 8.87038 9.45775
H 5.90712 7.13368 9.74614
10
 Atoms. Timestep: 600
C 8.67448 7.11279 5.88323
C 8.00997 7.76167 6.91822
C 7.01799 7.27188 8.04952
C 6.3007 7.89691 9.13371
H 9.33227 7.74589 5.23837
H 8.70542 6.04512 5.71157
H 8.11584 8.83959 6.89354
H 6.89499 6.20526 8.12091
H 6.22881 8.98292 9.2428
H 5.82776 7.1417 9.77374
10
 Atoms. Timestep: 620
C 8.65159 7.10668 5.90914
C 7.97819 7.74259 6.94575
C 7.03552 7.2671 8.07719
C 6.36292 7.89552 9.07209
H 9.42916 7.64805 5.27607
H 8.59222 6.08764 5.56638
H 8.07136 8.86314 7.0675
H 6.98393 6.19478 8.06722
H 6.17766 8.95548 9.10351
H 5.70031 7.39956 9.78334
10
 Atoms. Timestep: 640
C 8.6823 7.1118 5.88713
C 7.93126 7.72979 6.97229
C 7.08845 7.22457 8.07402
C 6.32049 7.94668 9.05911
H 9.37377 7.72206 5.35355
H 8.37418 6.0599 5.63795
H 8.22683 8.77025 7.08822
H 7.03945 6.07327 8.0645
H 6.32282 9.06788 8.99308
H 5.65198 7.44962 9.7964
10
 Atoms. Timestep: 660
C 8.63277 7.12111 5.90992
C 8.0078 7.71308 6.94878
C 7.05388 7.20447 8.11343
C 6.29257 7.97034 9.00544
H 9.26897 7.71771 5.349
H 8.4156 6.08232 5.64691
H 8.31102 8.73121 7.10537
H 6.98987 6.13211 8.20596
H 6.48477 9.0314 8.98091
H 5.73161 7.47125 9.73541
10
 Atoms. Timestep: 680
C 8.64448 7.06559 5.82712
C 8.05272 7.68331 7.02897
C 7.02046 7.25138 8.1087
C 6.27539 7.98688 9.01838
H 9.31279 7.7204 5.13188
H 8.56587 6.02273 5.55914
H 8.28499 8.7854 7.15026
H 6.90759 6.19432 8.25076
H 6.42275 9.06472 9.09163
H 5.67178 7.5094 9.80635
10
 Atoms. Timestep: 700
C 8.61759 7.078 5.89548
C 8.08024 7.62035 7.00126
C 7.03109 7.29579 8.08253
C 6.32536 8.01649 9.02728
H 9.19718 7.64004 5.16645
H 8.60667 6.0416 5.58383
H 8.27694 8.68497 7.10001
H 6.82804 6.16704 8.10051
H 6.25813 9.11481 9.16824
H 5.63133 7.50769 9.73062
10
 Atoms. Timestep: 720
C 8.66463 7.00843 5.88709
C 8.0278 7.6653 6.9968
C 7.04471 7.29777 8.07198
C 6.33791 8.04614 9.07467
H 9.1702 7.73083 5.30434
H 8.47857 5.90395 5.68904
H 8.35408 8.68808 7.00215
H 6.74292 6.26011 7.98835
H 6.2891 9.13789 9.13569
H 5.63878 7.39331 9.58619
10
 Atoms. Timestep: 740
C 8.64049 6.96343 5.96452
C 8.00643 7.71528 6.95169
C 7.03126 7.33663 8.06208
C 6.3609 7.99916 9.04033
H 9.29872 7.56443 5.32264
H 8.45178 5.94794 5.69734
H 8.32603 8.79201 6.98188
H 6.70859 6.32239 8.0269
H 6.47291 9.0488 9.16808
H 5.63147 7.45747 9.58039
10
 Atoms. Timestep: 760
C 8.66932 6.96165 5.94809
C 8.01159 7.73278 6.92009
C 7.00469 7.34359 8.0045
C 6.31292 8.0282 9.09336
H 9.51675 7.27216 5.25966
H 8.41521 5.92714 5.78629
H 8.23862 8.80446 6.96704
H 6.78148 6.21738 7.97704
H 6.63993 9.07717 9.3411
H 5.54084 7.52437 9.76163
10
 Atoms. Timestep: 780
C 8.66999 6.95619 5.95936
C 8.0207 7.74138 6.90654
C 6.92471 7.34488 8.023
C 6.37106 8.03028 9.03952
H 9.50325 7.23423 5.37355
H 8.34555 5.88067 6.00418
H 8.26088 8.79261 6.92903
H 6.7762 6.2812 7.85834
H 6.63779 9.0132 9.42567
H 5.68158 7.58176 9.72773
10
 Atoms. Timestep: 800
C 8.6613 6.89764 5.98439
C 8.00529 7.74201 6.91952
C 6.96313 7.35809 7.9425
C 6.3689 8.0624 9.10574
H 9.45434 7.3377 5.4003
H 8.42606 5.82091 6.03794
H 8.33292 8.81452 6.93566
H 6.52114 6.36491 7.85893
H 6.68636 9.08754 9.26398
H 5.71149 7.43357 9.67935
10
 Atoms. Timestep: 820
C 8.6585 6.8737 6.02644
C 7.99937 7.68535 6.92609
C 6.94843 7.43514 7.97177
C 6.40804 8.0515 9.07334
H 9.37872 7.34124 5.32817
H 8.57978 5.82644 5.89624
H 8.34328 8.72147 6.94084
H 6.42187 6.46918 7.78947
H 6.62212 9.10461 9.26649
H 5.69218 7.48294 9.68192
10
 Atoms. Timestep: 840
C 8.71715 6.84942 5.96525
C 8.02677 7.63164 6.94051
C 6.8935 7.43014 7.99716
C 6.38687 8.11925 9.09982
H 9.3773 7.40415 5.25786
H 8.59016 5.74531 5.79427
H 8.33336 8.66527 6.88346
H 6.49404 6.45123 7.761
H 6.60304 9.13182 9.47547
H 5.58033 7.63948 9.70045
10
 Atoms. Timestep: 860
C 8.67201 6.87771 5.99784
C 8.06963 7.5972 6.93437
C 6.90566 7.38798 7.99386
C 6.38191 8.15536 9.05238
H 9.33345 7.37713 5.36737
H 8.55928 5.82089 5.76011
H 8.33125 8.66966 6.87526
H 6.41834 6.41097 7.94669
H 6.75056 9.07459 9.48555
H 5.55584 7.75725 9.58337
10
 Atoms. Timestep: 880
C 8.67052 6.84222 5.95272
C 7.99889 7.63467 7.01609
C 6.95465 7.36594 8.02643
C 6.3847 8.16958 8.99706
H 9.44999 7.40605 5.37606
H 8.4412 5.78856 5.80797
H 8.37544 8.67444 7.00234
H 6.37655 6.41361 7.96471
H 6.94537 9.0852 9.28238
H 5.48291 7.77765 9.50168
10
 Atoms. Timestep: 900
C 8.63162 6.86775 5.9879
C 8.02867 7.60703 6.98215
C 6.94728 7.33309 8.03935
C 6.40135 8.19451 8.99421
H 9.47515 7.28644 5.39685
H 8.36149 5.83996 5.81731
H 8.38882 8.61055 7.18878
H 6.48852 6.37478 7.7883
H 6.8575 9.17295 9.12018
H 5.49901 7.92107 9.55594
10
 Atoms. Timestep: 920
C 8.6538 6.8424 5.95299
C 8.07943 7.60547 7.0035
C 6.90573 7.33357 8.00215
C 6.38024 8.21506 9.03307
H 9.47926 7.21336 5.40585
H 8.25848 5.83445 5.73747
H 8.53295 8.59838 7.19551
H 6.49939 6.32025 7.86606
H 6.69528 9.25356 9.04667
H 5.54342 8.02103 9.68713
10
 Atoms. Timestep: 940
C 8.63702 6.82035 5.97485
C 8.09986 7.59051 7.03837
C 6.88661 7.41005 8.00456
C 6.37301 8.19722 8.97172
H 9.47807 7.19376 5.41489
H 8.19928 5.87397 5.63052
H 8.66245 8.51937 7.128
H 6.47842 6.38871 8.0792
H 6.67824 9.26113 9.0029
H 5.64858 7.87434 9.69658
10
 Atoms. Timestep: 960
C 8.60975 6.78692 5.98963
C 8.09792 7.54351 7.01134
C 6.95277 7.43115 7.99674
C 6.32131 8.28116 8.96736
H 9.51788 7.22147 5.44708
H 8.15401 5.89442 5.59091
H 8.67276 8.4551 7.2157
H 6.54531 6.41388 8.06859
H 6.66502 9.31711 9.11621
H 5.67847 7.66159 9.6601
10
 Atoms. Timestep: 980
C 8.59346 6.7609 5.97034
C 8.08806 7.55533 7.01485
C 6.98008 7.44628 8.03341
C 6.3449 8.2861 8.92884
H 9.48736 7.13134 5.50495
H 8.13561 5.84902 5.60502
H 8.71065 8.43793 7.26133
H 6.60885 6.42653 7.97846
H 6.51903 9.28254 9.27878
H 5.6235 7.80091 9.5758
10
 Atoms. Timestep: 1000
C 8.58696 6.75772 5.95949
C 8.13191 7.57841 7.01165
C 6.9841 7.44322 8.02452
C 6.33712 8.26913 8.9885
H 9.49147 7.00501 5.47391
H 8.12111 5.79179 5.65526
H 8.75658 8.44874 7.15839
H 6.50445 6.4496 8.0207
H 6.55448 9.33598 9.21857
H 5.45539 7.89798 9.45722
10
 Atoms. Timestep: 1020
C 8.57117 6.75744 6.00084
C 8.16657 7.56971 7.00866
C 6.95633 7.45902 8.02797
C 6.35659 8.25578 8.9999
H 9.49172 6.96956 5.3962
H 8.06655 5.82473 5.78186
H 8.73536 8.5033 7.09599
H 6.44738 6.49566 7.95688
H 6.70726 9.27965 9.06221
H 5.37179 7.8954 9.37169
10
 Atoms. Timestep: 1040
C 8.5926 6.70561 6.014
C 8.13392 7.59222 7.05879
C 6.95309 7.44132 7.99705
C 6.37848 8.27591 8.95639
H 9.42384 7.02043 5.33054
H 8.01 5.80652 5.88017
H 8.67952 8.56445 7.15066
H 6.4557 6.49662 7.77845
H 6.77737 9.26496 9.14138
H 5.429 7.97666 9.45036
10
 Atoms. Timestep: 1060
C 8.61058 6.70364 6.05046
C 8.12914 7.57471 7.03187
C 6.95037 7.429 7.94837
C 6.36197 8.32322 8.95214
H 9.33143 6.99003 5.35608
H 8.08892 5.74359 5.86959
H 8.61894 8.52378 7.20789
H 6.39182 6.49057 7.72601
H 6.84678 9.25572 9.2877
H 5.53379 8.03288 9.54464
10
 Atoms. Timestep: 1080
C 8.63706 6.68187 6.03234
C 8.11508 7.54865 7.01079
C 6.87023 7.49834 7.97834
C 6.37847 8.32035 8.95524
H 9.44978 7.00115 5.39016
H 8.21159 5.6805 5.86201
H 8.67424 8.48127 7.11839
H 6.29751 6.58255 7.8407
H 6.94379 9.20604 9.27249
H 5.54208 7.97319 9.54501
10
 Atoms. Timestep: 1100
C 8.63117 6.66724 6.03523
C 8.07593 7.52239 6.99769
C 6.84727 7.52355 7.95204
C 6.42831 8.32357 8.98807
H 9.59529 7.01783 5.54378
H 8.3124 5.66063 5.82712
H 8.68336 8.45092 7.01664
H 6.20629 6.64943 7.8905
H 6.9325 9.23956 9.25395
H 5.49809 7.98114 9.51884
10
 Atoms. Timestep: 1120
C 8.62893 6.64978 6.06803
C 8.02959 7.51443 6.97039
C 6.87527 7.50191 7.91528
C 6.47005 8.34266 9.00608
H 9.59104 6.99914 5.7218
H 8.32877 5.65945 5.76819
H 8.56356 8.45674 7.08225
H 6.19647 6.63332 7.73894
H 6.88179 9.30313 9.3071
H 5.5393 8.11561 9.51205
10
 Atoms. Timestep: 1140
C 8.66949 6.62091 6.06628
C 8.01402 7.53803 6.97074
C 6.84717 7.50448 7.961
C 6.45938 8.3518 8.97556
H 9.59547 6.95649 5.68668
H 8.22434 5.63808 5.7716
H 8.56143 8.4625 7.13137
H 6.22177 6.66005 7.68078
H 7.01696 9.26965 9.26856
H 5.56371 8.14186 9.50849
10
 Atoms. Timestep: 1160
C 8.64461 6.64946 6.10005
C 8.08555 7.5237 6.98323
C 6.8282 7.4888 7.93916
C 6.42118 8.37955 8.95383
H 9.57599 6.86618 5.52983
H 8.17753 5.69665 5.84649
H 8.67514 8.45448 7.08457
H 6.12417 6.65766 7.8367
H 7.16967 9.14428 9.1761
H 5.52428 8.15174 9.55767
10
 Atoms. Timestep: 1180
C 8.61915 6.61981 6.0646
C 8.12759 7.51759 7.05598
C 6.82954 7.5008 7.91546
C 6.42231 8.38751 8.92185
H 9.52818 6.87682 5.45062
H 8.11477 5.69166 5.94132
H 8.70204 8.45634 7.13395
H 6.17768 6.60452 7.80882
H 7.07399 9.18372 9.23113
H 5.5358 8.25265 9.57585
10
 Atoms. Timestep: 1200
C 8.58373 6.60491 6.05778
C 8.13591 7.48015 7.06839
C 6.88285 7.52333 7.93445
C 6.4294 8.40984 8.92902
H 9.41552 6.87208 5.482
H 8.07869 5.62783 5.91676
H 8.68229 8.39748 7.26475
H 6.32483 6.6443 7.63127
H 6.92928 9.34075 9.22489
H 5.50205 8.2282 9.43148
10
 Atoms. Timestep: 1220
C 8.55246 6.58648 6.077
C 8.14309 7.47172 7.05311
C 6.95689 7.5339 7.96239
C 6.39608 8.43343 8.95379
H 9.42406 6.82752 5.48871
H 8.04315 5.63103 5.78316
H 8.85449 8.29745 7.2268
H 6.22208 6.74868 7.71705
H 6.87378 9.42421 9.1253
H 5.41532 8.13793 9.2702
10
 Atoms. Timestep: 1240
C 8.53477 6.54774 6.06133
C 8.17779 7.48064 7.06138
C 6.9415 7.57209 8.01763
C 6.40391 8.42762 8.89171
H 9.53374 6.74829 5.54227
H 7.927 5.74677 5.71391
H 8.99171 8.22658 7.11568
H 6.19799 6.76073 7.92183
H 6.76868 9.39029 9.17909
H 5.35707 8.17881 9.22389
10
 Atoms. Timestep: 1260
C 8.53168 6.55076 6.05723
C 8.20794 7.42414 7.04544
C 6.94707 7.55605 7.97546
C 6.36251 8.51352 8.89169
H 9.52772 6.5998 5.61311
H 7.8251 5.81485 5.69187
H 8.89377 8.25224 7.259
H 6.41145 6.60811 7.9079
H 6.79682 9.44142 9.27934
H 5.37394 8.23672 9.31891
10
 Atoms. Timestep: 1280
C 8.52768 6.54784 6.06304
C 8.17844 7.4532 7.11071
C 6.93826 7.56766 7.9544
C 6.38298 8.50363 8.82475
H 9.46072 6.48548 5.62576
H 7.7542 5.78453 5.69948
H 8.88086 8.21785 7.43633
H 6.4497 6.59863 7.87161
H 6.87752 9.43274 9.16822
H 5.53688 8.26673 9.37018
10
 Atoms. Timestep: 1300
C 8.52655 6.51733 6.06826
C 8.1737 7.48424 7.13313
C 6.90297 7.55489 7.93732
C 6.41043 8.51444 8.83547
H 9.548 6.50554 5.59497
H 7.76837 5.80543 5.7906
H 9.03146 8.11613 7.44871
H 6.19244 6.69864 7.88985
H 6.98634 9.44402 8.89136
H 5.51548 8.22482 9.42837
10
 Atoms. Timestep: 1320
C 8.53626 6.5295 6.12344
C 8.19784 7.38543 7.05769
C 6.84399 7.56569 7.94725
C 6.44952 8.53981 8.86743
H 9.53466 6.5863 5.62226
H 7.86292 5.79891 5.79803
H 8.99453 8.07003 7.39692
H 6.13503 6.74729 7.78178
H 6.94351 9.48726 8.87283
H 5.48765 8.40766 9.4423
10
 Atoms. Timestep: 1340
C 8.58491 6.45565 6.07237
C 8.12667 7.36924 7.12948
C 6.84529 7.59767 7.9427
C 6.45846 8.56875 8.86794
H 9.56212 6.63628 5.65652
H 7.91504 5.60691 5.64096
H 8.86759 8.14459 7.3257
H 6.18665 6.75754 7.72583
H 6.98578 9.52758 9.08733
H 5.51485 8.59921 9.37776
10
 Atoms. Timestep: 1360
C 8.52385 6.46667 6.15053
C 8.09409 7.33899 7.10958
C 6.87918 7.59844 7.92615
C 6.48967 8.6077 8.81348
H 9.48289 6.6644 5.76153
H 8.14117 5.60204 5.63504
H 8.78208 8.16877 7.26736
H 6.07396 6.84334 7.8079
H 7.21485 9.33385 9.2177
H 5.50829 8.53683 9.20108
10
 Atoms. Timestep: 1380
C 8.56333 6.40792 6.13383
C 8.07143 7.35385 7.07379
C 6.84028 7.60213 7.94218
C 6.50625 8.65662 8.83271
H 9.60714 6.74653 5.79737
H 8.03798 5.53041 5.81093
H 8.85416 8.1256 7.22448
H 6.00193 6.93231 7.74943
H 7.31042 9.23799 9.2483
H 5.42467 8.52398 9.16345
10
 Atoms. Timestep: 1400
C 8.57656 6.41299 6.17458
C 8.09005 7.36218 7.04836
C 6.799 7.63232 7.90806
C 6.52845 8.58591 8.83226
H 9.57411 6.52503 5.72883
H 7.9872 5.51588 5.97163
H 8.84226 8.12396 7.23594
H 5.99259 6.97802 7.60188
H 7.19026 9.33421 9.25777
H 5.57328 8.78244 9.3134
10
 Atoms. Timestep: 1420
C 8.56294 6.37224 6.19835
C 8.1316 7.39654 7.0718
C 6.81627 7.63755 7.80217
C 6.50603 8.60495 8.91626
H 9.49375 6.32501 5.71399
H 7.9559 5.45732 5.98585
H 8.80108 8.23655 7.2655
H 5.94333 6.98448 7.51572
H 7.30582 9.3898 9.11219
H 5.52308 8.75923 9.3643
10
 Atoms. Timestep: 1440
C 8.51273 6.33624 6.24475
C 8.13672 7.41428 7.08608
C 6.80754 7.72425 7.84421
C 6.53846 8.57329 8.82689
H 9.50501 6.34016 5.79169
H 7.8196 5.53728 6.05516
H 8.86295 8.2407 7.21804
H 6.05885 7.02405 7.49178
H 7.33163 9.25689 9.05234
H 5.57325 8.53255 9.26833
10
 Atoms. Timestep: 1460
C 8.50569 6.2997 6.23798
C 8.13128 7.39235 7.05738
C 6.87656 7.69926 7.80763
C 6.49619 8.67228 8.83772
H 9.57485 6.34178 5.83451
H 7.73805 5.55665 6.07126
H 8.95273 8.1079 7.16899
H 6.04636 7.0337 7.55003
H 7.25262 9.31122 9.28352
H 5.50111 8.48718 9.33645
10
 Atoms. Timestep: 1480
C 8.48292 6.3119 6.24308
C 8.15829 7.36079 7.02831
C 6.8956 7.73458 7.85109
C 6.49958 8.6741 8.80281
H 9.43563 6.1806 5.83621
H 7.85128 5.46089 5.95204
H 8.98041 8.04752 7.21752
H 6.06201 7.04549 7.62485
H 7.05418 9.39717 9.43898
H 5.52214 8.60008 9.26771
10
 Atoms. Timestep: 1500
C 8.48045 6.24822 6.18102
C 8.16358 7.36512 7.07685
C 6.89422 7.76859 7.90019
C 6.495 8.68372 8.83589
H 9.51177 6.15945 5.79259
H 7.78662 5.40733 5.90115
H 8.99518 8.06742 7.27853
H 6.10105 7.07675 7.64426
H 7.09296 9.5062 9.27745
H 5.4369 8.60893 9.03129
10
 Atoms. Timestep: 1520
C 8.42439 6.32233 6.25112
C 8.17665 7.29658 7.10444
C 6.92995 7.70435 7.86763
C 6.52584 8.68651 8.81126
H 9.44191 6.26477 5.81359
H 7.72848 5.58967 5.96223
H 8.9923 8.00169 7.26679
H 6.06183 7.08911 7.61918
H 7.1242 9.52098 9.06619
H 5.43436 8.69512 8.95423
10
 Atoms. Timestep: 1540
C 8.45532 6.2722 6.20037
C 8.16812 7.32698 7.19949
C 6.90015 7.66441 7.88309
C 6.52224 8.72622 8.75277
H 9.45226 6.29939 5.73485
H 7.59339 5.62697 5.94703
H 9.05031 7.97379 7.33024
H 6.07208 6.99782 7.55576
H 7.21536 9.54975 9.01207
H 5.46562 8.83347 9.0947
10
 Atoms. Timestep: 1560
C 8.46565 6.30362 6.22525
C 8.2081 7.26789 7.16475
C 6.83568 7.68517 7.92463
C 6.50519 8.77298 8.69288
H 9.3533 6.19521 5.67976
H 7.6772 5.60567 5.83423
H 8.98889 7.96702 7.52015
H 6.10782 6.93162 7.63688
H 7.32292 9.45633 8.99204
H 5.58614 8.88615 9.18088
10
 Atoms. Timestep: 1580
C 8.47911 6.28625 6.19793
C 8.16696 7.25519 7.17448
C 6.84009 7.67377 7.88488
C 6.51677 8.82494 8.70421
H 9.49389 6.17127 5.73984
H 7.71234 5.62933 5.83374
H 8.99978 7.84759 7.55639
H 6.00499 6.95559 7.83022
H 7.35667 9.46286 8.94493
H 5.53878 8.91245 9.21483
10
 Atoms. Timestep: 1600
C 8.4603 6.29156 6.20617
C 8.09474 7.24754 7.18663
C 6.84441 7.70858 7.88428
C 6.6022 8.76329 8.67746
H 9.5397 6.24716 6.00865
H 7.71793 5.63695 5.80617
H 9.00488 7.75777 7.49429
H 5.99253 7.00407 7.85268
H 7.26113 9.60017 8.89121
H 5.59793 8.90797 9.1087
10
 Atoms. Timestep: 1620
C 8.45484 6.25529 6.21892
C 8.08558 7.21299 7.13929
C 6.8626 7.69789 7.8822
C 6.59683 8.84102 8.76043
H 9.52549 6.2076 6.1268
H 7.79691 5.54234 5.63747
H 8.94511 7.8103 7.51706
H 6.0178 7.02687 7.70927
H 7.28836 9.72627 8.82237
H 5.55127 8.86347 9.07096
10
 Atoms. Timestep: 1640
C 8.44375 6.21799 6.25216
C 8.09808 7.24032 7.14094
C 6.85071 7.75914 7.91666
C 6.58645 8.80716 8.70492
H 9.4929 6.0837 6.0192
H 7.88971 5.52741 5.61458
H 8.97898 7.78667 7.47184
H 6.01132 7.10773 7.66891
H 7.25587 9.62196 8.89244
H 5.62124 8.94486 9.13394
10
 Atoms. Timestep: 1660
C 8.45093 6.18735 6.2646
C 8.13321 7.25594 7.16031
C 6.85092 7.73863 7.84241
C 6.55863 8.85075 8.69307
H 9.524 6.08795 5.94393
H 7.71254 5.55323 5.80468
H 9.04829 7.76415 7.42622
H 5.93991 7.11685 7.71226
H 7.37253 9.49976 9.0346
H 5.5646 9.002 9.20499
10
 Atoms. Timestep: 1680
C 8.41833 6.22368 6.30759
C 8.16586 7.22482 7.16128
C 6.83682 7.75658 7.80076
C 6.59428 8.83652 8.6706
H 9.41013 6.09513 5.94005
H 7.55619 5.57916 6.07994
H 9.01779 7.88158 7.47809
H 6.01062 7.07162 7.59985
H 7.43741 9.39855 9.09233
H 5.60013 8.94436 9.0573
10
 Atoms. Timestep: 1700
C 8.41246 6.15193 6.27856
C 8.14846 7.29551 7.21897
C 6.87517 7.77826 7.80045
C 6.59272 8.8217 8.69809
H 9.37688 5.93824 5.84105
H 7.54832 5.45203 6.14112
H 8.9936 7.96031 7.47652
H 6.05085 7.17137 7.41677
H 7.41458 9.43167 9.08288
H 5.56685 8.98202 8.95425
10
 Atoms. Timestep: 1720
C 8.38209 6.15479 6.34863
C 8.19141 7.25472 7.14633
C 6.90487 7.78931 7.81209
C 6.573 8.81011 8.72418
H 9.3152 5.87646 5.85363
H 7.65647 5.4161 6.08239
H 9.02631 7.89111 7.36509
H 5.98275 7.38166 7.35276
H 7.3039 9.50782 9.11284
H 5.53118 9.09326 8.93488
10
 Atoms. Timestep: 1740
C 8.3947 6.08006 6.3481
C 8.18814 7.22606 7.10637
C 6.88673 7.8473 7.82179
C 6.5688 8.84577 8.7398
H 9.45522 5.98943 5.98214
H 7.55041 5.43895 6.07982
H 9.15245 7.80056 7.21702
H 5.98111 7.41865 7.38468
H 7.27361 9.51759 9.25527
H 5.48096 9.05973 8.87375
10
 Atoms. Timestep: 1760
C 8.37805 6.09583 6.37967
C 8.14036 7.23069 7.12716
C 6.9105 7.88443 7.77786
C 6.60709 8.85489 8.69279
H 9.37726 5.91776 6.07932
H 7.59684 5.387 6.04682
H 9.06938 7.79674 7.24079
H 6.02901 7.3513 7.44592
H 7.26529 9.40632 9.35696
H 5.57025 8.96585 8.85435
10
 Atoms. Timestep: 1780
C 8.36049 6.08637 6.37415
C 8.12206 7.25314 7.15922
C 6.9308 7.85198 7.71519
C 6.62034 8.90257 8.68756
H 9.36554 5.79435 6.10728
H 7.65302 5.32999 6.05381
H 8.96099 7.86105 7.426
H 5.99806 7.33817 7.41433
H 7.3897 9.36706 9.32565
H 5.55453 8.96505 8.94516
10
 Atoms. Timestep: 1800
C 8.38013 6.07722 6.37044
C 8.16095 7.2229 7.1499
C 6.8207 7.87902 7.7642
C 6.64488 8.86962 8.65118
H 9.4432 5.81649 6.15247
H 7.53699 5.44161 6.13034
H 9.07544 7.78039 7.53409
H 5.94437 7.3939 7.30787
H 7.45786 9.40719 9.11348
H 5.62623 9.08782 9.03642
10
 Atoms. Timestep: 1820
C 8.41268 6.09592 6.38966
C 8.15522 7.18607 7.17793
C 6.79833 7.8295 7.73261
C 6.63031 8.90261 8.68646
H 9.43056 5.77763 6.13019
H 7.5137 5.53369 6.06267
H 9.10537 7.63263 7.50133
H 5.86584 7.44079 7.31041
H 7.54882 9.46953 8.91392
H 5.68051 9.28112 9.05048
10
 Atoms. Timestep: 1840
C 8.38426 6.08067 6.3809
C 8.10385 7.17997 7.24906
C 6.845 7.83981 7.74762
C 6.65623 8.91277 8.63648
H 9.35661 5.78017 6.13268
H 7.64155 5.48823 5.8432
H 8.96466 7.70679 7.58934
H 5.93241 7.34706 7.38722
H 7.56212 9.47461 8.91017
H 5.73061 9.34379 8.94212
10
 Atoms. Timestep: 1860
C 8.34902 6.05535 6.35176
C 8.07413 7.13019 7.25751
C 6.85757 7.84544 7.79705
C 6.70778 8.98365 8.57555
H 9.44281 5.89906 6.22654
H 7.64567 5.49755 5.75035
H 8.93186 7.71468 7.71316
H 5.98042 7.25958 7.48338
H 7.54548 9.47342 9.04597
H 5.64672 9.28793 8.77838
10
 Atoms. Timestep: 1880
C 8.35662 6.09301 6.36829
C 8.07866 7.08031 7.23801
C 6.85464 7.81102 7.81998
C 6.70614 9.03917 8.54036
H 9.45683 5.9035 6.24463
H 7.61245 5.54355 5.79194
H 9.05699 7.39013 7.65526
H 5.86725 7.38218 7.58161
H 7.48942 9.55353 9.10318
H 5.66467 9.30611 8.71249
10
 Atoms. Timestep: 1900
C 8.37349 6.05563 6.32626
C 8.1003 7.0861 7.29883
C 6.87046 7.85703 7.84147
C 6.67124 9.01143 8.53436
H 9.3718 5.74524 6.17213
H 7.57097 5.53015 5.7769
H 9.03913 7.33065 7.71708
H 5.8944 7.47963 7.53169
H 7.45211 9.67645 8.95491
H 5.70268 9.39676 8.73075
10
 Atoms. Timestep: 1920
C 8.30818 6.06371 6.35757
C 8.14579 7.04789 7.31506
C 6.89181 7.87256 7.78795
C 6.67885 9.02435 8.57535
H 9.28661 5.62779 6.15762
H 7.54795 5.58362 5.75026
H 8.98444 7.5207 7.90742
H 6.01281 7.36407 7.37781
H 7.51229 9.69258 8.7648
H 5.6321 9.38016 8.71549
10
 Atoms. Timestep: 1940
C 8.27335 6.052 6.41543
C 8.14143 7.09805 7.34296
C 6.90403 7.86412 7.71878
C 6.70342 9.01079 8.5416
H 9.29246 5.57929 6.22569
H 7.38653 5.78454 5.82848
H 9.09355 7.42597 7.86484
H 6.02319 7.32209 7.33641
H 7.5362 9.65093 8.7957
H 5.65872 9.30739 8.72521
10
 Atoms. Timestep: 1960
C 8.28675 5.9882 6.43028
C 8.16481 7.12238 7.32006
C 6.91827 7.89632 7.71932
C 6.67644 9.03194 8.49409
H 9.23946 5.52051 6.27161
H 7.35303 5.81798 5.91844
H 9.07581 7.31395 7.77692
H 5.9748 7.44348 7.38489
H 7.5124 9.56275 8.99167
H 5.69089 9.32827 8.76303
10
 Atoms. Timestep: 1980
C 8.27757 5.97067 6.44947
C 8.18267 7.06108 7.24884
C 6.92313 7.94577 7.73934
C 6.67205 9.09432 8.515
H 9.14991 5.43377 6.27919
H 7.45117 5.50531 5.86835
H 9.08098 7.44345 7.84308
H 6.00451 7.52729 7.32716
H 7.46235 9.50135 9.15674
H 5.64253 9.3778 8.69858
10
 Atoms. Timestep: 2000
C 8.24183 5.94765 6.44915
C 8.12113 7.08785 7.28146
C 6.93031 7.97655 7.71626
C 6.73051 9.04923 8.54276
H 9.28758 5.43213 6.37681
H 7.46545 5.33051 5.92348
H 9.11325 7.4569 7.71137
H 6.04317 7.61336 7.18576
H 7.39008 9.58573 9.21174
H 5.68172 9.43368 8.54215
10
 Atoms. Timestep: 2020
C 8.2395 5.93644 6.50476
C 8.0673 7.07068 7.27818
C 6.96298 7.95425 7.65218
C 6.74876 9.01947 8.5744
H 9.31672 5.65102 6.48265
H 7.43153 5.41388 6.08621
H 8.99554 7.39423 7.56671
H 6.0278 7.7934 7.07956
H 7.46416 9.58165 9.18794
H 5.77697 9.50083 8.42879
10
 Atoms. Timestep: 2040
C 8.27069 5.87791 6.54177
C 8.06984 7.05297 7.26385
C 6.91128 7.9993 7.64618
C 6.74131 9.05529 8.56093
H 9.24796 5.61524 6.39652
H 7.41698 5.35221 6.10724
H 9.03962 7.50039 7.65783
H 6.0477 7.88476 7.0011
H 7.59682 9.37234 9.16894
H 5.81622 9.58225 8.48097
10
 Atoms. Timestep: 2060
C 8.25981 5.86707 6.58082
C 8.09966 7.08543 7.29241
C 6.84506 8.02867 7.61949
C 6.77315 9.07611 8.50113
H 9.2454 5.3966 6.28235
H 7.45664 5.22204 6.06333
H 9.043 7.52643 7.74456
H 6.01661 7.83119 6.94013
H 7.58969 9.19819 9.21905
H 5.9066 9.70185 8.6765
10
 Atoms. Timestep: 2080
C 8.24344 5.88435 6.58633
C 8.0829 7.06478 7.30362
C 6.86449 8.00282 7.54903
C 6.80711 9.1001 8.49464
H 9.28008 5.39703 6.48864
H 7.40704 5.38421 6.17463
H 8.95408 7.44092 7.72038
H 5.95196 7.75008 6.93786
H 7.61842 9.16316 9.22349
H 5.9248 9.77228 8.7423
10
 Atoms. Timestep: 2100
C 8.24151 5.85827 6.56815
C 8.02276 7.05919 7.29888
C 6.91263 8.03539 7.57443
C 6.81748 9.07049 8.4824
H 9.19284 5.48499 6.74685
H 7.33798 5.46919 6.15562
H 8.97867 7.42119 7.79238
H 6.01688 7.78319 7.01232
H 7.70059 9.25395 9.08945
H 5.93073 9.66745 8.54924
10
 Atoms. Timestep: 2120
C 8.20985 5.84688 6.57343
C 8.04229 7.05837 7.2956
C 6.92821 8.02641 7.60766