LAMMPS (2 Aug 2023 - Update 2)
#13 Butadiene
units           metal
boundary        p p p
atom_style      atomic

neighbor        2.0 bin
neigh_modify    delay 0 every 1 check yes

read_data       restart.lmp
Reading data file ...
  orthogonal box = (0 0 0) to (15 15 15)
  1 by 2 by 2 MPI processor grid
  reading atoms ...
  10 atoms
  reading velocities ...
  10 velocities
  read_data CPU = 0.011 seconds
mass            1 12.0
mass            2 2

variable        sysvol          equal vol
variable        sysmass         equal mass(all)/6.0221367e+23
variable        sysdensity      equal v_sysmass/v_sysvol/1.0e-24
variable	out_freq 	equal 100

pair_style      deepmd ../files/frozen_model_1_compressed.pb ../files/frozen_model_2_compressed.pb ../files/frozen_model_3_compressed.pb ../files/frozen_model_3_compressed.pb out_file md.out out_freq 10 atomic relative 1.0
Summary of lammps deepmd module ...
  >>> Info of deepmd-kit:
  installed to:       /rs1/researchers/w/wjpfaend/rahul/MLP/DeePMD-kit/deepmd_cpu
  source:             v2.2.8-dirty
  source branch:      master
  source commit:      b875ea8
  source commit at:   2024-01-22 22:28:58 -0500
  support model ver.: 1.1 
  build variant:      cpu
  build with tf inc:  /rs1/researchers/w/wjpfaend/rahul/MLP/DeePMD-kit/tensorflow/lib/python3.11/site-packages/tensorflow/include;/rs1/researchers/w/wjpfaend/rahul/MLP/DeePMD-kit/tensorflow/lib/python3.11/site-packages/tensorflow/include
  build with tf lib:  /rs1/researchers/w/wjpfaend/rahul/MLP/DeePMD-kit/tensorflow/lib/python3.11/site-packages/tensorflow/libtensorflow_cc.so.2
  set tf intra_op_parallelism_threads: 0
  set tf inter_op_parallelism_threads: 0
  >>> Info of lammps module:
  use deepmd-kit at:  /rs1/researchers/w/wjpfaend/rahul/MLP/DeePMD-kit/deepmd_cpu
  source:             v2.2.8-dirty
  source branch:      master
  source commit:      b875ea8
  source commit at:   2024-01-22 22:28:58 -0500
  build float prec:   double
  build with tf inc:  /rs1/researchers/w/wjpfaend/rahul/MLP/DeePMD-kit/tensorflow/lib/python3.11/site-packages/tensorflow/include;/rs1/researchers/w/wjpfaend/rahul/MLP/DeePMD-kit/tensorflow/lib/python3.11/site-packages/tensorflow/include
  build with tf lib:  /rs1/researchers/w/wjpfaend/rahul/MLP/DeePMD-kit/tensorflow/lib/python3.11/site-packages/tensorflow/libtensorflow_cc.so.2
pair_coeff	* *

#
velocity        all create 300.0 2345678 rot no dist gaussian
fix             1 all nvt temp 300.0 300.0 0.05
fix             2 all plumed plumedfile plumed.dat outfile PLUMED.log

timestep        0.0005
thermo_style    custom step pe ke etotal v_sysdensity temp press vol
thermo          10

dump            10 all custom 100 btd.dump id type x y z
dump		101 all xyz 20 btd.xyz
dump_modify	101 element C H

fix		extra all print 20 "$(step), $(ke), $(pe), $(etotal), $(temp), $(press), $(vol)" file logfile screen no

restart	        20000 dump.restart

run             50000

CITE-CITE-CITE-CITE-CITE-CITE-CITE-CITE-CITE-CITE-CITE-CITE-CITE

Your simulation uses code contributions which should be cited:

- USER-DEEPMD package:

@article{Wang_ComputPhysCommun_2018_v228_p178,
  author = {Wang, Han and Zhang, Linfeng and Han, Jiequn and E, Weinan},
  doi = {10.1016/j.cpc.2018.03.016},
  url = {https://doi.org/10.1016/j.cpc.2018.03.016},
  year = 2018,
  month = {jul},
  publisher = {Elsevier {BV}},
  volume = 228,
  journal = {Comput. Phys. Commun.},
  title = {{DeePMD-kit: A deep learning package for many-body potential energy representation and molecular dynamics}},
  pages = {178--184}
}
@misc{Zeng_JChemPhys_2023_v159_p054801,
  title  = {{DeePMD-kit v2: A software package for deep potential models}},
  author =   {Jinzhe Zeng and Duo Zhang and Denghui Lu and Pinghui Mo and Zeyu Li
         and Yixiao Chen and Mari{\'a}n Rynik and Li'ang Huang and Ziyao Li and 
         Shaochen Shi and Yingze Wang and Haotian Ye and Ping Tuo and Jiabin
         Yang and Ye Ding and Yifan Li and Davide Tisi and Qiyu Zeng and Han 
         Bao and Yu Xia and Jiameng Huang and Koki Muraoka and Yibo Wang and 
         Junhan Chang and Fengbo Yuan and Sigbj{\o}rn L{\o}land Bore and Chun
         Cai and Yinnian Lin and Bo Wang and Jiayan Xu and Jia-Xin Zhu and 
         Chenxing Luo and Yuzhi Zhang and Rhys E A Goodall and Wenshuo Liang
         and Anurag Kumar Singh and Sikai Yao and Jingchao Zhang and Renata
         Wentzcovitch and Jiequn Han and Jie Liu and Weile Jia and Darrin M
         York and Weinan E and Roberto Car and Linfeng Zhang and Han Wang},
  journal =  {J. Chem. Phys.},
  volume =   159,
  issue =    5,  
  year =    2023,
  pages  =   054801,
  doi =      {10.1063/5.0155600},
}

CITE-CITE-CITE-CITE-CITE-CITE-CITE-CITE-CITE-CITE-CITE-CITE-CITE

Generated 0 of 1 mixed pair_coeff terms from geometric mixing rule
Neighbor list info ...
  update: every = 1 steps, delay = 0 steps, check = yes
  max neighbors/atom: 2000, page size: 100000
  master list distance cutoff = 8
  ghost atom cutoff = 8
  binsize = 4, bins = 4 4 4
  1 neighbor lists, perpetual/occasional/extra = 1 0 0
  (1) pair deepmd, perpetual
      attributes: full, newton on
      pair build: full/bin/atomonly
      stencil: full/bin/3d
      bin: standard
Per MPI rank memory allocation (min/avg/max) = 3.09 | 3.09 | 3.09 Mbytes
   Step         PotEng         KinEng         TotEng      v_sysdensity       Temp          Press          Volume    
         0  -56.387888      0.34900239    -56.038885      0.029520714    300            1825.2388      3375         
        10  -56.003758      0.40143907    -55.602319      0.029520714    345.0742       1777.3074      3375         
        20  -56.106251      0.48168429    -55.624566      0.029520714    414.05243     -179.4381       3375         
        30  -55.976115      0.33454676    -55.641568      0.029520714    287.57404     -1886.3353      3375         
        40  -56.047356      0.4039912     -55.643365      0.029520714    347.26799     -900.17555      3375         
        50  -56.074334      0.42120502    -55.653129      0.029520714    362.06487      706.45174      3375         
        60  -55.997436      0.34738699    -55.650049      0.029520714    298.61141     -638.25418      3375         
        70  -55.982627      0.32454784    -55.658079      0.029520714    278.97904     -1122.8402      3375         
        80  -56.062594      0.36720909    -55.695384      0.029520714    315.65035      1614.6956      3375         
        90  -55.990497      0.33071136    -55.659786      0.029520714    284.27716      2128.9431      3375         
       100  -56.14636       0.49974777    -55.646612      0.029520714    429.57966     -328.15997      3375         
       110  -56.075361      0.38688987    -55.688471      0.029520714    332.56781     -1896.5514      3375         
       120  -55.982414      0.27356752    -55.708847      0.029520714    235.15672     -1026.7575      3375         
       130  -56.031272      0.32275702    -55.708515      0.029520714    277.43967      556.67898      3375         
       140  -56.199043      0.46168178    -55.737361      0.029520714    396.85841      553.39531      3375         
       150  -56.03441       0.29822706    -55.736183      0.029520714    256.35388     -399.17367      3375         
       160  -56.062817      0.30298975    -55.759828      0.029520714    260.44786      712.39971      3375         
       170  -56.153701      0.36112427    -55.792577      0.029520714    310.41988      1711.7545      3375         
       180  -56.13748       0.35265354    -55.784827      0.029520714    303.1385       61.481984      3375         
       190  -56.049569      0.21697027    -55.832599      0.029520714    186.50611     -1846.4856      3375         
       200  -56.055658      0.19738562    -55.858272      0.029520714    169.67129     -1183.409       3375         
       210  -56.102401      0.23901777    -55.863383      0.029520714    205.45799      590.23824      3375         
       220  -56.182029      0.3096138     -55.872415      0.029520714    266.14184      354.55377      3375         
       230  -56.1438        0.24221218    -55.901588      0.029520714    208.20389     -878.52447      3375         
       240  -56.20119       0.28284026    -55.918349      0.029520714    243.1275       309.2842       3375         
       250  -56.216419      0.28092037    -55.935499      0.029520714    241.47718      1967.7233      3375         
       260  -56.204542      0.28763655    -55.916906      0.029520714    247.25036      468.11028      3375         
       270  -56.089712      0.15961403    -55.930098      0.029520714    137.2031      -1600.2819      3375         
       280  -56.192158      0.23645258    -55.955705      0.029520714    203.25297     -963.68185      3375         
       290  -56.23677       0.27767522    -55.959095      0.029520714    238.68766      767.88747      3375         
       300  -56.183577      0.24597076    -55.937606      0.029520714    211.43474      559.15956      3375         
       310  -56.166201      0.21198209    -55.954219      0.029520714    182.21831     -746.02882      3375         
       320  -56.206002      0.24090174    -55.9651        0.029520714    207.07744     -168.89252      3375         
       330  -56.119101      0.1651265     -55.953974      0.029520714    141.94157      1492.6006      3375         
       340  -56.147828      0.21243257    -55.935395      0.029520714    182.60555      483.42231      3375         
       350  -56.213342      0.27822557    -55.935116      0.029520714    239.16074     -1836.1777      3375         
       360  -56.213604      0.27473978    -55.938864      0.029520714    236.16438     -1245.3665      3375         
       370  -56.094811      0.14988268    -55.944928      0.029520714    128.8381       1045.6926      3375         
       380  -56.155577      0.25133287    -55.904244      0.029520714    216.04396      933.46264      3375         
       390  -56.222649      0.32642958    -55.89622       0.029520714    280.59657     -338.42109      3375         
       400  -56.074705      0.17956553    -55.895139      0.029520714    154.35327     -375.14244      3375         
       410  -56.087318      0.20712374    -55.880195      0.029520714    178.04211      772.74695      3375         
       420  -56.21332       0.37132523    -55.841994      0.029520714    319.18856      1031.6604      3375         
       430  -56.183396      0.35775068    -55.825645      0.029520714    307.51997     -982.40684      3375         
       440  -56.045027      0.22571229    -55.819315      0.029520714    194.0207      -1487.2351      3375         
       450  -56.10776       0.29385798    -55.813902      0.029520714    252.59825      748.05517      3375         
       460  -56.173687      0.39284629    -55.780841      0.029520714    337.68791      835.96991      3375         
       470  -56.048771      0.2794573     -55.769314      0.029520714    240.21952     -945.77261      3375         
       480  -55.999895      0.23080551    -55.76909       0.029520714    198.39879     -742.14756      3375         
       490  -56.264452      0.49306546    -55.771386      0.029520714    423.8356       784.42674      3375         
       500  -56.176865      0.42997758    -55.746887      0.029520714    369.6057       1428.1105      3375         
       510  -56.01214       0.29061602    -55.721524      0.029520714    249.81149     -91.699265      3375         
       520  -55.950411      0.21041173    -55.739999      0.029520714    180.86844     -1776.2152      3375         
       530  -56.100986      0.34070145    -55.760285      0.029520714    292.86457      218.53452      3375         
       540  -56.042192      0.32837957    -55.713812      0.029520714    282.27276      1419.5247      3375         
       550  -56.044725      0.32856911    -55.716155      0.029520714    282.4357      -1040.5882      3375         
       560  -56.077067      0.34849617    -55.728571      0.029520714    299.56486     -1304.3833      3375         
       570  -56.131919      0.40269847    -55.729221      0.029520714    346.15677      1513.067       3375         
       580  -55.946592      0.24161132    -55.704981      0.029520714    207.68739      2001.7778      3375         
       590  -56.109958      0.41796674    -55.691991      0.029520714    359.28127     -830.68384      3375         
       600  -56.112373      0.4076269     -55.704746      0.029520714    350.39322     -2238.4538      3375         
       610  -56.136631      0.41612924    -55.720502      0.029520714    357.70176     -416.75132      3375         
       620  -56.021492      0.31988313    -55.701609      0.029520714    274.96929      1445.7308      3375         
       630  -56.128939      0.44604911    -55.682889      0.029520714    383.42068      77.333711      3375         
       640  -56.013631      0.3065906     -55.707041      0.029520714    263.54312     -1383.1428      3375         
       650  -56.045254      0.32313158    -55.722122      0.029520714    277.76163      941.181        3375         
       660  -55.991219      0.30753978    -55.683679      0.029520714    264.35903      2591.8038      3375         
       670  -56.137523      0.46144934    -55.676074      0.029520714    396.6586      -447.6647       3375         
       680  -55.948536      0.25801764    -55.690518      0.029520714    221.79015     -2458.4731      3375         
       690  -56.069306      0.36819914    -55.701106      0.029520714    316.50139     -733.79835      3375         
       700  -56.026124      0.3184167     -55.707708      0.029520714    273.70876      1300.5107      3375         
       710  -56.09708       0.43218346    -55.664896      0.029520714    371.50186      442.25404      3375         
       720  -55.977809      0.29162689    -55.686182      0.029520714    250.68042     -1472.2124      3375         
       730  -56.090096      0.37718512    -55.712911      0.029520714    324.22568     -44.865916      3375         
       740  -56.128012      0.44668745    -55.681324      0.029520714    383.96939      2702.386       3375         
       750  -56.186949      0.52873505    -55.658214      0.029520714    454.49693      699.56327      3375         
       760  -55.971294      0.29277234    -55.678522      0.029520714    251.66504     -2675.7645      3375         
       770  -56.058533      0.36683145    -55.691702      0.029520714    315.32573     -1549.279       3375         
       780  -55.984622      0.2617377     -55.722884      0.029520714    224.98789      1536.9214      3375         
       790  -56.091505      0.42559057    -55.665914      0.029520714    365.83466      1090.0903      3375         
       800  -56.045722      0.3628349     -55.682887      0.029520714    311.89033     -1050.1591      3375         
       810  -56.012011      0.2962534     -55.715757      0.029520714    254.65734     -269.33521      3375         
       820  -56.088456      0.38009898    -55.708357      0.029520714    326.73041      2181.2854      3375         
       830  -56.039272      0.36715197    -55.67212       0.029520714    315.60125      1400.5853      3375         
       840  -56.03169       0.32144757    -55.710242      0.029520714    276.31407     -2638.551       3375         
       850  -56.014238      0.30218823    -55.71205       0.029520714    259.75887     -2804.0944      3375         
       860  -56.073923      0.33460228    -55.739321      0.029520714    287.62176      1166.1903      3375         
       870  -56.171645      0.44787384    -55.723771      0.029520714    384.9892       1806.2456      3375         
       880  -56.019187      0.30444913    -55.714738      0.029520714    261.70233     -746.0764       3375         
       890  -56.049044      0.30373112    -55.745313      0.029520714    261.08513     -709.53115      3375         
       900  -56.192362      0.40608102    -55.786281      0.029520714    349.06439      1711.3882      3375         
       910  -56.013739      0.29475427    -55.718985      0.029520714    253.36869      1459.5693      3375         
       920  -56.12135       0.36167235    -55.759678      0.029520714    310.89101     -1729.9246      3375         
       930  -56.077829      0.29176144    -55.786067      0.029520714    250.79608     -2239.3636      3375         
       940  -56.177637      0.37257984    -55.805058      0.029520714    320.26701      928.92272      3375         
       950  -56.114667      0.32142852    -55.793239      0.029520714    276.29769      2221.0598      3375         
       960  -56.086556      0.29046311    -55.796093      0.029520714    249.68005     -677.28573      3375         
       970  -56.054084      0.23253109    -55.821553      0.029520714    199.88209     -1744.0706      3375         
       980  -56.18276       0.32168751    -55.861073      0.029520714    276.52032      971.92831      3375         
       990  -56.034457      0.21203476    -55.822422      0.029520714    182.26359      1868.8157      3375         
      1000  -56.190708      0.35866736    -55.832041      0.029520714    308.30794     -1133.5837      3375         
      1010  -56.081486      0.22526563    -55.85622       0.029520714    193.63675     -2541.2076      3375         
      1020  -56.178357      0.2957551     -55.882602      0.029520714    254.229        365.53736      3375         
      1030  -56.074278      0.20723714    -55.867041      0.029520714    178.13959      2241.9806      3375         
      1040  -56.21099       0.35174011    -55.85925       0.029520714    302.35332      98.791358      3375         
      1050  -56.089627      0.21840973    -55.871217      0.029520714    187.74347     -1441.7952      3375         
      1060  -56.135305      0.23735139    -55.897954      0.029520714    204.02558      316.14845      3375         
      1070  -56.121306      0.24209427    -55.879212      0.029520714    208.10253      1960.042       3375         
      1080  -56.281686      0.42808729    -55.853598      0.029520714    367.98082     -208.97361      3375         
      1090  -56.070057      0.18909859    -55.880958      0.029520714    162.54782     -2515.6132      3375         
      1100  -56.222638      0.32291843    -55.899719      0.029520714    277.57841     -432.07311      3375         
      1110  -56.125344      0.24472491    -55.880619      0.029520714    210.36381      2144.1815      3375         
      1120  -56.157846      0.29833381    -55.859512      0.029520714    256.44565      456.80194      3375         
      1130  -56.002172      0.13549478    -55.866677      0.029520714    116.47036     -1814.3041      3375         
      1140  -56.158954      0.28593073    -55.873024      0.029520714    245.78404     -260.09421      3375         
      1150  -56.202339      0.33540634    -55.866933      0.029520714    288.31293      1893.0466      3375         
      1160  -56.130994      0.32307709    -55.807917      0.029520714    277.7148       159.73503      3375         
      1170  -55.983532      0.16549412    -55.818037      0.029520714    142.25758     -1994.0664      3375         
      1180  -56.209868      0.3825043     -55.827364      0.029520714    328.798       -296.9563       3375         
      1190  -56.095275      0.32458269    -55.770692      0.029520714    279.009        1791.4786      3375         
      1200  -56.153854      0.42474968    -55.729104      0.029520714    365.11184      601.28779      3375         
      1210  -55.991097      0.27484339    -55.716254      0.029520714    236.25344     -1569.177       3375         
      1220  -56.171472      0.46871716    -55.702755      0.029520714    402.90597     -449.72531      3375         
      1230  -56.086301      0.40029361    -55.686008      0.029520714    344.08957      2232.3064      3375         
      1240  -55.922542      0.30375023    -55.618792      0.029520714    261.10156      551.01942      3375         
      1250  -56.010447      0.38465325    -55.625794      0.029520714    330.64523     -2684.5681      3375         
      1260  -56.113461      0.49769476    -55.615766      0.029520714    427.81491     -1268.3069      3375         
      1270  -55.899117      0.28870293    -55.610414      0.029520714    248.16701      1558.9783      3375         
      1280  -55.96144       0.39702362    -55.564417      0.029520714    341.27871      1008.6729      3375         
      1290  -55.982599      0.41611017    -55.566488      0.029520714    357.68537     -673.99468      3375         
      1300  -55.990479      0.42638146    -55.564098      0.029520714    366.5145      -621.45563      3375         
      1310  -55.938304      0.37054289    -55.567761      0.029520714    318.51606      1801.2628      3375         
      1320  -55.906145      0.39050282    -55.515642      0.029520714    335.67348      1546.8799      3375         
      1330  -56.113557      0.57359568    -55.539961      0.029520714    493.05881     -2641.2843      3375         
      1340  -55.957002      0.41633825    -55.540663      0.029520714    357.88143     -2604.1214      3375         
      1350  -56.106305      0.52319515    -55.583109      0.029520714    449.73487      1520.8835      3375         
      1360  -55.980428      0.45035135    -55.530077      0.029520714    387.11885      2475.9419      3375         
      1370  -55.908075      0.3610609     -55.547014      0.029520714    310.36541     -636.13773      3375         
      1380  -55.916816      0.3482837     -55.568532      0.029520714    299.38221     -1629.5597      3375         
      1390  -56.058863      0.4637514     -55.595112      0.029520714    398.63744      1218.2666      3375         
      1400  -56.102627      0.52106523    -55.581561      0.029520714    447.904        1404.6497      3375         
      1410  -56.0044        0.41058451    -55.593816      0.029520714    352.93556     -1767.4852      3375         
      1420  -55.870932      0.25036452    -55.620567      0.029520714    215.21158     -2534.1312      3375         
      1430  -56.180428      0.50172411    -55.678704      0.029520714    431.27852      1009.5397      3375         
      1440  -55.923452      0.29943051    -55.624022      0.029520714    257.38836      2925.2004      3375         
      1450  -56.029851      0.39565687    -55.634194      0.029520714    340.10386     -52.319151      3375         
      1460  -56.055664      0.37996924    -55.675695      0.029520714    326.61889     -1431.9917      3375         
      1470  -56.089646      0.38747351    -55.702172      0.029520714    333.0695       672.76347      3375         
      1480  -56.041207      0.34620439    -55.695003      0.029520714    297.59486      1193.6965      3375         
      1490  -56.033676      0.32794499    -55.705731      0.029520714    281.8992      -1171.9809      3375         
      1500  -55.98385       0.25694949    -55.7269        0.029520714    220.87197     -2775.2444      3375         
      1510  -56.231635      0.47328487    -55.75835       0.029520714    406.83234     -142.69104      3375         
      1520  -56.013001      0.25009132    -55.76291       0.029520714    214.97674      2782.2262      3375         
      1530  -56.120177      0.38265405    -55.737522      0.029520714    328.92673      843.36399      3375         
      1540  -56.101626      0.33106691    -55.770559      0.029520714    284.58279     -1222.7004      3375         
      1550  -56.1765        0.38944836    -55.787052      0.029520714    334.76707     -18.43243       3375         
      1560  -56.029856      0.24313783    -55.786718      0.029520714    208.99957      977.91619      3375         
      1570  -56.03449       0.25487736    -55.779613      0.029520714    219.09078     -429.38951      3375         
      1580  -56.115404      0.32151908    -55.793884      0.029520714    276.37554     -1992.3167      3375         
      1590  -56.193875      0.37229982    -55.821575      0.029520714    320.02631     -344.93583      3375         
      1600  -56.066198      0.25175055    -55.814447      0.029520714    216.403        2448.4449      3375         
      1610  -56.15569       0.38447038    -55.77122       0.029520714    330.48803      1311.8997      3375         
      1620  -55.965989      0.16634274    -55.799646      0.029520714    142.98704     -1686.0278      3375         
      1630  -56.069946      0.26193169    -55.808014      0.029520714    225.15464     -1048.0459      3375         
      1640  -56.111152      0.30201142    -55.80914       0.029520714    259.6069       1270.6797      3375         
      1650  -56.114668      0.3279001     -55.786768      0.029520714    281.86062      112.086        3375         
      1660  -56.160049      0.36973307    -55.790316      0.029520714    317.81995     -2025.8967      3375         
      1670  -56.192788      0.38796977    -55.804818      0.029520714    333.49609     -773.53184      3375         
      1680  -56.120181      0.29822665    -55.821954      0.029520714    256.35353      1951.7683      3375         
      1690  -56.087272      0.32709707    -55.760175      0.029520714    281.17034      1781.1286      3375         
      1700  -56.051928      0.27888631    -55.773042      0.029520714    239.72871     -757.47262      3375         
      1710  -56.122167      0.32818188    -55.793985      0.029520714    282.10284     -1199.4851      3375         
      1720  -56.13662       0.34745049    -55.78917       0.029520714    298.66599      1092.2469      3375         
      1730  -56.072511      0.3121462     -55.760365      0.029520714    268.31868      1081.6585      3375         
      1740  -56.053004      0.2804038     -55.772601      0.029520714    241.03314     -2204.0666      3375         
      1750  -56.014237      0.24006675    -55.774171      0.029520714    206.35969     -1959.3378      3375         
      1760  -56.194736      0.39740871    -55.797328      0.029520714    341.60973      1496.9377      3375         
      1770  -56.000251      0.24715897    -55.753092      0.029520714    212.45611      2011.5356      3375         
      1780  -56.004195      0.26584357    -55.738352      0.029520714    228.51726     -341.16192      3375         
      1790  -56.186369      0.43075823    -55.75561       0.029520714    370.27674     -1497.8941      3375         
      1800  -56.149694      0.38896033    -55.760733      0.029520714    334.34756      481.33031      3375         
      1810  -56.027895      0.30704962    -55.720845      0.029520714    263.93769      1375.3284      3375         
      1820  -56.032163      0.305515      -55.726648      0.029520714    262.61854     -1029.2861      3375         
      1830  -56.032475      0.30502754    -55.727447      0.029520714    262.19953     -1694.0854      3375         
      1840  -56.206329      0.47654067    -55.729789      0.029520714    409.63101      808.1806       3375         
      1850  -56.071247      0.36027197    -55.710975      0.029520714    309.68725      1842.093       3375         
      1860  -56.065569      0.38923182    -55.676337      0.029520714    334.58093     -259.44324      3375         
      1870  -56.031122      0.3361116     -55.69501       0.029520714    288.91917     -1220.7993      3375         
      1880  -56.055684      0.34288665    -55.712797      0.029520714    294.74295      377.82208      3375         
      1890  -55.979645      0.31119843    -55.668447      0.029520714    267.50398      1382.4757      3375         
      1900  -56.047903      0.38144188    -55.666461      0.029520714    327.88476     -435.03294      3375         
      1910  -56.074791      0.40696859    -55.667822      0.029520714    349.82734     -2502.0871      3375         
      1920  -56.075979      0.40498024    -55.670999      0.029520714    348.11817     -659.27281      3375         
      1930  -55.958311      0.28174741    -55.676564      0.029520714    242.18809      2005.7545      3375         
      1940  -56.082987      0.45175595    -55.631231      0.029520714    388.32624      899.7929       3375         
      1950  -55.91101       0.29122507    -55.619785      0.029520714    250.33502     -576.17136      3375         
      1960  -56.054653      0.41306966    -55.641583      0.029520714    355.07177      716.33669      3375         
      1970  -56.055082      0.4507797     -55.604303      0.029520714    387.48706      1253.3132      3375         
      1980  -56.010421      0.41880809    -55.591613      0.029520714    360.00449     -997.08695      3375         
      1990  -55.96274       0.369876      -55.592864      0.029520714    317.94281     -2529.6275      3375         
      2000  -56.11063       0.50802995    -55.6026        0.029520714    436.69897     -943.13436      3375         
      2010  -56.023687      0.44600282    -55.577684      0.029520714    383.38089      1985.1585      3375         
      2020  -55.933847      0.37407778    -55.559769      0.029520714    321.55463      1783.9734      3375         
      2030  -55.887283      0.33782345    -55.549459      0.029520714    290.39066     -1033.2785      3375         
      2040  -56.108364      0.55114056    -55.557224      0.029520714    473.75655     -380.92757      3375         
      2050  -55.989543      0.42227926    -55.567264      0.029520714    362.98828      1388.7472      3375         
      2060  -55.926876      0.40316801    -55.523708      0.029520714    346.56039     -881.92066      3375         
      2070  -55.850051      0.30471135    -55.54534       0.029520714    261.92773     -2285.0576      3375         
      2080  -55.962004      0.38672801    -55.575276      0.029520714    332.42867     -64.068024      3375         
      2090  -55.985904      0.4503864     -55.535518      0.029520714    387.14898      1646.238       3375         
      2100  -55.990532      0.45871145    -55.531821      0.029520714    394.30514      1541.7843      3375         
      2110  -55.961504      0.42107462    -55.54043       0.029520714    361.95278     -41.037288      3375         
      2120  -56.061455      0.50920048    -55.552255      0.029520714    437.70515     -717.55755      3375         
      2130  -56.043037      0.47074576    -55.572291      0.029520714    404.64974      541.58719      3375         
      2140  -55.95529       0.38830738    -55.566982      0.029520714    333.78629      116.76847      3375         
      2150  -55.977732      0.38273785    -55.594994      0.029520714    328.99876     -2256.2477      3375         
      2160  -56.121406      0.50456863    -55.616837      0.029520714    433.72365     -1556.9714      3375         
      2170  -56.129421      0.46536205    -55.664059      0.029520714    400.02194      1415.3413      3375         
      2180  -55.988714      0.32738339    -55.66133       0.029520714    281.41646      1729.0792      3375         
      2190  -56.028158      0.34539164    -55.682766      0.029520714    296.89622      325.89202      3375         
      2200  -56.075056      0.36782064    -55.707236      0.029520714    316.17604     -382.68498      3375         
      2210  -55.999991      0.26599939    -55.733992      0.029520714    228.65121      109.5411       3375         
      2220  -55.960915      0.22610398    -55.734811      0.029520714    194.35739      386.1292       3375         
      2230  -56.038531      0.2864777     -55.752053      0.029520714    246.25421     -1229.3146      3375         
      2240  -56.148613      0.37073026    -55.777883      0.029520714    318.67712     -1641.9649      3375         
      2250  -56.229035      0.41819035    -55.810845      0.029520714    359.47348      916.36318      3375         
      2260  -56.042131      0.2459657     -55.796165      0.029520714    211.43038      2136.1844      3375         
      2270  -56.112604      0.31411891    -55.798485      0.029520714    270.01441     -9.6741955      3375         
      2280  -56.150377      0.328089      -55.822288      0.029520714    282.023       -1013.4755      3375         
      2290  -56.152876      0.31075409    -55.842121      0.029520714    267.12203      250.97687      3375         
      2300  -56.15091       0.30818239    -55.842728      0.029520714    264.91141      101.46246      3375         
      2310  -56.116996      0.26924638    -55.84775       0.029520714    231.44229     -1258.5336      3375         
      2320  -56.105598      0.2379644     -55.867634      0.029520714    204.55253     -1071.9468      3375         
      2330  -56.168692      0.28400699    -55.884685      0.029520714    244.13041      891.36686      3375         
      2340  -56.097494      0.24784552    -55.849649      0.029520714    213.04626      1752.5511      3375         
      2350  -56.088784      0.23248205    -55.856302      0.029520714    199.83993      292.62119      3375         
      2360  -56.112559      0.25189486    -55.860664      0.029520714    216.52705     -687.03974      3375         
      2370  -56.202061      0.33573686    -55.866324      0.029520714    288.59705      167.59227      3375         
      2380  -56.133795      0.27397886    -55.859816      0.029520714    235.5103       531.12345      3375         
      2390  -56.090592      0.24654684    -55.844045      0.029520714    211.92993     -1094.0264      3375         
      2400  -56.124485      0.27301171    -55.851474      0.029520714    234.67895     -1731.3083      3375         
      2410  -56.205532      0.34071477    -55.864817      0.029520714    292.87602      331.93406      3375         
      2420  -56.110814      0.28018104    -55.830633      0.029520714    240.84165      1673.488       3375         
      2430  -56.050323      0.23212256    -55.8182        0.029520714    199.53092      647.69457      3375         
      2440  -56.14866       0.33487406    -55.813786      0.029520714    287.85539     -553.1777       3375         
      2450  -56.217657      0.43033275    -55.787325      0.029520714    369.911       -164.54831      3375         
      2460  -56.001675      0.22612413    -55.775551      0.029520714    194.37471      293.06514      3375         
      2470  -55.929419      0.17529864    -55.754121      0.029520714    150.68548     -316.03883      3375         
      2480  -56.071433      0.33487234    -55.736561      0.029520714    287.85391     -1343.8222      3375         
      2490  -56.2074        0.48174371    -55.725657      0.029520714    414.1035      -353.61373      3375         
      2500  -56.066069      0.38785465    -55.678214      0.029520714    333.39712      1742.6252      3375         
      2510  -56.006961      0.40306212    -55.603899      0.029520714    346.46936      1426.0988      3375         
      2520  -56.029248      0.42837105    -55.600877      0.029520714    368.22474     -784.48018      3375         
      2530  -55.97589       0.39835174    -55.577539      0.029520714    342.42035     -702.50059      3375         
      2540  -55.919031      0.36539158    -55.55364       0.029520714    314.08803      425.86495      3375         
      2550  -55.898637      0.35741538    -55.541221      0.029520714    307.23174     -371.33633      3375         
      2560  -55.97273       0.45492154    -55.517808      0.029520714    391.04736     -1425.8005      3375         
      2570  -56.035382      0.52128813    -55.514094      0.029520714    448.09561     -979.33263      3375         
      2580  -55.952179      0.41074394    -55.541435      0.029520714    353.0726       952.86111      3375         
      2590  -55.868179      0.38991527    -55.478263      0.029520714    335.16842      1825.4582      3375         
      2600  -55.965029      0.48685192    -55.478177      0.029520714    418.49449      667.65772      3375         
      2610  -56.019565      0.51595588    -55.503609      0.029520714    443.51204     -170.27654      3375         
      2620  -56.023948      0.53488515    -55.489062      0.029520714    459.78351      428.93239      3375         
      2630  -56.044143      0.53803363    -55.506109      0.029520714    462.48992     -143.27584      3375         
      2640  -55.921554      0.39736715    -55.524187      0.029520714    341.574       -1844.6448      3375         
      2650  -55.975724      0.43981975    -55.535904      0.029520714    378.06597     -1740.1276      3375         
      2660  -56.047807      0.48586123    -55.561946      0.029520714    417.64289      396.06143      3375         
      2670  -55.864908      0.28180104    -55.583107      0.029520714    242.23419      1721.9507      3375         
      2680  -55.872264      0.32818301    -55.544081      0.029520714    282.10381      1379.6133      3375         
      2690  -56.079121      0.50179709    -55.577324      0.029520714    431.34125     -294.84706      3375         
      2700  -56.061969      0.45926863    -55.602701      0.029520714    394.78409     -650.62945      3375         
      2710  -55.94779       0.34756317    -55.600227      0.029520714    298.76286      145.40237      3375         
      2720  -55.871689      0.25404573    -55.617643      0.029520714    218.37592     -761.4733       3375         
      2730  -55.960137      0.33213009    -55.628007      0.029520714    285.49669     -1517.1473      3375         
      2740  -56.168263      0.52708718    -55.641176      0.029520714    453.08043      231.51526      3375         
      2750  -56.135951      0.46991778    -55.666033      0.029520714    403.93801      1846.0135      3375         
      2760  -56.009431      0.36262925    -55.646802      0.029520714    311.71355      1152.3212      3375         
      2770  -56.098814      0.43209284    -55.666721      0.029520714    371.42397      202.83538      3375         
      2780  -56.147628      0.4478978     -55.69973       0.029520714    385.00979     -774.45538      3375         
      2790  -55.975938      0.26335863    -55.712579      0.029520714    226.38122     -705.32881      3375         
      2800  -55.966896      0.24928891    -55.717607      0.029520714    214.28699     -161.35855      3375         
      2810  -56.09316       0.3607034     -55.732457      0.029520714    310.0581      -1217.4727      3375         
      2820  -56.093988      0.34658291    -55.747405      0.029520714    297.92023     -985.77548      3375         
      2830  -56.130307      0.35859901    -55.771708      0.029520714    308.24919      1435.5488      3375         
      2840  -56.061837      0.29146894    -55.770368      0.029520714    250.54465      1692.3513      3375         
      2850  -55.99018       0.24736465    -55.742816      0.029520714    212.63291      220.86667      3375         
      2860  -56.118876      0.35390502    -55.764971      0.029520714    304.21427     -132.86064      3375         
      2870  -56.111989      0.33579957    -55.776189      0.029520714    288.65095     -315.65632      3375         
      2880  -56.019056      0.24635962    -55.772696      0.029520714    211.76899     -489.20565      3375         
      2890  -56.143814      0.36085665    -55.782958      0.029520714    310.18984     -523.79181      3375         
      2900  -56.186549      0.39423402    -55.792315      0.029520714    338.88079     -1083.641       3375         
      2910  -56.110104      0.30879538    -55.801308      0.029520714    265.43833      223.39007      3375         
      2920  -56.061714      0.26356113    -55.798153      0.029520714    226.5553       1984.1047      3375         
      2930  -56.111276      0.33029929    -55.780977      0.029520714    283.92295      637.11223      3375         
      2940  -56.131039      0.34096836    -55.790071      0.029520714    293.094       -854.01871      3375         
      2950  -56.166003      0.36467261    -55.801331      0.029520714    313.47001     -462.55235      3375         
      2960  -56.138958      0.33530574    -55.803652      0.029520714    288.22646     -590.82218      3375         
      2970  -56.020693      0.21542834    -55.805264      0.029520714    185.18069     -428.75249      3375         
      2980  -56.021928      0.21878678    -55.803141      0.029520714    188.06758      266.34509      3375         
      2990  -56.157575      0.36103767    -55.796537      0.029520714    310.34544     -162.45185      3375         
      3000  -56.09888       0.29812746    -55.800752      0.029520714    256.26827      749.46562      3375         
      3010  -56.012008      0.23108982    -55.780919      0.029520714    198.64318      1568.8555      3375         
      3020  -56.157194      0.39161522    -55.765578      0.029520714    336.62968     -98.403612      3375         
      3030  -56.159943      0.39888573    -55.761057      0.029520714    342.87937     -970.19871      3375         
      3040  -55.9899        0.24433784    -55.745562      0.029520714    210.03109     -207.99573      3375         
      3050  -55.975656      0.24701676    -55.728639      0.029520714    212.33387     -650.61892      3375         
      3060  -56.112665      0.40711881    -55.705546      0.029520714    349.95646     -880.14292      3375         
      3070  -56.160596      0.49330859    -55.667288      0.029520714    424.04459     -208.73341      3375         
      3080  -56.090989      0.45274445    -55.638245      0.029520714    389.17594      525.61236      3375         
      3090  -55.981339      0.38675646    -55.594583      0.029520714    332.45313      1769.9512      3375         
      3100  -56.058795      0.53564929    -55.523146      0.029520714    460.44036      1152.686       3375         
      3110  -55.997499      0.49261535    -55.504883      0.029520714    423.44869     -1035.0468      3375         
      3120  -55.775981      0.2884346     -55.487546      0.029520714    247.93635     -523.15913      3375         
      3130  -55.800513      0.33152081    -55.468992      0.029520714    284.97296      227.51961      3375         
      3140  -56.016967      0.56230905    -55.454658      0.029520714    483.3569      -1264.2435      3375         
      3150  -55.952531      0.51797198    -55.434559      0.029520714    445.24507     -1092.0094      3375         
      3160  -55.87317       0.43984675    -55.433323      0.029520714    378.08917      877.46208      3375         
      3170  -55.826374      0.40538003    -55.420994      0.029520714    348.46182      1311.2467      3375         
      3180  -55.780546      0.39188486    -55.388662      0.029520714    336.86147      1016.8292      3375         
      3190  -55.993657      0.59408682    -55.39957       0.029520714    510.67285     -91.460067      3375         
      3200  -56.136849      0.72305531    -55.413794      0.029520714    621.53326     -1405.432       3375         
      3210  -55.891317      0.46804918    -55.423268      0.029520714    402.33178     -546.68234      3375         
      3220  -55.819822      0.37471078    -55.445111      0.029520714    322.09875     -150.09         3375         
      3230  -56.031158      0.5659457     -55.465213      0.029520714    486.48294     -691.94256      3375         
      3240  -55.927521      0.44854318    -55.478978      0.029520714    385.56456      98.782333      3375         
      3250  -55.865909      0.33877398    -55.527135      0.029520714    291.20773      1384.575       3375         
      3260  -55.980785      0.45291928    -55.527865      0.029520714    389.32623      1794.0459      3375         
      3270  -56.062684      0.53482343    -55.527861      0.029520714    459.73046      751.68361      3375         
      3280  -56.012941      0.42205146    -55.59089       0.029520714    362.79246     -1289.4563      3375         
      3290  -55.951069      0.33234951    -55.618719      0.029520714    285.6853      -1827.6879      3375         
      3300  -55.887988      0.25154531    -55.636443      0.029520714    216.22658     -219.00761      3375         
      3310  -56.008274      0.35157711    -55.656697      0.029520714    302.21321      2.4425084      3375         
      3320  -56.109948      0.43925958    -55.670688      0.029520714    377.58445     -985.42033      3375         
      3330  -56.066398      0.36637842    -55.70002       0.029520714    314.93631      639.11691      3375         
      3340  -56.134771      0.40161288    -55.733159      0.029520714    345.22361      2153.0264      3375         
      3350  -56.163026      0.47765853    -55.685367      0.029520714    410.59191      741.18784      3375         
      3360  -55.991934      0.26278284    -55.729152      0.029520714    225.88628     -1225.2722      3375         
      3370  -55.974377      0.21497621    -55.759401      0.029520714    184.79204     -1044.9288      3375         
      3380  -56.059661      0.31207486    -55.747586      0.029520714    268.25736     -39.523534      3375         
      3390  -56.076849      0.32442899    -55.75242       0.029520714    278.87687      291.31939      3375         
      3400  -56.121888      0.35449247    -55.767395      0.029520714    304.71923     -148.90132      3375         
      3410  -56.146587      0.38616517    -55.760421      0.029520714    331.94486      8.7991288      3375         
      3420  -56.01228       0.23673697    -55.775543      0.029520714    203.49743      1296.1728      3375         
      3430  -56.01788       0.2498964     -55.767983      0.029520714    214.80919      829.76983      3375         
      3440  -56.187783      0.42286126    -55.764922      0.029520714    363.48856     -1202.0862      3375         
      3450  -56.095254      0.31628714    -55.778967      0.029520714    271.8782      -1278.05        3375         
      3460  -56.039604      0.24901602    -55.790588      0.029520714    214.05242      93.345152      3375         
      3470  -56.160273      0.39368579    -55.766588      0.029520714    338.40953      63.263566      3375         
      3480  -56.127238      0.33963159    -55.787606      0.029520714    291.94493     -412.29575      3375         
      3490  -56.013418      0.22053249    -55.792885      0.029520714    189.56817      221.4512       3375         
      3500  -56.056427      0.28314963    -55.773278      0.029520714    243.39343      1344.0459      3375         
      3510  -56.103363      0.32620104    -55.777162      0.029520714    280.40012      1259.2715      3375         
      3520  -56.096817      0.35295521    -55.743862      0.029520714    303.39782     -566.98328      3375         
      3530  -56.111103      0.34891817    -55.762185      0.029520714    299.9276      -1560.9748      3375         
      3540  -56.088028      0.31587198    -55.772156      0.029520714    271.52133     -185.76025      3375         
      3550  -56.102427      0.35633953    -55.746088      0.029520714    306.30696      453.51382      3375         
      3560  -56.142572      0.39529305    -55.747279      0.029520714    339.79112     -767.85632      3375         
      3570  -56.070812      0.30796822    -55.762843      0.029520714    264.72731     -325.30788      3375         
      3580  -56.079803      0.34090165    -55.738902      0.029520714    293.03666      1633.6729      3375         
      3590  -56.155103      0.4390107     -55.716092      0.029520714    377.37051      1171.4977      3375         
      3600  -56.090495      0.37584611    -55.714649      0.029520714    323.07468     -1218.417       3375         
      3610  -56.038497      0.32701486    -55.711482      0.029520714    281.09967     -1524.3877      3375         
      3620  -56.030281      0.30484478    -55.725436      0.029520714    262.04243      339.56072      3375         
      3630  -55.886567      0.18580482    -55.700762      0.029520714    159.71651      1063.7272      3375         
      3640  -56.003066      0.34847274    -55.654594      0.029520714    299.54471     -326.27753      3375         
      3650  -56.125907      0.46755094    -55.658356      0.029520714    401.90349     -1024.7897      3375         
      3660  -56.051709      0.40786258    -55.643846      0.029520714    350.5958       723.59101      3375         
      3670  -55.896181      0.32284665    -55.573334      0.029520714    277.51671      2137.2393      3375         
      3680  -56.123675      0.58101841    -55.542656      0.029520714    499.43933     -334.04985      3375         
      3690  -56.050639      0.53898608    -55.511653      0.029520714    463.30864     -2213.5265      3375         
      3700  -55.947573      0.46878947    -55.478783      0.029520714    402.96813      123.42816      3375         
      3710  -55.906876      0.4629005     -55.443975      0.029520714    397.90601      925.16509      3375         
      3720  -56.002638      0.59453791    -55.4081        0.029520714    511.06061     -1137.1619      3375         
      3730  -55.868504      0.4706714     -55.397832      0.029520714    404.58582     -1211.6832      3375         
      3740  -55.918912      0.50557549    -55.413337      0.029520714    434.58914      909.9097       3375         
      3750  -55.844811      0.47404341    -55.370767      0.029520714    407.48438      1980.0321      3375         
      3760  -55.844663      0.51331801    -55.331345      0.029520714    441.24455      1156.8968      3375         
      3770  -55.739743      0.39577236    -55.343971      0.029520714    340.20314     -1064.1614      3375         
      3780  -55.838076      0.47910546    -55.358971      0.029520714    411.83569     -1359.728       3375         
      3790  -55.947425      0.58190561    -55.36552       0.029520714    500.20196      778.01654      3375         
      3800  -55.948171      0.58484886    -55.363322      0.029520714    502.73196     -358.93883      3375         
      3810  -55.847499      0.45714661    -55.390353      0.029520714    392.96001     -2012.3515      3375         
      3820  -55.943744      0.51701639    -55.426728      0.029520714    444.42365      540.02701      3375         
      3830  -55.927802      0.49203938    -55.435762      0.029520714    422.95359      2340.2844      3375         
      3840  -55.952552      0.50856486    -55.443988      0.029520714    437.15878      701.98556      3375         
      3850  -56.045572      0.54586232    -55.49971       0.029520714    469.21941     -1255.695       3375         
      3860  -56.139489      0.5881534     -55.551336      0.029520714    505.57252     -1438.9976      3375         
      3870  -55.947154      0.33441088    -55.612743      0.029520714    287.45724      356.44247      3375         
      3880  -55.961875      0.35878465    -55.60309       0.029520714    308.40876      1116.3871      3375         
      3890  -56.07111       0.43509958    -55.63601       0.029520714    374.00854     -1078.915       3375         
      3900  -56.009093      0.32634585    -55.682747      0.029520714    280.5246      -1014.5884      3375         
      3910  -56.032149      0.33443969    -55.697709      0.029520714    287.48201      2333.6515      3375         
      3920  -56.097916      0.4226395     -55.675277      0.029520714    363.29794      1721.7545      3375         
      3930  -56.079368      0.37746939    -55.701899      0.029520714    324.47003     -1521.8042      3375         
      3940  -56.027847      0.30883226    -55.719015      0.029520714    265.47003     -1305.0548      3375         
      3950  -56.052274      0.31799959    -55.734275      0.029520714    273.35021      166.40717      3375         
      3960  -55.995096      0.27005571    -55.72504       0.029520714    232.13799      255.23051      3375         
      3970  -56.051397      0.32356295    -55.727834      0.029520714    278.13244     -1056.8671      3375         
      3980  -56.146588      0.40180609    -55.744782      0.029520714    345.38969     -1273.6305      3375         
      3990  -56.159967      0.3739198     -55.786047      0.029520714    321.41883      1687.3774      3375         
      4000  -56.057865      0.35102226    -55.706843      0.029520714    301.73627      2885.8812      3375         
      4010  -56.114483      0.38712382    -55.727359      0.029520714    332.76891     -905.20735      3375         
      4020  -56.001094      0.25073715    -55.750357      0.029520714    215.53189     -2123.5735      3375         
      4030  -56.100295      0.34335473    -55.75694       0.029520714    295.14531      547.6821       3375         
      4040  -56.139993      0.38510207    -55.754891      0.029520714    331.03103      764.59473      3375         
      4050  -56.114255      0.37185933    -55.742396      0.029520714    319.64766     -927.74059      3375         
      4060  -56.096052      0.33813111    -55.757921      0.029520714    290.65512     -584.16295      3375         
      4070  -56.136927      0.35199106    -55.784936      0.029520714    302.56904      704.06552      3375         
      4080  -55.905703      0.1592176     -55.746485      0.029520714    136.86233      1736.5287      3375         
      4090  -56.071089      0.32541125    -55.745678      0.029520714    279.72122      200.78633      3375         
      4100  -56.123313      0.3629854     -55.760328      0.029520714    312.0197      -2510.006       3375         
      4110  -56.097673      0.33045246    -55.76722       0.029520714    284.05461     -785.03343      3375         
      4120  -56.05092       0.29181552    -55.759105      0.029520714    250.84257      1678.8838      3375         
      4130  -56.170214      0.4212345     -55.748979      0.029520714    362.09021     -197.8564       3375         
      4140  -56.039495      0.29717698    -55.742318      0.029520714    255.45124     -1140.1228      3375         
      4150  -56.126389      0.36392625    -55.762463      0.029520714    312.82844      802.96294      3375         
      4160  -56.075097      0.31732802    -55.757769      0.029520714    272.77293      1706.6256      3375         
      4170  -56.090686      0.39437232    -55.696314      0.029520714    338.99967      488.9978       3375         
      4180  -56.102105      0.37351043    -55.728595      0.029520714    321.06694     -1309.4739      3375         
      4190  -56.147652      0.41068199    -55.73697       0.029520714    353.01935     -1301.4502      3375         
      4200  -56.045628      0.32887474    -55.716753      0.029520714    282.69841      1016.5576      3375         
      4210  -56.011632      0.29614787    -55.715485      0.029520714    254.56663      530.3887       3375         
      4220  -55.94695       0.23560144    -55.711349      0.029520714    202.52134     -2069.6913      3375         
      4230  -56.123711      0.41176636    -55.711945      0.029520714    353.95147     -269.16784      3375         
      4240  -56.095974      0.37031846    -55.725656      0.029520714    318.32314      2399.1743      3375         
      4250  -56.05222       0.40596828    -55.646252      0.029520714    348.96748      631.25422      3375         
      4260  -56.016         0.35679882    -55.659201      0.029520714    306.70175     -1699.3023      3375         
      4270  -56.084254      0.40555237    -55.678702      0.029520714    348.60997     -619.53964      3375         
      4280  -55.964097      0.31767135    -55.646426      0.029520714    273.06806      1214.2182      3375         
      4290  -56.016004      0.41189515    -55.604108      0.029520714    354.06218      735.29129      3375         
      4300  -56.08543       0.48089623    -55.604534      0.029520714    413.37502     -1277.8958      3375         
      4310  -56.048596      0.4558348     -55.592761      0.029520714    391.83239     -1327.8079      3375         
      4320  -55.936694      0.35205653    -55.584637      0.029520714    302.62532      1855.4469      3375         
      4330  -55.962387      0.41101302    -55.551374      0.029520714    353.3039       1742.6301      3375         
      4340  -55.983285      0.45384576    -55.529439      0.029520714    390.12262     -1807.1026      3375         
      4350  -55.938781      0.40796121    -55.530819      0.029520714    350.68059     -1501.1631      3375         
      4360  -56.016344      0.47053796    -55.545806      0.029520714    404.47112      1264.0657      3375         
      4370  -56.012868      0.54108949    -55.471778      0.029520714    465.11672      554.26989      3375         
      4380  -55.965579      0.47240857    -55.493171      0.029520714    406.07908     -1365.6778      3375         
      4390  -55.950456      0.44229504    -55.508161      0.029520714    380.1937      -889.42502      3375         
      4400  -55.97835       0.49335679    -55.484993      0.029520714    424.08603      1152.7682      3375         
      4410  -55.90879       0.42553791    -55.483252      0.029520714    365.78939      2246.7594      3375         
      4420  -55.912053      0.46964226    -55.44241       0.029520714    403.70118     -245.17371      3375         
      4430  -55.910476      0.44042398    -55.470052      0.029520714    378.58535     -1958.6431      3375         
      4440  -56.119189      0.61757643    -55.501613      0.029520714    530.86435      394.79766      3375         
      4450  -55.971912      0.49709587    -55.474816      0.029520714    427.30011      1299.8152      3375         
      4460  -55.862972      0.35974505    -55.503227      0.029520714    309.23431     -1639.2794      3375         
      4470  -55.893474      0.36622712    -55.527247      0.029520714    314.80625     -1818.7436      3375         
      4480  -56.103372      0.53352521    -55.569847      0.029520714    458.61451      1568.3948      3375         
      4490  -55.996775      0.4428403     -55.553935      0.029520714    380.66241      2073.4663      3375         
      4500  -56.049291      0.44506021    -55.604231      0.029520714    382.57063     -688.42162      3375         
      4510  -56.129777      0.48070026    -55.649077      0.029520714    413.20656     -1532.7699      3375         
      4520  -56.060461      0.35581856    -55.704642      0.029520714    305.85913      451.88956      3375         
      4530  -55.938354      0.2267625     -55.711591      0.029520714    194.92345      1102.3134      3375         
      4540  -56.063628      0.34809546    -55.715532      0.029520714    299.22041     -949.31402      3375         
      4550  -56.116009      0.35291034    -55.763099      0.029520714    303.35924     -1377.9513      3375         
      4560  -56.163148      0.35630015    -55.806848      0.029520714    306.2731       1240.7295      3375         
      4570  -56.000561      0.23055392    -55.770007      0.029520714    198.18252      2302.1528      3375         
      4580  -56.092188      0.29873545    -55.793453      0.029520714    256.79089     -693.40708      3375         
      4590  -56.085966      0.2709274     -55.815039      0.029520714    232.88728     -2077.8746      3375         
      4600  -56.142891      0.31174285    -55.831148      0.029520714    267.97196      237.21146      3375         
      4610  -56.097441      0.27563019    -55.821811      0.029520714    236.92977      985.21526      3375         
      4620  -56.205385      0.38154957    -55.823836      0.029520714    327.97732     -981.72422      3375         
      4630  -56.153087      0.31457218    -55.838515      0.029520714    270.40404     -1205.6792      3375         
      4640  -56.185291      0.32139975    -55.863891      0.029520714    276.27296      1062.6792      3375         
      4650  -56.154804      0.31506504    -55.839739      0.029520714    270.82769      1838.8706      3375         
      4660  -56.117394      0.29554057    -55.821853      0.029520714    254.04459      189.55198      3375         
      4670  -56.000068      0.16261375    -55.837454      0.029520714    139.78164     -1361.7622      3375         
      4680  -56.161391      0.30936113    -55.85203       0.029520714    265.92465     -684.35592      3375         
      4690  -56.156375      0.31449755    -55.841877      0.029520714    270.33988      1267.7781      3375         
      4700  -56.092587      0.27242116    -55.820166      0.029520714    234.17132      2.8763833      3375         
      4710  -56.043947      0.21248288    -55.831464      0.029520714    182.64879     -1799.95        3375         
      4720  -56.155852      0.31253346    -55.843318      0.029520714    268.65156      253.13815      3375         
      4730  -56.055689      0.23631028    -55.819378      0.029520714    203.13065      1878.5652      3375         
      4740  -56.11213       0.31868044    -55.79345       0.029520714    273.93546      292.9651       3375         
      4750  -56.118563      0.32794295    -55.79062       0.029520714    281.89746     -1378.3002      3375         
      4760  -56.223099      0.43503364    -55.788066      0.029520714    373.95185     -1113.929       3375         
      4770  -56.129619      0.33833848    -55.79128       0.029520714    290.83338      908.43792      3375         
      4780  -56.0578        0.32019959    -55.7376        0.029520714    275.24131      1169.4705      3375         
      4790  -56.040573      0.30466688    -55.735906      0.029520714    261.8895      -1266.3662      3375         
      4800  -56.149411      0.40054731    -55.748864      0.029520714    344.30765     -801.76148      3375         
      4810  -56.077431      0.36662616    -55.710805      0.029520714    315.14926      1978.9744      3375         
      4820  -56.018019      0.34442233    -55.673597      0.029520714    296.06301      1036.3506      3375         
      4830  -56.023847      0.35121092    -55.672636      0.029520714    301.89844     -1593.7533      3375         
      4840  -56.060853      0.40156922    -55.659284      0.029520714    345.18608     -816.54376      3375         
      4850  -56.019675      0.37039306    -55.649282      0.029520714    318.38727      867.44838      3375         
      4860  -55.975024      0.36378708    -55.611237      0.029520714    312.70881      502.35277      3375         
      4870  -55.995356      0.40307387    -55.592282      0.029520714    346.47947     -1328.2276      3375         
      4880  -56.025951      0.44200098    -55.58395       0.029520714    379.94093     -1710.5094      3375         
      4890  -56.069916      0.46849268    -55.601423      0.029520714    402.71301      1322.5214      3375         
      4900  -55.986758      0.47872044    -55.508037      0.029520714    411.50472      2639.717       3375         
      4910  -55.911592      0.40146202    -55.51013       0.029520714    345.09393     -805.08831      3375         
      4920  -55.877924      0.3610565     -55.516867      0.029520714    310.36163     -1413.0794      3375         
      4930  -56.049686      0.55392769    -55.495758      0.029520714    476.15234      1410.9621      3375         
      4940  -56.022793      0.5455497     -55.477243      0.029520714    468.95068      447.74883      3375         
      4950  -55.94857       0.48150313    -55.467067      0.029520714    413.8967      -1965.0995      3375         
      4960  -56.00781       0.53294547    -55.474865      0.029520714    458.11617     -1185.9063      3375         
      4970  -56.046111      0.53758992    -55.508521      0.029520714    462.10851      997.05818      3375         
      4980  -55.811961      0.35213832    -55.459822      0.029520714    302.69562      2165.9442      3375         
      4990  -55.928618      0.4550141     -55.473604      0.029520714    391.12692      154.31743      3375         
      5000  -55.947068      0.44246144    -55.504607      0.029520714    380.33674     -2289.0453      3375         
      5010  -56.044866      0.50597906    -55.538887      0.029520714    434.93604      52.903428      3375         
      5020  -55.929328      0.37448179    -55.554846      0.029520714    321.90191      1652.5422      3375         
      5030  -55.948624      0.36217573    -55.586448      0.029520714    311.32371     -1074.8398      3375         
      5040  -55.939201      0.31303953    -55.626161      0.029520714    269.08657     -1770.0617      3375         
      5050  -56.140204      0.43898213    -55.701222      0.029520714    377.34595      760.07204      3375         
      5060  -56.053357      0.31635398    -55.737003      0.029520714    271.93566      2043.9085      3375         
      5070  -56.0686        0.35150281    -55.717097      0.029520714    302.14935      684.10178      3375         
      5080  -56.10597       0.32071775    -55.785252      0.029520714    275.68672     -975.249        3375         
      5090  -56.225602      0.39849098    -55.827111      0.029520714    342.54004     -934.78906      3375         
      5100  -56.155202      0.31972727    -55.835475      0.029520714    274.83531      694.15641      3375         
      5110  -56.147303      0.29517242    -55.852131      0.029520714    253.72813      5.1884433      3375         
      5120  -56.090031      0.22177137    -55.868259      0.029520714    190.63311     -1947.8733      3375         
      5130  -56.219237      0.33241827    -55.886818      0.029520714    285.74441     -149.0235       3375         
      5140  -56.21067       0.30156124    -55.909108      0.029520714    259.21992      2253.2564      3375         
      5150  -56.095908      0.23205311    -55.863854      0.029520714    199.47122      780.06003      3375         
      5160  -56.073013      0.18845257    -55.88456       0.029520714    161.9925      -1143.0873      3375         
      5170  -56.171106      0.25891509    -55.912191      0.029520714    222.56159     -603.27337      3375         
      5180  -56.054921      0.15955321    -55.895368      0.029520714    137.15081      503.7237       3375         
      5190  -56.107416      0.22870099    -55.878715      0.029520714    196.58976      166.82252      3375         
      5200  -56.199047      0.30807477    -55.890972      0.029520714    264.8189      -908.40354      3375         
      5210  -56.213229      0.32852284    -55.884706      0.029520714    282.39592     -382.81154      3375         
      5220  -56.157536      0.27801839    -55.879518      0.029520714    238.98265      1785.1434      3375         
      5230  -56.178634      0.32169241    -55.856941      0.029520714    276.52453      940.24759      3375         
      5240  -56.121796      0.2727076     -55.849089      0.029520714    234.41754     -1583.1485      3375         
      5250  -56.11668       0.26298467    -55.853695      0.029520714    226.05978     -1043.9182      3375         
      5260  -56.164499      0.31052591    -55.853973      0.029520714    266.92589      741.53101      3375         
      5270  -56.165452      0.36005204    -55.8054        0.029520714    309.4982       209.96268      3375         
      5280  -56.085565      0.27354365    -55.812022      0.029520714    235.1362      -903.20604      3375         
      5290  -56.09887       0.28324072    -55.815629      0.029520714    243.47173     -253.99145      3375         
      5300  -56.125616      0.34150865    -55.784107      0.029520714    293.55843      1401.0001      3375         
      5310  -56.071648      0.31224266    -55.759405      0.029520714    268.40159      1303.44        3375         
      5320  -55.965654      0.23585688    -55.729797      0.029520714    202.74092     -1000.4651      3375         
      5330  -56.039378      0.3076514     -55.731727      0.029520714    264.45498     -1489.3281      3375         
      5340  -56.183968      0.45506265    -55.728905      0.029520714    391.16866      971.19766      3375         
      5350  -56.077811      0.41111006    -55.6667        0.029520714    353.38731      1130.4951      3375         
      5360  -55.950861      0.28504222    -55.665818      0.029520714    245.02029     -1614.2006      3375         
      5370  -56.017979      0.35264197    -55.665337      0.029520714    303.12856     -1265.4724      3375         
      5380  -56.087491      0.42863679    -55.658854      0.029520714    368.45317      1583.8591      3375         
      5390  -56.004172      0.40204135    -55.602131      0.029520714    345.59192      1542.3538      3375         
      5400  -56.020967      0.41954805    -55.601419      0.029520714    360.64056     -1251.5493      3375         
      5410  -56.055182      0.45257577    -55.602606      0.029520714    389.03094     -1706.6208      3375         
      5420  -56.036293      0.4196921     -55.616601      0.029520714    360.76438      1136.3383      3375         
      5430  -55.93176       0.34768041    -55.58408       0.029520714    298.86364      1843.2171      3375         
      5440  -55.968773      0.40679629    -55.561976      0.029520714    349.67923     -1151.1389      3375         
      5450  -56.001034      0.41497332    -55.586061      0.029520714    356.70814     -1845.9834      3375         
      5460  -56.142837      0.53360669    -55.609231      0.029520714    458.68455      889.63464      3375         
      5470  -55.957517      0.39588134    -55.561635      0.029520714    340.29681      2246.719       3375         
      5480  -55.973244      0.4011726     -55.572072      0.029520714    344.84515     -473.88208      3375         
      5490  -55.92226       0.33062264    -55.591637      0.029520714    284.20089     -2138.6626      3375         
      5500  -56.029328      0.41684714    -55.612481      0.029520714    358.31887      603.50756      3375         
      5510  -55.927275      0.33496631    -55.592309      0.029520714    287.93468      1598.2312      3375         
      5520  -56.050391      0.45693667    -55.593454      0.029520714    392.77955     -1141.5724      3375         
      5530  -55.991283      0.37714094    -55.614142      0.029520714    324.1877      -2028.5046      3375         
      5540  -56.095602      0.45006241    -55.64554       0.029520714    386.87048      458.56699      3375         
      5550  -56.107119      0.45859887    -55.648521      0.029520714    394.20836      2017.4857      3375         
      5560  -56.047021      0.41298082    -55.63404       0.029520714    354.99541      754.24944      3375         
      5570  -55.894444      0.23236382    -55.66208       0.029520714    199.73831     -1054.2762      3375         
      5580  -56.167551      0.46623444    -55.701317      0.029520714    400.77185     -411.20262      3375         
      5590  -56.169256      0.45441353    -55.714842      0.029520714    390.61067      1308.0274      3375         
      5600  -56.057028      0.32413624    -55.732892      0.029520714    278.62523     -284.28936      3375         
      5610  -55.969517      0.19837859    -55.771139      0.029520714    170.52484     -2242.8784      3375         
      5620  -56.145969      0.33674289    -55.809226      0.029520714    289.46182     -103.62753      3375         
      5630  -56.039308      0.21721196    -55.822096      0.029520714    186.71387      2096.1331      3375         
      5640  -56.070982      0.25070946    -55.820273      0.029520714    215.50809      581.50455      3375         
      5650  -56.097305      0.25100934    -55.846295      0.029520714    215.76586     -1263.9465      3375         
      5660  -56.186083      0.30952755    -55.876555      0.029520714    266.0677      -706.75253      3375         
      5670  -56.126356      0.22205444    -55.904302      0.029520714    190.87643      845.20203      3375         
      5680  -56.167598      0.28675219    -55.880846      0.029520714    246.49017      513.48293      3375         
      5690  -56.143587      0.24075389    -55.902833      0.029520714    206.95035     -1309.0683      3375         
      5700  -56.215346      0.28108553    -55.93426       0.029520714    241.61914     -631.57295      3375         
      5710  -56.219959      0.29636608    -55.923593      0.029520714    254.7542       2021.0328      3375         
      5720  -56.214388      0.31466066    -55.899728      0.029520714    270.48009      1165.3247      3375         
      5730  -56.150233      0.23115474    -55.919078      0.029520714    198.69899     -1417.334       3375         
      5740  -56.161064      0.23374052    -55.927323      0.029520714    200.9217      -918.94781      3375         
      5750  -56.141112      0.20709233    -55.93402       0.029520714    178.01511      762.09646      3375         
      5760  -56.124588      0.21209714    -55.912491      0.029520714    182.31721      340.10774      3375         
      5770  -56.12612       0.21335202    -55.912768      0.029520714    183.3959      -1470.8899      3375         
      5780  -56.193511      0.27016648    -55.923345      0.029520714    232.23321     -1193.8551      3375         
      5790  -56.207591      0.26837003    -55.939221      0.029520714    230.68899      1703.5485      3375         
      5800  -56.126821      0.25306754    -55.873754      0.029520714    217.53507      2224.886       3375         
      5810  -56.106958      0.22485782    -55.8821        0.029520714    193.2862      -944.03922      3375         
      5820  -56.109439      0.2164732     -55.892966      0.029520714    186.07884     -1611.9766      3375         
      5830  -56.178757      0.29030901    -55.888448      0.029520714    249.54759      764.80775      3375         
      5840  -56.145443      0.28353454    -55.861908      0.029520714    243.72429      785.76859      3375         
      5850  -56.157869      0.31157727    -55.846292      0.029520714    267.82963     -1246.6507      3375         
      5860  -56.122638      0.27128852    -55.85135       0.029520714    233.19771     -1039.805       3375         
      5870  -56.202438      0.33634617    -55.866092      0.029520714    289.1208       1146.8127      3375         
      5880  -56.104016      0.29312254    -55.810894      0.029520714    251.96607      2094.148       3375         
      5890  -56.09459       0.29422066    -55.800369      0.029520714    252.91001     -353.46105      3375         
      5900  -56.04199       0.23365985    -55.808331      0.029520714    200.85237     -2554.6804      3375         
      5910  -56.236385      0.42640442    -55.809981      0.029520714    366.53424     -122.92528      3375         
      5920  -56.083864      0.30312136    -55.780743      0.029520714    260.56099      1879.1841      3375         
      5930  -56.02673       0.2662458     -55.760485      0.029520714    228.86301     -640.40209      3375         
      5940  -56.01825       0.25499211    -55.763258      0.029520714    219.18942     -1448.3445      3375         
      5950  -56.20296       0.42650879    -55.776451      0.029520714    366.62395      1088.2854      3375         
      5960  -55.994615      0.26121665    -55.733399      0.029520714    224.54         1808.4461      3375         
      5970  -56.050646      0.35950471    -55.691141      0.029520714    309.02772     -144.24342      3375         
      5980  -56.015456      0.30367506    -55.711781      0.029520714    261.03695     -1697.8123      3375         
      5990  -56.115505      0.40064392    -55.714861      0.029520714    344.39069     -423.01562      3375         
      6000  -56.050262      0.37322693    -55.677035      0.029520714    320.82324      1927.4329      3375         
      6010  -56.124808      0.45774067    -55.667067      0.029520714    393.47066     -200.69012      3375         
      6020  -55.925887      0.25967411    -55.666212      0.029520714    223.21404     -2869.1296      3375         
      6030  -56.216083      0.5387024     -55.67738       0.029520714    463.0648       168.99797      3375         
      6040  -56.117469      0.44678311    -55.670686      0.029520714    384.05162      2769.2835      3375         
      6050  -56.022772      0.41724692    -55.605526      0.029520714    358.66252      309.61681      3375         
      6060  -55.943805      0.30538853    -55.638417      0.029520714    262.50983     -1694.4964      3375         
      6070  -56.103296      0.43734317    -55.665953      0.029520714    375.93711      3.0144412      3375         
      6080  -55.869127      0.23551055    -55.633617      0.029520714    202.44321      1582.401       3375         
      6090  -55.998641      0.38201183    -55.616629      0.029520714    328.37469     -104.60204      3375         
      6100  -55.980556      0.34746153    -55.633095      0.029520714    298.67549     -2350.7726      3375         
      6110  -56.050346      0.40971172    -55.640634      0.029520714    352.18531     -942.73057      3375         
      6120  -55.963883      0.32085991    -55.643023      0.029520714    275.80892      2712.405       3375         
      6130  -56.052736      0.44840219    -55.604334      0.029520714    385.44337      1482.4896      3375         
      6140  -55.96865       0.35011486    -55.618535      0.029520714    300.95627     -1924.5761      3375         
      6150  -56.100527      0.46438099    -55.636146      0.029520714    399.17863     -790.00651      3375         
      6160  -56.099725      0.45126162    -55.648463      0.029520714    387.90131      1448.6954      3375         
      6170  -56.043963      0.43908332    -55.60488       0.029520714    377.43293     -38.536143      3375         
      6180  -55.975736      0.33277233    -55.642963      0.029520714    286.04875     -2041.2324      3375         
      6190  -56.073589      0.40414088    -55.669448      0.029520714    347.39665     -916.96815      3375         
      6200  -56.102624      0.41368102    -55.688943      0.029520714    355.59729      2055.1842      3375         
      6210  -56.035511      0.35168875    -55.683822      0.029520714    302.30917      2193.0638      3375         
      6220  -55.95924       0.27135497    -55.687885      0.029520714    233.25482     -845.35386      3375         
      6230  -56.035332      0.30488512    -55.730447      0.029520714    262.07711     -1481.4752      3375         
      6240  -56.118912      0.33790729    -55.781005      0.029520714    290.46273      840.33068      3375         
      6250  -56.050936      0.27808705    -55.772849      0.029520714    239.04167      602.67788      3375         
      6260  -56.04066       0.22631971    -55.81434       0.029520714    194.54283     -1827.8277      3375         
      6270  -56.126965      0.27692009    -55.850045      0.029520714    238.03856     -1187.1018      3375         
      6280  -56.225832      0.33864303    -55.887189      0.029520714    291.09516      1496.0913      3375         
      6290  -56.144714      0.27576699    -55.868947      0.029520714    237.04736      1669.4189      3375         
      6300  -56.15588       0.26775457    -55.888126      0.029520714    230.15995     -595.16257      3375         
      6310  -56.20602       0.29055336    -55.915467      0.029520714    249.75763     -1311.747       3375         
      6320  -56.189063      0.24631543    -55.942748      0.029520714    211.73101      541.27645      3375         
      6330  -56.143856      0.21451377    -55.929342      0.029520714    184.39453      1016.189       3375         
      6340  -56.176846      0.24812857    -55.928718      0.029520714    213.28957     -971.07248      3375         
      6350  -56.157548      0.20750704    -55.950041      0.029520714    178.37159     -1295.0285      3375         
      6360  -56.240143      0.27784726    -55.962296      0.029520714    238.83555      947.16006      3375         
[...]
     48420  -56.142857      0.33309303    -55.809764      0.029520714    286.32443      127.7728       3375         
     48430  -56.102288      0.28396558    -55.818322      0.029520714    244.09482      8.8321362      3375         
     48440  -56.131173      0.31017891    -55.820995      0.029520714    266.62761     -645.57407      3375         
     48450  -56.184533      0.35664139    -55.827892      0.029520714    306.56643     -195.32701      3375         
     48460  -56.075708      0.23434839    -55.841359      0.029520714    201.44423      623.47852      3375         
     48470  -56.064193      0.23105651    -55.833136      0.029520714    198.61455      331.06515      3375         
     48480  -56.212899      0.37473037    -55.838168      0.029520714    322.11559     -39.602163      3375         
     48490  -56.189078      0.33718152    -55.851896      0.029520714    289.83886     -36.111056      3375         
     48500  -55.997656      0.15222459    -55.845432      0.029520714    130.85119      106.23166      3375         
     48510  -56.078215      0.2369232     -55.841292      0.029520714    203.65751      206.23608      3375         
     48520  -56.200719      0.35490438    -55.845815      0.029520714    305.07331     -769.32071      3375         
     48530  -56.129487      0.28242721    -55.847059      0.029520714    242.77244     -1146.9029      3375         
     48540  -56.192207      0.33604709    -55.85616       0.029520714    288.86371      510.88833      3375         
     48550  -56.189122      0.34126088    -55.847862      0.029520714    293.34545      1072.2637      3375         
     48560  -56.052834      0.23639093    -55.816443      0.029520714    203.19998      66.117895      3375         
     48570  -56.06012       0.23460704    -55.825513      0.029520714    201.66656     -284.07887      3375         
     48580  -56.143059      0.32393914    -55.81912       0.029520714    278.45581      300.2996       3375         
     48590  -56.131783      0.34378923    -55.787994      0.029520714    295.51881      383.14718      3375         
     48600  -56.124906      0.34770909    -55.777197      0.029520714    298.88829     -334.32495      3375         
     48610  -56.036355      0.27562819    -55.760727      0.029520714    236.92805     -949.81976      3375         
     48620  -56.085637      0.34688217    -55.738755      0.029520714    298.17747     -177.19736      3375         
     48630  -56.10346       0.39091858    -55.712542      0.029520714    336.03086      1043.5076      3375         
     48640  -56.001579      0.33567918    -55.665899      0.029520714    288.54746      271.03828      3375         
     48650  -56.030097      0.38324451    -55.646853      0.029520714    329.43428     -899.50905      3375         
     48660  -56.067466      0.43313607    -55.63433       0.029520714    372.32072     -121.97264      3375         
     48670  -55.902453      0.29985301    -55.6026        0.029520714    257.75154      789.50491      3375         
     48680  -56.051943      0.48755741    -55.564386      0.029520714    419.10092      45.239883      3375         
     48690  -56.188508      0.6430881     -55.54542       0.029520714    552.79401     -883.09473      3375         
     48700  -55.863764      0.33119906    -55.532565      0.029520714    284.69638     -481.46252      3375         
     48710  -55.693456      0.16122181    -55.532234      0.029520714    138.58513      900.11408      3375         
     48720  -56.101275      0.58972167    -55.511553      0.029520714    506.9206       831.91304      3375         
     48730  -56.135013      0.64440068    -55.490612      0.029520714    553.92229     -425.17086      3375         
     48740  -55.879159      0.37676295    -55.502396      0.029520714    323.86278     -392.27978      3375         
     48750  -55.868896      0.36832345    -55.500572      0.029520714    316.60825      844.50854      3375         
     48760  -55.962167      0.47730153    -55.484865      0.029520714    410.28503      233.12839      3375         
     48770  -55.982056      0.47925738    -55.502798      0.029520714    411.96627     -1647.8483      3375         
     48780  -56.069679      0.54936416    -55.520315      0.029520714    472.22956     -1023.6821      3375         
     48790  -56.048017      0.50726726    -55.54075       0.029520714    436.04337      1023.8821      3375         
     48800  -55.908782      0.3708746     -55.537907      0.029520714    318.8012       1219.0332      3375         
     48810  -55.95551       0.41522793    -55.540282      0.029520714    356.92701     -502.79312      3375         
     48820  -56.017791      0.44485846    -55.572933      0.029520714    382.3972      -965.38093      3375         
     48830  -56.010161      0.39578667    -55.614374      0.029520714    340.21544      1078.788       3375         
     48840  -55.940389      0.35024974    -55.590139      0.029520714    301.07222      1292.5472      3375         
     48850  -55.996051      0.38122808    -55.614823      0.029520714    327.70098     -1087.3143      3375         
     48860  -56.03814       0.38589749    -55.652243      0.029520714    331.71477     -1361.2016      3375         
     48870  -56.078426      0.40674911    -55.671677      0.029520714    349.63868      517.11556      3375         
     48880  -56.067751      0.3930782     -55.674673      0.029520714    337.88725      916.63977      3375         
     48890  -56.034941      0.33297186    -55.701969      0.029520714    286.22026     -684.00877      3375         
     48900  -56.104558      0.37572031    -55.728837      0.029520714    322.96653     -419.73445      3375         
     48910  -56.079405      0.32859743    -55.750808      0.029520714    282.46004      1065.0205      3375         
     48920  -56.026715      0.28528306    -55.741432      0.029520714    245.22731      662.20783      3375         
     48930  -56.176544      0.42111863    -55.755425      0.029520714    361.99062     -1088.0565      3375         
     48940  -56.154962      0.37239725    -55.782565      0.029520714    320.11006     -1421.4715      3375         
     48950  -56.011995      0.21073131    -55.801263      0.029520714    181.14315      257.49158      3375         
     48960  -56.048826      0.25389851    -55.794927      0.029520714    218.24937      1345.7739      3375         
     48970  -56.14323       0.35215277    -55.791078      0.029520714    302.70804      496.17284      3375         
     48980  -56.107711      0.31175005    -55.795961      0.029520714    267.97815     -231.23649      3375         
     48990  -56.115398      0.31104152    -55.804357      0.029520714    267.3691       411.49826      3375         
     49000  -56.080247      0.28355089    -55.796696      0.029520714    243.73835      158.40537      3375         
     49010  -56.085665      0.28326003    -55.802405      0.029520714    243.48833     -1332.9476      3375         
     49020  -56.091965      0.28465846    -55.807307      0.029520714    244.69041     -1314.752       3375         
     49030  -56.153821      0.33452596    -55.819295      0.029520714    287.55616      528.64284      3375         
     49040  -56.136782      0.33720245    -55.79958       0.029520714    289.85685      1418.9719      3375         
     49050  -56.115984      0.3249811     -55.791003      0.029520714    279.35147      211.6507       3375         
     49060  -56.096835      0.30173207    -55.795103      0.029520714    259.36676     -807.67456      3375         
     49070  -56.16362       0.3604599     -55.80316       0.029520714    309.8488      -52.395957      3375         
     49080  -56.070309      0.2712413     -55.799068      0.029520714    233.15711      736.9195       3375         
     49090  -56.016966      0.24257544    -55.77439       0.029520714    208.51614     -36.173056      3375         
     49100  -56.12803       0.34409401    -55.783936      0.029520714    295.78079     -893.13584      3375         
     49110  -56.152036      0.36070054    -55.791336      0.029520714    310.05565      143.11022      3375         
     49120  -56.005001      0.23990194    -55.765099      0.029520714    206.21802      928.63589      3375         
     49130  -56.159058      0.39399323    -55.765065      0.029520714    338.6738      -185.49874      3375         
     49140  -56.173933      0.40753365    -55.766399      0.029520714    350.31305     -683.35828      3375         
     49150  -56.004832      0.24212148    -55.76271       0.029520714    208.12592      360.34777      3375         
     49160  -55.939286      0.18223407    -55.757052      0.029520714    156.64712      934.83091      3375         
     49170  -56.129473      0.38999889    -55.739475      0.029520714    335.2403      -520.31449      3375         
     49180  -56.156956      0.41594804    -55.741008      0.029520714    357.54601     -1869.8657      3375         
     49190  -56.121436      0.36572568    -55.755711      0.029520714    314.37522     -279.91264      3375         
     49200  -56.054284      0.31430808    -55.739976      0.029520714    270.17702      1577.7494      3375         
     49210  -56.051696      0.34895866    -55.702738      0.029520714    299.96241      638.40231      3375         
     49220  -55.960563      0.24159111    -55.718972      0.029520714    207.67001     -586.65602      3375         
     49230  -56.144758      0.42912109    -55.715637      0.029520714    368.86947      308.20485      3375         
     49240  -56.129507      0.43471735    -55.69479       0.029520714    373.67998      1147.3202      3375         
     49250  -56.019806      0.33463358    -55.685173      0.029520714    287.64867     -353.84         3375         
     49260  -55.970039      0.28217016    -55.687868      0.029520714    242.55148     -1862.1667      3375         
     49270  -56.15289       0.46154936    -55.691341      0.029520714    396.74458     -706.14984      3375         
     49280  -56.078864      0.3924572     -55.686407      0.029520714    337.35345      1371.6328      3375         
     49290  -55.965183      0.31413601    -55.651047      0.029520714    270.0291       864.48145      3375         
     49300  -55.963041      0.30228872    -55.660753      0.029520714    259.84525     -1041.3797      3375         
     49310  -56.123447      0.45636883    -55.667078      0.029520714    392.29143     -314.98095      3375         
     49320  -56.076903      0.43070998    -55.646193      0.029520714    370.23527      1207.184       3375         
     49330  -55.976577      0.35153946    -55.625038      0.029520714    302.18085      11.508795      3375         
     49340  -55.973767      0.35683341    -55.616934      0.029520714    306.73148     -1259.6288      3375         
     49350  -56.094789      0.483428      -55.611361      0.029520714    415.55131     -304.07323      3375         
     49360  -55.951303      0.34702533    -55.604277      0.029520714    298.30053      964.03099      3375         
     49370  -55.972224      0.41096083    -55.561264      0.029520714    353.25903      506.67986      3375         
     49380  -56.115684      0.573881      -55.541803      0.029520714    493.30407     -454.34144      3375         
     49390  -56.085855      0.55191255    -55.533942      0.029520714    474.42015     -81.335018      3375         
     49400  -55.818256      0.32934671    -55.488909      0.029520714    283.10411      1415.7882      3375         
     49410  -55.857722      0.39657278    -55.46115       0.029520714    340.89117      340.32145      3375         
     49420  -55.934565      0.48115932    -55.453406      0.029520714    413.60116     -2572.8776      3375         
     49430  -55.986446      0.55722526    -55.429221      0.029520714    478.98691     -1640.0527      3375         
     49440  -55.961677      0.53948052    -55.422197      0.029520714    463.73366      1455.3101      3375         
     49450  -55.905298      0.52394228    -55.381355      0.029520714    450.3771       1182.568       3375         
     49460  -55.810026      0.4601686     -55.349858      0.029520714    395.55769     -182.95197      3375         
     49470  -55.863092      0.50143767    -55.361654      0.029520714    431.03229      206.66976      3375         
     49480  -55.93084       0.57515083    -55.355689      0.029520714    494.39561      1148.4573      3375         
     49490  -55.88831       0.56154367    -55.326766      0.029520714    482.69899      432.06994      3375         
     49500  -55.810379      0.45800561    -55.352374      0.029520714    393.6984      -1759.0672      3375         
     49510  -55.944788      0.57344789    -55.37134       0.029520714    492.93177     -2137.4923      3375         
     49520  -56.154452      0.75266759    -55.401784      0.029520714    646.98777      760.5924       3375         
     49530  -55.868511      0.45293374    -55.415577      0.029520714    389.33866      2003.445       3375         
     49540  -55.730802      0.3026685     -55.428133      0.029520714    260.17171     -182.04619      3375         
     49550  -56.039961      0.56758375    -55.472377      0.029520714    487.89099     -399.74925      3375         
     49560  -56.098332      0.56596831    -55.532364      0.029520714    486.50238      723.90353      3375         
     49570  -55.857284      0.31275184    -55.544532      0.029520714    268.83928     -83.870174      3375         
     49580  -55.990335      0.41294864    -55.577387      0.029520714    354.96774     -1101.0892      3375         
     49590  -56.124383      0.49494328    -55.62944       0.029520714    425.44976     -908.97451      3375         
     49600  -55.941854      0.29061046    -55.651243      0.029520714    249.80671      156.51095      3375         
     49610  -55.934232      0.27003624    -55.664196      0.029520714    232.12126      1238.0946      3375         
     49620  -56.110649      0.42648574    -55.684163      0.029520714    366.60414      644.6899       3375         
     49630  -56.118909      0.42218389    -55.696725      0.029520714    362.9063      -118.17586      3375         
     49640  -56.127299      0.40593981    -55.721359      0.029520714    348.943        346.68826      3375         
     49650  -56.048257      0.31819202    -55.730065      0.029520714    273.51562     -90.637064      3375         
     49660  -55.968163      0.22782198    -55.740341      0.029520714    195.83417     -1230.9539      3375         
     49670  -56.032278      0.27890585    -55.753372      0.029520714    239.74551     -866.49088      3375         
     49680  -56.226733      0.45635905    -55.770374      0.029520714    392.28303      59.570556      3375         
     49690  -56.166541      0.39316875    -55.773372      0.029520714    337.96509      819.74759      3375         
     49700  -56.024368      0.24648204    -55.777886      0.029520714    211.87423      961.99031      3375         
     49710  -56.07748       0.30369698    -55.773783      0.029520714    261.05578     -147.88459      3375         
     49720  -56.127725      0.34583115    -55.781894      0.029520714    297.27403     -278.42625      3375         
     49730  -56.078615      0.28853414    -55.790081      0.029520714    248.02191      339.91117      3375         
     49740  -56.048802      0.26428803    -55.784514      0.029520714    227.18013     -497.501        3375         
     49750  -56.092007      0.29881524    -55.793192      0.029520714    256.85948     -862.23061      3375         
     49760  -56.153464      0.34791394    -55.80555       0.029520714    299.06437      426.85729      3375         
     49770  -56.124626      0.3359734     -55.788653      0.029520714    288.80037      660.16352      3375         
     49780  -56.091937      0.30640774    -55.785529      0.029520714    263.38594      64.586715      3375         
     49790  -56.086361      0.29352585    -55.792835      0.029520714    252.31275     -53.236976      3375         
     49800  -56.090425      0.2994734     -55.790952      0.029520714    257.42522     -6.2095431      3375         
     49810  -56.072772      0.28555295    -55.787219      0.029520714    245.4593       30.680953      3375         
     49820  -56.095053      0.3110637     -55.78399       0.029520714    267.38817     -347.18443      3375         
     49830  -56.174436      0.39329174    -55.781144      0.029520714    338.07081     -820.93516      3375         
     49840  -56.159361      0.37507101    -55.78429       0.029520714    322.4084      -13.266293      3375         
     49850  -56.020941      0.24729678    -55.773644      0.029520714    212.57457      829.6219       3375         
     49860  -56.021564      0.26280624    -55.758757      0.029520714    225.9064       313.9423       3375         
     49870  -56.112931      0.35823143    -55.7547        0.029520714    307.93322      30.290963      3375         
     49880  -56.144791      0.40020649    -55.744585      0.029520714    344.01468      332.59868      3375         
     49890  -56.125457      0.39964971    -55.725807      0.029520714    343.53608      254.52166      3375         
     49900  -55.995092      0.28368335    -55.711409      0.029520714    243.85221     -479.46944      3375         
     49910  -55.913313      0.20415604    -55.709157      0.029520714    175.4911      -956.81513      3375         
     49920  -56.102568      0.40435436    -55.698214      0.029520714    347.58016     -436.26064      3375         
     49930  -56.166879      0.50153039    -55.665349      0.029520714    431.112        533.95799      3375         
     49940  -55.987868      0.35320339    -55.634665      0.029520714    303.61115      620.66163      3375         
     49950  -55.94414       0.32876414    -55.615376      0.029520714    282.60334      53.443149      3375         
     49960  -56.112662      0.52598928    -55.586672      0.029520714    452.13668      52.401717      3375         
     49970  -56.060475      0.50456455    -55.555911      0.029520714    433.72014      147.13242      3375         
     49980  -55.833585      0.30420506    -55.52938       0.029520714    261.49253     -223.61734      3375         
     49990  -55.908898      0.40120091    -55.507698      0.029520714    344.86948     -467.82067      3375         
     50000  -56.122656      0.6371964     -55.48546       0.029520714    547.72954     -340.9376       3375         
Loop time of 280.191 on 4 procs for 50000 steps with 10 atoms

Performance: 7.709 ns/day, 3.113 hours/ns, 178.450 timesteps/s, 1.784 katom-step/s
87.9% CPU use with 4 MPI tasks x no OpenMP threads

MPI task timing breakdown:
Section |  min time  |  avg time  |  max time  |%varavg| %total
---------------------------------------------------------------
Pair    | 151.7      | 158.05     | 163.8      |  34.6 | 56.41
Neigh   | 0.00081796 | 0.001095   | 0.0018512  |   1.3 |  0.00
Comm    | 84.255     | 89.524     | 95.589     |  43.6 | 31.95
Output  | 4.5002     | 4.6777     | 5.0064     |   9.3 |  1.67
Modify  | 23.354     | 23.78      | 24.015     |   5.5 |  8.49
Other   |            | 4.158      |            |       |  1.48

Nlocal:            2.5 ave           4 max           1 min
Histogram: 1 0 0 1 0 0 1 0 0 1
Nghost:             60 ave          62 max          58 min
Histogram: 1 0 1 0 0 0 0 1 0 1
Neighs:              0 ave           0 max           0 min
Histogram: 4 0 0 0 0 0 0 0 0 0
FullNghs:         22.5 ave          36 max           9 min
Histogram: 1 0 0 1 0 0 1 0 0 1

Total # of neighbors = 90
Ave neighs/atom = 9
Neighbor list builds = 118
Dangerous builds = 0

write_data	restart.data
System init for write_data ...
Generated 0 of 1 mixed pair_coeff terms from geometric mixing rule
#
Total wall time: 0:04:44
