LAMMPS data file via write_data, version 2 Aug 2023, timestep = 50000, units = metal

10 atoms
2 atom types

0 15 xlo xhi
0 15 ylo yhi
0 15 zlo zhi

Masses

1 12
2 2

Atoms # atomic

7 2 6.084660791388058 7.295326404769648 7.012770471287519 0 0 0
2 1 6.987908106950649 6.960861494994546 7.508257866721629 0 0 0
6 2 7.604209212125615 5.415014241725427 8.867245672235269 0 0 0
1 1 6.827227686355462 5.700271473200213 8.119396802206385 0 0 0
5 2 5.8769903898234 5.142145892216809 8.193113112505202 0 0 0
4 1 8.14244970393841 9.294636217598073 6.854424114598951 0 0 0
9 2 7.269481398345371 9.777479388145347 6.3317399947460045 0 0 0
10 2 8.917672563105896 10.000510080053468 6.991407118743738 0 0 0
3 1 8.110391677275494 8.012366938572299 7.4208007576527 0 0 0
8 2 8.963122598870816 7.780707248437768 8.075446381916942 0 0 0

Velocities

7 15.945291275098874 10.853225763154532 -7.851476531797544
2 5.3321916555147855 -4.866605630177053 -4.647850702297839
6 -4.631536013807939 10.847521744940648 5.173374120930115
1 3.0958803718869055 0.6206352366848137 4.2838349919467404
5 -26.09382602439255 18.515251952742755 -6.158273551310012
4 7.213188081357405 -6.908803997631562 -4.577946729684548
9 -8.484438247594385 26.70936089051307 9.634821379810191
10 -12.116664795513609 2.4164797401177553 -20.085990757185744
3 -9.800887235045138 1.9716543900343304 10.67899046123583
8 0.3389365639267749 -14.243120084927707 -15.134622787647546
