LAMMPS data file via write_data, version 2 Aug 2023, timestep = 50000, units = metal

10 atoms
2 atom types

0 15 xlo xhi
0 15 ylo yhi
0 15 zlo zhi

Masses

1 12
2 2

Atoms # atomic

6 2 9.117213698036668 6.674332808713599 5.817480053870581 0 0 0
10 2 6.124427628823473 6.583387087626361 9.771387033471317 0 0 0
4 1 6.318970790322924 7.356630447421895 9.077132024283394 0 0 0
3 1 7.283679950007809 7.08234328193858 8.108141855599886 0 0 0
8 2 7.754128037532981 6.122688752907371 8.13784565839578 0 0 0
1 1 8.654364550678576 7.658278834054876 5.897931918975631 0 0 0
2 1 7.761665179970938 7.9096311395200205 6.938689229005232 0 0 0
5 2 8.82981592809791 8.504594312235831 5.125498438293794 0 0 0
7 2 7.35747230036571 8.957401658796607 7.018168776727557 0 0 0
9 2 5.828859582023525 8.336293163602496 8.887249870549724 0 0 0

Velocities

6 10.46416701837632 2.5340341109490407 -17.1199900155892
10 2.945530077581322 6.969849945015092 2.8984611161065548
4 3.3817175809305673 -0.7998157241079661 5.2712028973220955
3 2.051710502479499 5.573491241276209 -3.865333772697391
8 -0.05595133844186167 10.330692844384906 -9.989246373391266
1 -4.703681734114936 -5.3195234646068466 -2.454471678958903
2 1.2056174033124218 0.9202139076265785 7.712276972498703
5 13.159285147320475 -24.283597741224447 0.16668172771032846
7 -15.251541850837869 13.769207632128152 -3.400997475404023
9 -22.87367156964414 -11.566382552380876 -12.536955488421032
