10
 Atoms. Timestep: 0
C 7.9238 6.28307 6.3867
C 7.12851 7.31922 6.71767
C 7.34689 8.32791 7.76174
C 7.5516 8.13216 9.08837
H 7.72761 5.58832 5.56736
H 8.91632 6.21134 6.79101
H 6.29851 7.54724 6.03229
H 7.14942 9.34537 7.44988
H 7.75571 7.22053 9.53866
H 7.57162 8.93306 9.78295
10
 Atoms. Timestep: 20
C 7.88241 6.28214 6.45363
C 7.16238 7.37404 6.68818
C 7.31374 8.30555 7.76085
C 7.62879 8.10542 9.03189
H 7.66605 5.66261 5.59542
H 8.79399 6.03643 7.05908
H 6.39199 7.62733 5.98372
H 7.19125 9.38956 7.44652
H 7.64786 7.09779 9.50057
H 7.50896 9.00338 9.6964
10
 Atoms. Timestep: 40
C 7.88729 6.25079 6.4928
C 7.18068 7.40131 6.62759
C 7.31099 8.35563 7.74516
C 7.64075 8.09703 9.05358
H 7.61976 5.64745 5.602
H 8.52727 5.83615 7.28475
H 6.40679 7.69184 5.87444
H 7.14627 9.39013 7.46372
H 7.62809 7.03099 9.4241
H 7.67761 8.99492 9.72523
10
 Atoms. Timestep: 60
C 7.81953 6.20511 6.48245
C 7.21578 7.40357 6.61108
C 7.33581 8.39929 7.76281
C 7.58498 8.13402 9.0569
H 7.70208 5.50992 5.64461
H 8.32538 5.76628 7.31226
H 6.60599 7.72764 5.74989
H 7.12852 9.41633 7.50241
H 7.75503 7.15513 9.39276
H 7.87042 8.79273 9.80759
10
 Atoms. Timestep: 80
C 7.72209 6.1658 6.53718
C 7.25723 7.43938 6.62079
C 7.33187 8.3973 7.72494
C 7.58338 8.10819 9.03777
H 7.70618 5.55669 5.65695
H 8.31645 5.74064 7.38715
H 6.85337 7.85098 5.71325
H 7.17264 9.48776 7.45408
H 7.84738 7.05409 9.31697
H 7.86054 8.86579 9.83655
10
 Atoms. Timestep: 100
C 7.66246 6.13159 6.58015
C 7.30585 7.45188 6.60499
C 7.34324 8.38787 7.75813
C 7.63997 8.11182 9.02071
H 7.60428 5.65585 5.59828
H 8.21032 5.68097 7.43005
H 6.99146 7.96573 5.66399
H 7.21073 9.41332 7.4113
H 7.78409 7.03369 9.2707
H 7.61395 8.97147 9.73082
10
 Atoms. Timestep: 120
C 7.62554 6.1406 6.53254
C 7.36399 7.43366 6.61018
C 7.38626 8.37053 7.72677
C 7.65418 8.1694 9.0553
H 7.52378 5.56373 5.57927
H 7.92699 5.55002 7.36096
H 7.05652 7.9066 5.67003
H 7.17166 9.39617 7.48297
H 7.75349 7.20004 9.45815
H 7.5117 8.91834 9.78883
10
 Atoms. Timestep: 140
C 7.60113 6.12074 6.541
C 7.40001 7.46837 6.59376
C 7.44593 8.37667 7.73267
C 7.61552 8.14987 9.03088
H 7.45949 5.59333 5.61532
H 7.69331 5.41748 7.39943
H 7.11413 7.90084 5.65037
H 7.12057 9.41001 7.47135
H 7.85547 7.23191 9.60785
H 7.50551 8.97248 9.75481
10
 Atoms. Timestep: 160
C 7.54026 6.11602 6.58067
C 7.44283 7.45143 6.57568
C 7.4515 8.37929 7.72612
C 7.58683 8.12515 9.05581
H 7.43513 5.6682 5.60753
H 7.6139 5.48879 7.49644
H 7.25941 7.9863 5.61708
H 7.18891 9.4141 7.44581
H 7.98845 7.14562 9.46407
H 7.50962 9.08566 9.62837
10
 Atoms. Timestep: 180
C 7.46223 6.11754 6.58052
C 7.48197 7.46388 6.5945
C 7.42213 8.35558 7.72378
C 7.60806 8.16234 9.02941
H 7.48127 5.52224 5.62858
H 7.56574 5.6025 7.50703
H 7.48346 7.96228 5.61059
H 7.27811 9.3789 7.45522
H 7.92321 7.22172 9.35908
H 7.54585 8.93631 9.75922
10
 Atoms. Timestep: 200
C 7.42213 6.11565 6.58444
C 7.5068 7.45104 6.565
C 7.40285 8.40465 7.71092
C 7.65471 8.1613 9.02893
H 7.53342 5.44424 5.7322
H 7.38749 5.57399 7.53365
H 7.65619 7.955 5.62755
H 7.23149 9.45534 7.38076
H 7.82312 7.1358 9.41028
H 7.57337 8.8598 9.86886
10
 Atoms. Timestep: 220
C 7.41307 6.08757 6.61772
C 7.52015 7.45858 6.55648
C 7.43172 8.4426 7.72441
C 7.66358 8.13655 9.01612
H 7.56687 5.51251 5.73674
H 7.07655 5.56225 7.5635
H 7.77229 7.93397 5.58049
H 7.15234 9.4619 7.39743
H 7.7914 7.05401 9.34352
H 7.5934 8.94361 9.77894
10
 Atoms. Timestep: 240
C 7.37263 6.10609 6.60688
C 7.544 7.43958 6.61436
C 7.4621 8.39707 7.69457
C 7.63623 8.17023 9.01751
H 7.57453 5.51921 5.69643
H 6.90447 5.61962 7.44048
H 7.84599 7.83584 5.63521
H 7.202 9.42352 7.49788
H 7.90474 7.18848 9.28203
H 7.60249 8.95546 9.73709
10
 Atoms. Timestep: 260
C 7.28721 6.11377 6.58147
C 7.60769 7.41531 6.62687
C 7.45133 8.38148 7.70524
C 7.63343 8.18971 9.0145
H 7.54001 5.51516 5.67632
H 6.83365 5.5674 7.38662
H 7.97383 7.86778 5.71775
H 7.28929 9.42054 7.35163
H 8.06749 7.26672 9.4293
H 7.54183 8.98078 9.75888
10
 Atoms. Timestep: 280
C 7.22924 6.12727 6.58433
C 7.66739 7.40644 6.61974
C 7.44682 8.38538 7.70985
C 7.65774 8.17588 9.01383
H 7.42795 5.55936 5.69881
H 6.74831 5.55102 7.42441
H 8.15728 7.87825 5.73558
H 7.25338 9.37001 7.2481
H 8.10175 7.25251 9.52452
H 7.42816 9.03903 9.69108
10
 Atoms. Timestep: 300
C 7.21641 6.15812 6.58936
C 7.69907 7.39278 6.6377
C 7.49294 8.34606 7.68008
C 7.66675 8.20151 9.01179
H 7.30892 5.53727 5.70865
H 6.63714 5.76169 7.42895
H 8.26223 7.71809 5.75158
H 7.09753 9.33099 7.42562
H 7.97326 7.2752 9.3987
H 7.39394 9.00593 9.66194
10
 Atoms. Timestep: 320
C 7.17515 6.15197 6.60685
C 7.75324 7.37382 6.60497
C 7.51712 8.37656 7.69639
C 7.6589 8.20461 9.00516
H 7.27447 5.45617 5.7349
H 6.49986 5.93714 7.4003
H 8.34315 7.65928 5.74766
H 7.02054 9.31717 7.41705
H 7.95271 7.23181 9.38751
H 7.40683 8.97669 9.72137
10
 Atoms. Timestep: 340
C 7.1282 6.18153 6.6087
C 7.78312 7.35409 6.59989
C 7.50355 8.40769 7.67153
C 7.64904 8.17213 9.01699
H 7.28841 5.38763 5.88652
H 6.35187 5.95649 7.37906
H 8.45934 7.67506 5.77682
H 7.14393 9.35707 7.22089
H 8.08152 7.18931 9.45237
H 7.41549 8.96176 9.79058
10
 Atoms. Timestep: 360
C 7.0861 6.1873 6.56896
C 7.76106 7.36166 6.66408
C 7.51681 8.36199 7.67172
C 7.65071 8.20135 8.99159
H 7.34042 5.35898 5.93999
H 6.30356 6.00859 7.33918
H 8.53085 7.58437 5.89529
H 7.35309 9.36325 7.26834
H 8.08967 7.31019 9.32646
H 7.41833 8.92082 9.74159
10
 Atoms. Timestep: 380
C 7.05528 6.19034 6.57404
C 7.74684 7.30885 6.68952
C 7.54212 8.37812 7.65676
C 7.66773 8.21894 8.98918
H 7.38406 5.42625 5.85165
H 6.23526 6.01884 7.22459
H 8.56854 7.50358 6.03065
H 7.41721 9.41957 7.34583
H 8.01856 7.24209 9.31832
H 7.42854 9.03223 9.6609
10
 Atoms. Timestep: 400
C 7.03127 6.17201 6.60544
C 7.77963 7.31226 6.6945
C 7.57123 8.42698 7.66973
C 7.6763 8.20281 8.96567
H 7.30359 5.49233 5.76796
H 6.07771 5.93306 7.11565
H 8.65995 7.40621 6.01648
H 7.3673 9.4238 7.23851
H 7.81013 7.18684 9.50571
H 7.55475 9.09341 9.63267
10
 Atoms. Timestep: 420
C 7.03395 6.20073 6.57452
C 7.76754 7.28217 6.70982
C 7.61691 8.38881 7.64967
C 7.65349 8.24453 9.00105
H 7.21235 5.48109 5.79335
H 6.08195 5.98418 7.10146
H 8.6382 7.32492 6.02184
H 7.41547 9.37456 7.2007
H 7.66162 7.28509 9.4571
H 7.68308 9.07277 9.70419
10
 Atoms. Timestep: 440
C 6.97297 6.21396 6.56779
C 7.7981 7.26393 6.70994
C 7.64765 8.35077 7.66647
C 7.60633 8.26145 8.97918
H 7.23204 5.45201 5.83526
H 6.1392 6.1502 7.24035
H 8.61824 7.38018 6.03039
H 7.66053 9.33439 7.21217
H 7.65305 7.2735 9.36781
H 7.67062 9.08914 9.6627
10
 Atoms. Timestep: 460
C 6.93817 6.24622 6.60874
C 7.83184 7.25348 6.69044
C 7.69034 8.37453 7.62604
C 7.56463 8.2145 8.97377
H 7.10163 5.39409 5.92228
H 6.11469 6.19382 7.32515
H 8.65219 7.42159 5.9685
H 7.94317 9.3714 7.21109
H 7.64209 7.15577 9.47995
H 7.52035 9.1509 9.58808
10
 Atoms. Timestep: 480
C 6.93966 6.22547 6.59567
C 7.81451 7.25918 6.65591
C 7.78021 8.36762 7.65396
C 7.56818 8.24775 8.98887
H 6.91423 5.34124 5.94708
H 6.09052 6.21978 7.31068
H 8.62466 7.27919 5.87255
H 8.04616 9.37064 7.27164
H 7.46846 7.3142 9.4898
H 7.36464 9.09486 9.63077
10
 Atoms. Timestep: 500
C 6.91805 6.22102 6.61895
C 7.79586 7.23602 6.62786
C 7.88894 8.32771 7.67622
C 7.53921 8.29251 8.99442
H 6.93349 5.46071 5.86525
H 6.08571 6.25561 7.30947
H 8.54813 7.21503 5.8712
H 8.04317 9.32513 7.28719
H 7.26307 7.35737 9.41914
H 7.39805 9.14266 9.63206
10
 Atoms. Timestep: 520
C 6.87118 6.24996 6.64549
C 7.82062 7.22674 6.68398
C 7.92169 8.30079 7.66702
C 7.50258 8.28785 8.9571
H 6.97092 5.58659 5.78571
H 6.04853 6.16489 7.36714
H 8.54496 7.27495 5.85598
H 8.21677 9.26547 7.21252
H 7.05262 7.29804 9.41862
H 7.59378 9.23805 9.5275
10
 Atoms. Timestep: 540
C 6.85958 6.25955 6.57977
C 7.80552 7.18767 6.75273
C 7.89861 8.29841 7.67618
C 7.50411 8.33191 8.93931
H 6.84863 5.53223 5.72642
H 6.0919 6.03852 7.3308
H 8.51564 7.30963 5.88671
H 8.53525 9.12172 7.28412
H 6.99883 7.53931 9.43245
H 7.72686 9.21337 9.54051
10
 Atoms. Timestep: 560
C 6.8472 6.2393 6.57166
C 7.77232 7.17631 6.71775
C 7.93713 8.2807 7.67403
C 7.49154 8.38482 8.94518
H 6.82708 5.5804 5.71578
H 6.07088 6.03498 7.29316
H 8.52626 7.24167 5.96243
H 8.71084 8.99314 7.4155
H 6.89197 7.67526 9.45075
H 7.80787 9.20776 9.59965
10
 Atoms. Timestep: 580
C 6.81769 6.24513 6.65775
C 7.77805 7.23669 6.65932
C 8.02275 8.22053 7.70509
C 7.45442 8.37478 8.90489
H 6.89885 5.64607 5.77296
H 5.94821 6.15086 7.33218
H 8.56201 7.14426 5.90171
H 8.77805 8.95293 7.42052
H 6.62307 7.69429 9.38131
H 7.87637 9.16881 9.51796
10
 Atoms. Timestep: 600
C 6.81464 6.27789 6.637
C 7.75306 7.20996 6.66009
C 8.09032 8.17604 7.72247
C 7.44214 8.40047 8.92749
H 6.8065 5.47144 5.85199
H 5.97955 6.29183 7.34319
H 8.49199 7.13858 5.81252
H 8.88637 8.9154 7.47064
H 6.55144 7.82859 9.16142
H 7.80721 9.18801 9.56694
10
 Atoms. Timestep: 620
C 6.7594 6.28571 6.5906
C 7.79516 7.16868 6.67965
C 8.10473 8.18509 7.75506
C 7.45892 8.43154 8.87741
H 6.63936 5.41764 5.94009
H 6.05152 6.30839 7.40973
H 8.46065 7.23905 5.83373
H 9.03319 8.70828 7.56031
H 6.5649 7.94358 9.08083
H 7.66511 9.17696 9.64797
10
 Atoms. Timestep: 640
C 6.73019 6.32181 6.64164
C 7.81706 7.14987 6.68691
C 8.15298 8.14974 7.71436
C 7.40723 8.45692 8.84747
H 6.57748 5.61128 5.86492
H 6.04239 6.25884 7.50503
H 8.53929 7.23686 5.88253
H 9.17123 8.5497 7.62178
H 6.3961 7.89426 9.05647
H 7.75278 9.199 9.61601
10
 Atoms. Timestep: 660
C 6.74575 6.29879 6.64408
C 7.7895 7.15091 6.6964
C 8.14577 8.09062 7.79535
C 7.41614 8.5212 8.8191
H 6.52162 5.81509 5.66475
H 6.03678 6.23945 7.48501
H 8.52463 7.0304 5.84248
H 9.16449 8.5168 7.67308
H 6.43985 8.07892 8.97416
H 7.85361 9.17016 9.51993
10
 Atoms. Timestep: 680
C 6.74851 6.29793 6.60975
C 7.77159 7.12511 6.72738
C 8.1762 8.01197 7.81191
C 7.43046 8.56822 8.81079
H 6.48406 5.83825 5.64073
H 5.98978 6.18013 7.35756
H 8.43858 7.06761 5.87819
H 9.15175 8.48113 7.73585
H 6.40337 8.38098 8.97305
H 7.89592 9.25252 9.54463
10
 Atoms. Timestep: 700
C 6.67377 6.3384 6.61265
C 7.81107 7.10867 6.74385
C 8.19471 7.99178 7.83413
C 7.43318 8.54563 8.76972
H 6.59286 5.76814 5.71348
H 5.90509 6.12696 7.3708
H 8.46343 7.27255 5.89802
H 9.25181 8.26112 7.77346
H 6.30062 8.59192 8.92224
H 7.93384 9.29247 9.44887
10
 Atoms. Timestep: 720
C 6.67323 6.36392 6.59782
C 7.76233 7.10487 6.74171
C 8.19664 7.96263 7.85565
C 7.44529 8.61133 8.77472
H 6.61044 5.70388 5.71283
H 5.96457 6.1953 7.4268
H 8.4612 7.22614 5.85968
H 9.31245 8.037 7.93802
H 6.34558 8.53085 8.70404
H 7.96479 9.27028 9.42832
10
 Atoms. Timestep: 740
C 6.68909 6.35219 6.61928
C 7.75278 7.17065 6.7196
C 8.21008 7.90697 7.88603
C 7.46417 8.64542 8.71077
H 6.461 5.75536 5.72555
H 5.99812 6.28349 7.44839
H 8.43012 7.01799 5.87836
H 9.27437 7.91585 8.07096
H 6.41832 8.58307 8.60472
H 7.84534 9.21281 9.54693
10
 Atoms. Timestep: 760
C 6.66517 6.35373 6.66126
C 7.77414 7.15125 6.67849
C 8.25198 7.88028 7.90403
C 7.448 8.66179 8.67181
H 6.37423 5.85708 5.75829
H 5.951 6.31558 7.48357
H 8.51586 7.06115 5.89949
H 9.32499 7.80472 8.09532
H 6.33993 8.7921 8.48827
H 7.78216 9.10702 9.67058
10
 Atoms. Timestep: 780
C 6.64893 6.37511 6.63682
C 7.79421 7.07536 6.7202
C 8.22214 7.89138 7.90126
C 7.4559 8.67975 8.68907
H 6.32109 5.85723 5.72282
H 5.98711 6.33668 7.52914
H 8.49831 7.17543 5.85088
H 9.3008 7.7227 8.16033
H 6.46351 8.95808 8.31176
H 7.82612 9.04032 9.63002
10
 Atoms. Timestep: 800
C 6.64637 6.39888 6.60844
C 7.79888 7.0687 6.76352
C 8.19228 7.84731 7.90596
C 7.48571 8.69618 8.6686
H 6.33141 5.85024 5.71474
H 6.0305 6.30408 7.49474
H 8.40154 7.14517 5.85263
H 9.19811 7.68126 8.27144
H 6.54531 9.05984 8.31325
H 7.8777 9.11301 9.56311
10
 Atoms. Timestep: 820
C 6.62684 6.39311 6.62311
C 7.76849 7.10156 6.71545
C 8.20995 7.7833 7.97595
C 7.49525 8.734 8.62091
H 6.42053 5.90117 5.688
H 5.94027 6.24074 7.44047
H 8.48766 7.07952 5.90973
H 9.21786 7.5685 8.32936
H 6.47027 9.11315 8.3889
H 7.98422 9.24514 9.52001
10
 Atoms. Timestep: 840
C 6.62805 6.39519 6.61605
C 7.74768 7.12074 6.74715
C 8.18355 7.76387 8.00584
C 7.53786 8.75371 8.59644
H 6.42623 5.90857 5.64689
H 5.84754 6.26005 7.40338
H 8.53848 7.05985 5.95651
H 9.21496 7.46749 8.3317
H 6.519 9.02765 8.33712
H 7.99499 9.29536 9.42051
10
 Atoms. Timestep: 860
C 6.62334 6.42787 6.59096
C 7.74533 7.07403 6.82742
C 8.18849 7.74917 7.97359
C 7.55493 8.75974 8.60121
H 6.40096 5.90054 5.65836
H 5.86266 6.37008 7.36179
H 8.46182 7.10825 5.9962
H 9.17279 7.4585 8.33377
H 6.59416 9.01118 8.17288
H 7.95901 9.30666 9.40692
10
 Atoms. Timestep: 880
C 6.55092 6.44631 6.59239
C 7.78118 7.00852 6.79546
C 8.24749 7.77017 8.02906
C 7.53257 8.74726 8.5735
H 6.39552 5.94885 5.6493
H 5.81543 6.43633 7.37586
H 8.49117 7.06768 5.98744
H 9.22539 7.48272 8.37227
H 6.61451 9.15376 8.09241
H 7.90901 9.29706 9.46922
10
 Atoms. Timestep: 900
C 6.56286 6.47685 6.60187
C 7.79112 6.99055 6.78853
C 8.25403 7.7433 8.01355
C 7.53283 8.77576 8.56129
H 6.26124 6.00721 5.64762
H 5.74439 6.46845 7.36389
H 8.54224 6.84962 5.96737
H 9.26367 7.52593 8.49846
H 6.6357 9.18733 8.10182
H 7.83174 9.26273 9.51846
10
 Atoms. Timestep: 920
C 6.57332 6.48616 6.58793
C 7.80408 6.99226 6.81914
C 8.19435 7.7585 7.98725
C 7.58058 8.78772 8.55968
H 6.22105 6.03781 5.64967
H 5.80655 6.60332 7.36218
H 8.55209 6.65061 6.08289
H 9.11776 7.46043 8.47561
H 6.65938 9.10266 8.1123
H 7.85321 9.21736 9.48236
10
 Atoms. Timestep: 940
C 6.54517 6.51657 6.5826
C 7.7929 6.94714 6.81234
C 8.19624 7.7394 7.98688
C 7.56741 8.81042 8.55736
H 6.34922 5.96787 5.6884
H 5.82064 6.7839 7.32077
H 8.66087 6.65624 6.25112
H 9.09012 7.31766 8.39607
H 6.58599 9.17499 8.12347
H 8.00678 9.23817 9.47407
10
 Atoms. Timestep: 960
C 6.5342 6.54496 6.55052
C 7.79845 6.92507 6.84328
C 8.17889 7.72709 8.00735
C 7.57862 8.78577 8.54768
H 6.33097 5.81738 5.75008
H 5.65614 6.89872 7.16188
H 8.68198 6.60955 6.23414
H 9.16977 7.36296 8.44596
H 6.68368 9.30863 8.2226
H 8.06047 9.32543 9.38134
10
 Atoms. Timestep: 980
C 6.54237 6.56092 6.5056
C 7.76356 6.90193 6.88439
C 8.18543 7.71037 8.02485
C 7.61785 8.81147 8.5665
H 6.2925 5.76294 5.76684
H 5.61355 6.92841 6.94534
H 8.52978 6.44607 6.23271
H 9.15491 7.55295 8.5133
H 6.74393 9.27764 8.18276
H 8.1341 9.34387 9.36003
10
 Atoms. Timestep: 1000
C 6.48533 6.60514 6.50154
C 7.75626 6.85709 6.92351
C 8.22603 7.73398 8.04231
C 7.62437 8.81235 8.52476
H 6.45058 5.90578 5.6852
H 5.60868 7.02463 6.93265
H 8.5367 6.28687 6.44543
H 9.17203 7.44937 8.43209
H 6.66247 9.1993 8.10094
H 8.14164 9.30267 9.34001
10
 Atoms. Timestep: 1020
C 6.49192 6.64659 6.49919
C 7.73924 6.81863 6.9992
C 8.25162 7.70565 7.99514
C 7.63448 8.82253 8.4883
H 6.39906 6.07591 5.57925
H 5.58429 7.14804 6.93001
H 8.56412 6.17124 6.65472
H 9.24204 7.30885 8.38937
H 6.63528 9.13912 8.10314
H 7.99563 9.41649 9.34148
10
 Atoms. Timestep: 1040
C 6.51076 6.65981 6.45273
C 7.70746 6.74477 7.03389
C 8.24501 7.72161 8.02953
C 7.67463 8.8359 8.49315
H 6.18877 6.09225 5.5553
H 5.68069 7.2845 6.82997
H 8.48175 6.04528 6.63968
H 9.23215 7.44833 8.43061
H 6.74318 9.07167 8.07843
H 7.97039 9.50545 9.29918
10
 Atoms. Timestep: 1060
C 6.48115 6.72641 6.42851
C 7.7228 6.68434 7.02839
C 8.25323 7.68489 8.08463
C 7.6508 8.84635 8.47981
H 6.20271 5.9645 5.69626
H 5.77877 7.46827 6.7236
H 8.41607 5.95389 6.65344
H 9.2295 7.54762 8.47543
H 6.67644 9.14771 8.00917
H 8.17269 9.48606 9.20304
10
 Atoms. Timestep: 1080
C 6.5085 6.74275 6.42468
C 7.7102 6.71235 7.04122
C 8.20484 7.64468 8.06311
C 7.66221 8.84248 8.46948
H 6.23109 5.89845 5.82788
H 5.80889 7.60459 6.57344
H 8.37591 5.86491 6.80948
H 9.2289 7.42847 8.50228
H 6.69115 9.29015 8.11555
H 8.27351 9.47981 9.06946
10
 Atoms. Timestep: 1100
C 6.53344 6.69975 6.38345
C 7.66385 6.73543 7.07883
C 8.15187 7.69121 8.02949
C 7.74568 8.86248 8.48731
H 6.1674 5.85681 5.78111
H 5.84291 7.57454 6.379
H 8.29678 5.81014 7.05315
H 9.07276 7.25179 8.44482
H 6.82156 9.27729 8.23823
H 8.35358 9.51621 9.11824
10
 Atoms. Timestep: 1120
C 6.52533 6.75364 6.36833
C 7.60231 6.67971 7.13707
C 8.19412 7.68509 8.01584
C 7.7654 8.88082 8.4448
H 6.26613 5.86317 5.77461
H 5.87537 7.56937 6.22753
H 8.18489 5.78907 7.20249
H 9.07813 7.30188 8.45653
H 6.78134 9.32322 8.21208
H 8.41513 9.37769 9.21951
10
 Atoms. Timestep: 1140
C 6.5076 6.80459 6.34656
C 7.5701 6.64593 7.22677
C 8.2407 7.65995 8.02574
C 7.76219 8.86073 8.39576
H 6.32651 5.89576 5.77458
H 5.92842 7.72714 6.1535
H 8.01462 5.63646 7.20545
H 9.2406 7.44268 8.48755
H 6.80616 9.38259 8.10931
H 8.32413 9.30822 9.18967
10
 Atoms. Timestep: 1160
C 6.54782 6.77745 6.33186
C 7.50611 6.63853 7.22091
C 8.24417 7.65198 8.05687
C 7.79531 8.88364 8.42648
H 6.14286 5.97654 5.71425
H 6.11041 7.79117 6.13362
H 7.85407 5.56989 7.2822
H 9.26662 7.38205 8.42581
H 6.88599 9.25015 7.99956
H 8.30361 9.54059 9.11684
10
 Atoms. Timestep: 1180
C 6.55636 6.83288 6.30122
C 7.52343 6.61286 7.24839
C 8.22261 7.63685 8.08094
C 7.81189 8.862 8.41288
H 5.99974 6.05838 5.77874
H 6.27156 7.84486 6.07462
H 7.83473 5.62121 7.5108
H 9.13284 7.19746 8.36805
H 6.84597 9.12639 7.98402
H 8.35343 9.70416 8.91224
10
 Atoms. Timestep: 1200
C 6.58317 6.88023 6.29316
C 7.48744 6.61748 7.27809
C 8.21827 7.58295 8.07349
C 7.80435 8.86818 8.36519
H 5.97763 6.07156 5.88166
H 6.41196 7.90966 5.98074
H 7.76277 5.611 7.61673
H 9.1878 7.16817 8.49545
H 6.74541 9.13559 8.09195
H 8.47903 9.63096 8.76289
10
 Atoms. Timestep: 1220
C 6.59788 6.82118 6.2538
C 7.40843 6.62289 7.30793
C 8.21624 7.62814 8.08195
C 7.86257 8.87671 8.3761
H 5.95141 6.03122 5.83893
H 6.52901 7.86535 5.84147
H 7.50709 5.51192 7.53715
H 9.19119 7.34196 8.53764
H 6.86454 9.22901 8.21744
H 8.57006 9.54703 8.79772
10
 Atoms. Timestep: 1240
C 6.62426 6.82842 6.25073
C 7.35145 6.60486 7.35436
C 8.19843 7.61101 8.05722
C 7.89415 8.89467 8.37723
H 6.06733 6.03986 5.77746
H 6.5516 7.74103 5.6745
H 7.34725 5.58577 7.68093
H 9.17354 7.32259 8.34717
H 6.93932 9.40451 8.20642
H 8.63519 9.49245 8.96534
10
 Atoms. Timestep: 1260
C 6.64705 6.86412 6.24312
C 7.31229 6.62922 7.39864
C 8.16003 7.60476 8.02538
C 7.90799 8.87252 8.36092
H 6.18167 5.97696 5.79143
H 6.66298 7.76907 5.6617
H 7.30031 5.6876 7.95679
H 9.17748 7.13501 8.18698
H 6.99586 9.45058 8.12225
H 8.64151 9.37705 9.00148
10
 Atoms. Timestep: 1280
C 6.66966 6.81292 6.2316
C 7.23966 6.68667 7.39739
C 8.16845 7.61474 8.00711
C 7.9497 8.86253 8.37826
H 6.10481 5.98068 5.7458
H 6.83099 7.79823 5.75477
H 7.17572 5.73347 8.01798
H 9.12529 7.10592 8.28067
H 7.0257 9.33069 8.08226
H 8.69661 9.40988 8.9214
10
 Atoms. Timestep: 1300
C 6.68926 6.82105 6.21411
C 7.19946 6.68022 7.45591
C 8.2181 7.57311 8.02966
C 7.96404 8.85665 8.3393
H 5.9953 6.17139 5.73198
H 6.92332 7.73223 5.63486
H 6.97576 5.74013 7.93348
H 9.10278 7.16774 8.42748
H 6.98503 9.2991 8.13255
H 8.71666 9.52324 8.79481
10
 Atoms. Timestep: 1320
C 6.69373 6.88424 6.19361
C 7.19386 6.63335 7.4562
C 8.21508 7.54544 8.10971
C 7.97458 8.87107 8.2849
H 5.88561 6.26321 5.82435
H 7.0513 7.64442 5.51552
H 6.8395 5.75579 7.9943
H 9.19488 7.09973 8.47433
H 6.96408 9.28653 8.14033
H 8.72508 9.56577 8.67363
10
 Atoms. Timestep: 1340
C 6.68536 6.86028 6.20227
C 7.21152 6.65997 7.3987
C 8.16173 7.5392 8.16123
C 8.01693 8.87732 8.29846
H 5.78044 6.26991 5.86579
H 7.18054 7.58936 5.54696
H 6.75226 5.85906 8.06514
H 9.13952 7.05738 8.39921
H 7.03947 9.25851 8.00842
H 8.77856 9.56518 8.63951
10
 Atoms. Timestep: 1360
C 6.69602 6.83798 6.20658
C 7.18365 6.71275 7.45917
C 8.15682 7.5328 8.11273
C 8.0285 8.8432 8.29612
H 5.85897 6.28426 5.82186
H 7.13982 7.57345 5.52187
H 6.73406 5.92768 8.05406
H 9.01997 7.03486 8.45308
H 7.16546 9.36601 7.873
H 8.81581 9.47342 8.71755
10
 Atoms. Timestep: 1380
C 6.7161 6.83526 6.19206
C 7.07307 6.71699 7.48764
C 8.19458 7.53536 8.06571
C 8.05866 8.86973 8.27494
H 5.96836 6.17999 5.80633
H 7.07562 7.58905 5.50616
H 6.72345 5.90935 8.1091
H 8.99767 6.97157 8.63734
H 7.25776 9.48053 7.83411
H 8.84665 9.34546 8.87386
10
 Atoms. Timestep: 1400
C 6.69494 6.82595 6.20292
C 7.07364 6.73499 7.46766
C 8.13109 7.55154 8.08815
C 8.14277 8.85859 8.23895
H 6.01126 6.04851 5.74923
H 7.11736 7.61716 5.56681
H 6.66723 5.90042 8.12196
H 8.88838 6.98558 8.67285
H 7.35857 9.50288 7.86542
H 8.82655 9.33901 8.92668
10
 Atoms. Timestep: 1420
C 6.68565 6.84378 6.21885
C 7.11016 6.72485 7.46144
C 8.04905 7.52307 8.1668
C 8.1806 8.86685 8.19441
H 6.03759 6.11645 5.72067
H 7.13996 7.59028 5.57079
H 6.66714 5.93411 8.06107
H 8.79138 6.94639 8.65206
H 7.40728 9.52951 7.78549
H 8.92797 9.35202 8.85
10
 Atoms. Timestep: 1440
C 6.70113 6.87265 6.16815
C 7.06943 6.67793 7.48351
C 8.05181 7.54106 8.24593
C 8.17688 8.87545 8.18583
H 5.96826 6.21889 5.76117
H 7.13388 7.62805 5.51806
H 6.68798 5.83131 8.03102
H 8.78178 6.89718 8.80893
H 7.49607 9.51983 7.62369
H 9.06051 9.32223 8.64566
10
 Atoms. Timestep: 1460
C 6.72086 6.87014 6.19234
C 7.0526 6.70569 7.47663
C 8.03538 7.50518 8.25257
C 8.19993 8.85793 8.17899
H 5.89953 6.28953 5.73746
H 7.11883 7.69038 5.56611
H 6.67082 5.76067 7.95362
H 8.71079 7.02587 9.00866
H 7.587 9.4529 7.49219
H 9.08437 9.36701 8.52774
10
 Atoms. Timestep: 1480
C 6.69115 6.87382 6.19631
C 7.07806 6.71589 7.48373
C 8.02231 7.51841 8.26129
C 8.25 8.83116 8.13345
H 5.92014 6.25498 5.68775
H 7.12404 7.72445 5.66282
H 6.6356 5.83825 7.97729
H 8.52396 7.00427 9.03957
H 7.6348 9.37305 7.40561
H 9.0363 9.38928 8.66724
10
 Atoms. Timestep: 1500
C 6.65721 6.88647 6.19208
C 7.0625 6.6923 7.46576
C 8.01131 7.53208 8.27576
C 8.31382 8.84688 8.0956
H 6.00502 6.20124 5.7003
H 7.08327 7.69036 5.61616
H 6.66415 5.92571 8.09984
H 8.4252 6.89325 9.0929
H 7.76232 9.40792 7.34042
H 8.91504 9.35514 8.86419
10
 Atoms. Timestep: 1520
C 6.65102 6.8772 6.20163
C 7.0564 6.72486 7.47923
C 7.98098 7.53205 8.24284
C 8.34118 8.8138 8.11471
H 5.99939 6.14942 5.72432
H 7.02816 7.65945 5.50626
H 6.64061 5.86388 8.06921
H 8.40713 7.03119 9.15113
H 8.01686 9.48581 7.31205
H 8.85442 9.34276 8.89556
10
 Atoms. Timestep: 1540
C 6.66727 6.85851 6.20389
C 7.0359 6.74022 7.46921
C 7.96813 7.54224 8.25605
C 8.34349 8.82078 8.12007
H 5.9302 6.11934 5.81298
H 6.99367 7.65015 5.52082
H 6.6359 5.83055 7.92652
H 8.3013 7.13699 9.17579
H 8.19579 9.46935 7.2434
H 8.97844 9.24308 8.91415
10
 Atoms. Timestep: 1560
C 6.67489 6.87603 6.18037
C 7.04525 6.71759 7.47411
C 7.92309 7.56736 8.30347
C 8.3689 8.82327 8.08324
H 5.9403 6.16263 5.82399
H 6.98091 7.6786 5.55142
H 6.65909 5.85862 7.98831
H 8.16102 7.0505 9.25674
H 8.20529 9.40651 7.18693
H 9.10458 9.15762 8.83456
10
 Atoms. Timestep: 1580
C 6.66721 6.89063 6.19404
C 7.06358 6.72222 7.47903
C 7.84613 7.57951 8.33551
C 8.43035 8.76079 8.06101
H 6.00289 6.21934 5.67414
H 7.01058 7.74155 5.56716
H 6.65757 5.86803 8.0744
H 8.11467 7.07948 9.30882
H 8.15112 9.31407 7.16154
H 9.14356 9.2786 8.68546
10
 Atoms. Timestep: 1600
C 6.65355 6.89096 6.19496
C 7.00056 6.72975 7.47533
C 7.85527 7.59203 8.38012
C 8.48803 8.7399 8.04645
H 6.06315 6.18644 5.58002
H 7.07098 7.78233 5.67101
H 6.64059 5.81035 7.97244
H 8.06461 7.19353 9.33961
H 8.16424 9.17574 7.0773
H 9.13592 9.35584 8.66747
10
 Atoms. Timestep: 1620
C 6.67046 6.92243 6.18183
C 6.94126 6.73464 7.52278
C 7.8858 7.58253 8.38154
C 8.48385 8.7399 8.00473
H 6.1258 6.15828 5.63929
H 7.03705 7.78374 5.679
H 6.6146 5.79077 7.90165
H 7.97049 7.22247 9.42352
H 8.39857 9.09618 6.97856
H 9.08929 9.29153 8.72176
10
 Atoms. Timestep: 1640
C 6.65684 6.90155 6.2072
C 6.96403 6.76425 7.50594
C 7.83784 7.5743 8.3279
C 8.51429 8.73166 8.02409
H 6.10592 6.14381 5.66822
H 6.94474 7.7691 5.59231
H 6.56721 5.84968 8.02114
H 7.89322 7.29073 9.42806
H 8.68372 9.06664 7.00067
H 9.09116 9.26947 8.78781
10
 Atoms. Timestep: 1660
C 6.619 6.86349 6.20382
C 7.01304 6.75627 7.46758
C 7.78989 7.6687 8.30699
C 8.58347 8.67413 8.05986
H 5.97963 6.0959 5.72775
H 6.89935 7.74791 5.55663
H 6.55023 5.98669 8.12155
H 7.74873 7.34794 9.31121
H 8.85212 9.0614 7.06224
H 9.06152 9.2046 8.88013
10
 Atoms. Timestep: 1680
C 6.64031 6.88882 6.20902
C 7.02236 6.75982 7.48294
C 7.71712 7.68692 8.31774
C 8.64984 8.63623 8.00835
H 5.91943 6.15869 5.8614
H 6.90393 7.67479 5.5579
H 6.60427 5.95578 8.02816
H 7.5436 7.47093 9.38515
H 8.93758 9.03353 7.02929
H 9.03742 9.09554 8.91882
10
 Atoms. Timestep: 1700
C 6.6484 6.91002 6.20092
C 6.97608 6.76809 7.51162
C 7.72462 7.70582 8.34397
C 8.65737 8.58441 8.00165
H 5.93388 6.18537 5.81574
H 6.9562 7.714 5.53748
H 6.64392 5.79143 7.94162
H 7.40472 7.73084 9.43016
H 8.99611 8.83118 7.01441
H 9.15036 9.15717 8.80062
10
 Atoms. Timestep: 1720
C 6.62101 6.90496 6.20654
C 6.92642 6.77313 7.48279
C 7.70982 7.72324 8.39462
C 8.70582 8.57068 8.01946
H 6.07106 6.14663 5.59468
H 6.96795 7.82214 5.62976
H 6.64679 5.82076 8.01784
H 7.36969 7.82795 9.4057
H 9.06092 8.45907 6.96448
H 9.22915 9.3114 8.65609
10
 Atoms. Timestep: 1740
C 6.63445 6.94333 6.19589
C 6.94614 6.78889 7.54439
C 7.65899 7.76841 8.39004
C 8.7204 8.48756 7.96752
H 6.29547 6.17404 5.54012
H 6.88364 7.9023 5.76963
H 6.57305 5.94814 8.07227
H 7.29241 7.7825 9.41842
H 9.16868 8.18976 7.00378
H 9.15082 9.29411 8.49773
10
 Atoms. Timestep: 1760
C 6.62838 6.94583 6.21746
C 6.93919 6.80788 7.53138
C 7.60874 7.81004 8.34514
C 8.79157 8.42288 7.97942
H 6.34293 6.1257 5.57472
H 6.80089 7.93193 5.80792
H 6.52997 5.94895 8.09546
H 7.22102 7.89068 9.41238
H 9.24458 8.10178 7.05312
H 9.17737 9.30118 8.50506
10
 Atoms. Timestep: 1780
C 6.60476 6.92331 6.2274
C 6.89433 6.817 7.50558
C 7.63776 7.86112 8.31088
C 8.81969 8.38184 8.04639
H 6.17514 6.06667 5.63839
H 6.76493 7.89969 5.66841
H 6.63214 5.86591 8.06748
H 7.16268 8.16777 9.22505
H 9.33898 8.11435 7.11644
H 9.31086 9.20597 8.63174
10
 Atoms. Timestep: 1800
C 6.60381 6.92732 6.217
C 6.91091 6.8448 7.53869
C 7.59996 7.87623 8.29443
C 8.84189 8.35164 8.03095
H 5.98912 6.1454 5.79033
H 6.78606 7.75409 5.55284
H 6.75384 5.90286 8.00548
H 7.04718 8.38824 9.08605
H 9.48808 8.06949 7.18642
H 9.3203 8.95993 8.78142
10
 Atoms. Timestep: 1820
C 6.57846 6.92161 6.22757
C 6.94565 6.87541 7.50385
C 7.60047 7.93149 8.26197
C 8.85494 8.30436 8.03641
H 5.92598 6.14652 5.8795
H 6.8518 7.72039 5.58355
H 6.71361 5.97047 8.07976
H 6.96243 8.41382 9.06348
H 9.50506 7.87491 7.28659
H 9.28805 8.89671 8.81736
10
 Atoms. Timestep: 1840
C 6.56631 6.92076 6.24339
C 6.95136 6.88568 7.49754
C 7.58807 7.97691 8.21165
C 8.87065 8.24829 8.08246
H 5.96972 6.07889 5.78061
H 6.87148 7.79965 5.5931
H 6.54702 6.08981 8.19877
H 7.03103 8.35286 9.04346
H 9.45812 7.64577 7.37552
H 9.3883 9.06325 8.6873
10
 Atoms. Timestep: 1860
C 6.62271 6.93517 6.23927
C 6.87534 6.88994 7.55662
C 7.57473 7.98106 8.21644
C 8.89457 8.19946 8.07093
H 6.12759 6.14628 5.68869
H 6.83053 7.80402 5.61591
H 6.42767 6.14854 8.19042
H 7.0272 8.4753 9.02699
H 9.48438 7.53579 7.43635
H 9.42256 9.07626 8.43109
10
 Atoms. Timestep: 1880
C 6.63977 6.92084 6.20029
C 6.76788 6.92091 7.58292
C 7.60782 7.97122 8.28933
C 8.93083 8.18002 8.03729
H 6.19122 6.11151 5.6663
H 6.96745 7.81137 5.70348
H 6.35459 6.0853 8.15635
H 7.0206 8.73556 8.89968
H 9.48451 7.46401 7.42823
H 9.42779 9.05433 8.37601
10
 Atoms. Timestep: 1900
C 6.62873 6.91193 6.24777
C 6.72744 6.96454 7.55217
C 7.61309 7.97247 8.29541
C 8.92286 8.15942 8.03291
H 6.16001 6.09784 5.65817
H 7.19736 7.71451 5.67769
H 6.30937 6.09997 8.14447
H 7.14798 8.80739 8.77593
H 9.46801 7.42841 7.40803
H 9.48856 9.02172 8.45511
10
 Atoms. Timestep: 1920
C 6.62479 6.91686 6.22656
C 6.7644 6.98606 7.59564
C 7.59997 8.0076 8.20056
C 8.92752 8.12029 8.06555
H 6.01384 6.1379 5.72043
H 7.27313 7.50071 5.56152
H 6.20344 6.29214 8.22011
H 7.12156 8.7406 8.86507
H 9.48921 7.4494 7.43201
H 9.52276 8.91437 8.55996
10
 Atoms. Timestep: 1940
C 6.63236 6.86405 6.23253
C 6.77784 7.01236 7.53445
C 7.61589 8.0655 8.15189
C 8.95944 8.09205 8.09744
H 5.86616 6.22189 5.88069
H 7.21168 7.39016 5.53494
H 6.09622 6.59373 8.26723
H 7.03391 8.58322 8.97823
H 9.51465 7.41774 7.45197
H 9.48823 8.80949 8.67805
10
 Atoms. Timestep: 1960
C 6.64532 6.78561 6.22989
C 6.7739 7.12778 7.5233
C 7.63455 8.03683 8.17703
C 8.94714 8.08223 8.09664
H 5.74781 6.20246 5.92295
H 7.22351 7.35935 5.42294
H 5.94862 6.75816 8.21384
H 7.13601 8.5981 8.93652
H 9.53198 7.38993 7.45282
H 9.53057 8.7173 8.77877
10
 Atoms. Timestep: 1980
C 6.68097 6.7874 6.24742
C 6.66448 7.20312 7.49691
C 7.64121 8.01744 8.24933
C 8.97316 8.04918 8.06434
H 5.85272 6.14789 5.91342
H 7.28772 7.11892 5.39366
H 5.86905 6.81393 8.10583
H 7.25237 8.75419 8.95846
H 9.51946 7.38323 7.40624
H 9.58372 8.65894 8.76334
10
 Atoms. Timestep: 2000
C 6.68159 6.79196 6.20269
C 6.58501 7.26214 7.52257
C 7.65903 8.03654 8.26981
C 8.99955 7.99871 8.0653
H 5.9519 6.04592 5.89776
H 7.51034 6.94124 5.55011
H 5.72138 6.89175 8.07663
H 7.28193 8.78156 9.04193
H 9.45791 7.36209 7.33199
H 9.6495 8.66128 8.62829
10
 Atoms. Timestep: 2020
C 6.6775 6.79412 6.26998
C 6.60497 7.28485 7.48966
C 7.63819 8.05172 8.23218
C 8.98027 7.96148 8.07159
H 5.99378 6.08231 5.82178
H 7.70633 6.88544 5.79918
H 5.63902 7.14706 8.06484
H 7.29524 8.63906 9.0571
H 9.38286 7.28799 7.25982
H 9.70119 8.62511 8.50576
10
 Atoms. Timestep: 2040
C 6.68799 6.72194 6.27827
C 6.59174 7.32326 7.51015
C 7.652 8.03998 8.20729
C 9.0002 7.96005 8.0673
H 5.88614 6.21899 5.71127
H 7.70123 6.84775 5.85052
H 5.63934 7.42935 8.01782
H 7.23589 8.60949 9.03636
H 9.33059 7.25477 7.30663
H 9.7392 8.58831 8.58837
10
 Atoms. Timestep: 2060
C 6.68816 6.6793 6.30589
C 6.5612 7.34808 7.46794
C 7.68812 8.02684 8.23463
C 9.01553 7.96604 8.05781
H 5.82105 6.3874 5.73869
H 7.57373 6.65969 5.72218
H 5.60097 7.53726 7.92412
H 7.25632 8.73834 8.99944
H 9.46245 7.27338 7.37642
H 9.69143 8.50238 8.73055
10
 Atoms. Timestep: 2080
C 6.65265 6.6833 6.30437
C 6.61814 7.40257 7.44641
C 7.66102 8.02155 8.22998
C 9.01744 7.94661 8.08448
H 5.67202 6.42016 5.85803
H 7.56063 6.39467 5.69929
H 5.54349 7.52491 7.78808
H 7.3994 8.77119 8.95575
H 9.61944 7.30524 7.38451
H 9.63355 8.4797 8.81191
10
 Atoms. Timestep: 2100
C 6.63841 6.70668 6.29757
C 6.63524 7.43514 7.40364
C 7.69814 8.04284 8.19572
C 8.99953 7.89267 8.12106
H 5.66199 6.35133 5.99014
H 7.51499 6.2257 5.83524
H 5.64328 7.64649 7.78836
H 7.34254 8.6963 8.99024
H 9.56192 7.33384 7.3762
H 9.57138 8.50231 8.80084
10
 Atoms. Timestep: 2120
C 6.64594 6.67006 6.31118