ITEM: TIMESTEP
0
ITEM: NUMBER OF ATOMS
10
ITEM: BOX BOUNDS pp pp pp
0.0000000000000000e+00 1.5000000000000000e+01
0.0000000000000000e+00 1.5000000000000000e+01
0.0000000000000000e+00 1.5000000000000000e+01
ITEM: ATOMS id type x y z
5 2 7.72761 5.58832 5.56736
10 2 7.57162 8.93306 9.78295
6 2 8.91632 6.21134 6.79101
4 1 7.5516 8.13216 9.08837
7 2 6.29851 7.54724 6.03229
8 2 7.14942 9.34537 7.44988
9 2 7.75571 7.22053 9.53866
1 1 7.9238 6.28307 6.3867
2 1 7.12851 7.31922 6.71767
3 1 7.34689 8.32791 7.76174
ITEM: TIMESTEP
100
ITEM: NUMBER OF ATOMS
10
ITEM: BOX BOUNDS pp pp pp
0.0000000000000000e+00 1.5000000000000000e+01
0.0000000000000000e+00 1.5000000000000000e+01
0.0000000000000000e+00 1.5000000000000000e+01
ITEM: ATOMS id type x y z
5 2 7.60428 5.65585 5.59828
10 2 7.61395 8.97147 9.73082
6 2 8.21032 5.68097 7.43005
4 1 7.63997 8.11182 9.02071
7 2 6.99146 7.96573 5.66399
8 2 7.21073 9.41332 7.4113
9 2 7.78409 7.03369 9.2707
1 1 7.66246 6.13159 6.58015
2 1 7.30585 7.45188 6.60499
3 1 7.34324 8.38787 7.75813
ITEM: TIMESTEP
200
ITEM: NUMBER OF ATOMS
10
ITEM: BOX BOUNDS pp pp pp
0.0000000000000000e+00 1.5000000000000000e+01
0.0000000000000000e+00 1.5000000000000000e+01
0.0000000000000000e+00 1.5000000000000000e+01
ITEM: ATOMS id type x y z
5 2 7.53342 5.44424 5.7322
10 2 7.57337 8.8598 9.86886
6 2 7.38749 5.57399 7.53365
4 1 7.65471 8.1613 9.02893
7 2 7.65619 7.955 5.62755
8 2 7.23149 9.45534 7.38076
9 2 7.82312 7.1358 9.41028
1 1 7.42213 6.11565 6.58444
2 1 7.5068 7.45104 6.565
3 1 7.40285 8.40465 7.71092
ITEM: TIMESTEP
300
ITEM: NUMBER OF ATOMS
10
ITEM: BOX BOUNDS pp pp pp
0.0000000000000000e+00 1.5000000000000000e+01
0.0000000000000000e+00 1.5000000000000000e+01
0.0000000000000000e+00 1.5000000000000000e+01
ITEM: ATOMS id type x y z
5 2 7.30892 5.53727 5.70865
10 2 7.39394 9.00593 9.66194
6 2 6.63714 5.76169 7.42895
4 1 7.66675 8.20151 9.01179
7 2 8.26223 7.71809 5.75158
8 2 7.09753 9.33099 7.42562
9 2 7.97326 7.2752 9.3987
1 1 7.21641 6.15812 6.58936
2 1 7.69907 7.39278 6.6377
3 1 7.49294 8.34606 7.68008
ITEM: TIMESTEP
400
ITEM: NUMBER OF ATOMS
10
ITEM: BOX BOUNDS pp pp pp
0.0000000000000000e+00 1.5000000000000000e+01
0.0000000000000000e+00 1.5000000000000000e+01
0.0000000000000000e+00 1.5000000000000000e+01
ITEM: ATOMS id type x y z
5 2 7.30359 5.49233 5.76796
10 2 7.55475 9.09341 9.63267
6 2 6.07771 5.93306 7.11565
4 1 7.6763 8.20281 8.96567
7 2 8.65995 7.40621 6.01648
8 2 7.3673 9.4238 7.23851
9 2 7.81013 7.18684 9.50571
1 1 7.03127 6.17201 6.60544
2 1 7.77963 7.31226 6.6945
3 1 7.57123 8.42698 7.66973
ITEM: TIMESTEP
500
ITEM: NUMBER OF ATOMS
10
ITEM: BOX BOUNDS pp pp pp
0.0000000000000000e+00 1.5000000000000000e+01
0.0000000000000000e+00 1.5000000000000000e+01
0.0000000000000000e+00 1.5000000000000000e+01
ITEM: ATOMS id type x y z
5 2 6.93349 5.46071 5.86525
10 2 7.39805 9.14266 9.63206
6 2 6.08571 6.25561 7.30947
4 1 7.53921 8.29251 8.99442
7 2 8.54813 7.21503 5.8712
8 2 8.04317 9.32513 7.28719
9 2 7.26307 7.35737 9.41914
1 1 6.91805 6.22102 6.61895
2 1 7.79586 7.23602 6.62786
3 1 7.88894 8.32771 7.67622
ITEM: TIMESTEP
600
ITEM: NUMBER OF ATOMS
10
ITEM: BOX BOUNDS pp pp pp
0.0000000000000000e+00 1.5000000000000000e+01
0.0000000000000000e+00 1.5000000000000000e+01
0.0000000000000000e+00 1.5000000000000000e+01
ITEM: ATOMS id type x y z
5 2 6.8065 5.47144 5.85199
10 2 7.80721 9.18801 9.56694
6 2 5.97955 6.29183 7.34319
4 1 7.44214 8.40047 8.92749
7 2 8.49199 7.13858 5.81252
8 2 8.88637 8.9154 7.47064
9 2 6.55144 7.82859 9.16142
1 1 6.81464 6.27789 6.637
2 1 7.75306 7.20996 6.66009
3 1 8.09032 8.17604 7.72247
ITEM: TIMESTEP
700
ITEM: NUMBER OF ATOMS
10
ITEM: BOX BOUNDS pp pp pp
0.0000000000000000e+00 1.5000000000000000e+01
0.0000000000000000e+00 1.5000000000000000e+01
0.0000000000000000e+00 1.5000000000000000e+01
ITEM: ATOMS id type x y z
5 2 6.59286 5.76814 5.71348
10 2 7.93384 9.29247 9.44887
6 2 5.90509 6.12696 7.3708
4 1 7.43318 8.54563 8.76972
7 2 8.46343 7.27255 5.89802
8 2 9.25181 8.26112 7.77346
9 2 6.30062 8.59192 8.92224
1 1 6.67377 6.3384 6.61265
2 1 7.81107 7.10867 6.74385
3 1 8.19471 7.99178 7.83413
ITEM: TIMESTEP
800
ITEM: NUMBER OF ATOMS
10
ITEM: BOX BOUNDS pp pp pp
0.0000000000000000e+00 1.5000000000000000e+01
0.0000000000000000e+00 1.5000000000000000e+01
0.0000000000000000e+00 1.5000000000000000e+01
ITEM: ATOMS id type x y z
5 2 6.33141 5.85024 5.71474
10 2 7.8777 9.11301 9.56311
6 2 6.0305 6.30408 7.49474
4 1 7.48571 8.69618 8.6686
7 2 8.40154 7.14517 5.85263
8 2 9.19811 7.68126 8.27144
9 2 6.54531 9.05984 8.31325
1 1 6.64637 6.39888 6.60844
2 1 7.79888 7.0687 6.76352
3 1 8.19228 7.84731 7.90596
ITEM: TIMESTEP
900
ITEM: NUMBER OF ATOMS
10
ITEM: BOX BOUNDS pp pp pp
0.0000000000000000e+00 1.5000000000000000e+01
0.0000000000000000e+00 1.5000000000000000e+01
0.0000000000000000e+00 1.5000000000000000e+01
ITEM: ATOMS id type x y z
5 2 6.26124 6.00721 5.64762
10 2 7.83174 9.26273 9.51846
6 2 5.74439 6.46845 7.36389
4 1 7.53283 8.77576 8.56129
7 2 8.54224 6.84962 5.96737
8 2 9.26367 7.52593 8.49846
9 2 6.6357 9.18733 8.10182
1 1 6.56286 6.47685 6.60187
2 1 7.79112 6.99055 6.78853
3 1 8.25403 7.7433 8.01355
ITEM: TIMESTEP
1000
ITEM: NUMBER OF ATOMS
10
ITEM: BOX BOUNDS pp pp pp
0.0000000000000000e+00 1.5000000000000000e+01
0.0000000000000000e+00 1.5000000000000000e+01
0.0000000000000000e+00 1.5000000000000000e+01
ITEM: ATOMS id type x y z
5 2 6.45058 5.90578 5.6852
10 2 8.14164 9.30267 9.34001
6 2 5.60868 7.02463 6.93265
4 1 7.62437 8.81235 8.52476
7 2 8.5367 6.28687 6.44543
8 2 9.17203 7.44937 8.43209
9 2 6.66247 9.1993 8.10094
1 1 6.48533 6.60514 6.50154
2 1 7.75626 6.85709 6.92351
3 1 8.22603 7.73398 8.04231
ITEM: TIMESTEP
1100
ITEM: NUMBER OF ATOMS
10
ITEM: BOX BOUNDS pp pp pp
0.0000000000000000e+00 1.5000000000000000e+01
0.0000000000000000e+00 1.5000000000000000e+01
0.0000000000000000e+00 1.5000000000000000e+01
ITEM: ATOMS id type x y z
5 2 6.1674 5.85681 5.78111
10 2 8.35358 9.51621 9.11824
6 2 5.84291 7.57454 6.379
4 1 7.74568 8.86248 8.48731
7 2 8.29678 5.81014 7.05315
8 2 9.07276 7.25179 8.44482
9 2 6.82156 9.27729 8.23823
1 1 6.53344 6.69975 6.38345
2 1 7.66385 6.73543 7.07883
3 1 8.15187 7.69121 8.02949
ITEM: TIMESTEP
1200
ITEM: NUMBER OF ATOMS
10
ITEM: BOX BOUNDS pp pp pp
0.0000000000000000e+00 1.5000000000000000e+01
0.0000000000000000e+00 1.5000000000000000e+01
0.0000000000000000e+00 1.5000000000000000e+01
ITEM: ATOMS id type x y z
5 2 5.97763 6.07156 5.88166
10 2 8.47903 9.63096 8.76289
6 2 6.41196 7.90966 5.98074
4 1 7.80435 8.86818 8.36519
7 2 7.76277 5.611 7.61673
8 2 9.1878 7.16817 8.49545
9 2 6.74541 9.13559 8.09195
1 1 6.58317 6.88023 6.29316
2 1 7.48744 6.61748 7.27809
3 1 8.21827 7.58295 8.07349
ITEM: TIMESTEP
1300
ITEM: NUMBER OF ATOMS
10
ITEM: BOX BOUNDS pp pp pp
0.0000000000000000e+00 1.5000000000000000e+01
0.0000000000000000e+00 1.5000000000000000e+01
0.0000000000000000e+00 1.5000000000000000e+01
ITEM: ATOMS id type x y z
5 2 5.9953 6.17139 5.73198
10 2 8.71666 9.52324 8.79481
6 2 6.92332 7.73223 5.63486
4 1 7.96404 8.85665 8.3393
7 2 6.97576 5.74013 7.93348
8 2 9.10278 7.16774 8.42748
9 2 6.98503 9.2991 8.13255
1 1 6.68926 6.82105 6.21411
2 1 7.19946 6.68022 7.45591
3 1 8.2181 7.57311 8.02966
ITEM: TIMESTEP
1400
ITEM: NUMBER OF ATOMS
10
ITEM: BOX BOUNDS pp pp pp
0.0000000000000000e+00 1.5000000000000000e+01
0.0000000000000000e+00 1.5000000000000000e+01
0.0000000000000000e+00 1.5000000000000000e+01
ITEM: ATOMS id type x y z
5 2 6.01126 6.04851 5.74923
10 2 8.82655 9.33901 8.92668
6 2 7.11736 7.61716 5.56681
4 1 8.14277 8.85859 8.23895
7 2 6.66723 5.90042 8.12196
8 2 8.88838 6.98558 8.67285
9 2 7.35857 9.50288 7.86542
1 1 6.69494 6.82595 6.20292
2 1 7.07364 6.73499 7.46766
3 1 8.13109 7.55154 8.08815
ITEM: TIMESTEP
1500
ITEM: NUMBER OF ATOMS
10
ITEM: BOX BOUNDS pp pp pp
0.0000000000000000e+00 1.5000000000000000e+01
0.0000000000000000e+00 1.5000000000000000e+01
0.0000000000000000e+00 1.5000000000000000e+01
ITEM: ATOMS id type x y z
5 2 6.00502 6.20124 5.7003
10 2 8.91504 9.35514 8.86419
6 2 7.08327 7.69036 5.61616
4 1 8.31382 8.84688 8.0956
7 2 6.66415 5.92571 8.09984
8 2 8.4252 6.89325 9.0929
9 2 7.76232 9.40792 7.34042
1 1 6.65721 6.88647 6.19208
2 1 7.0625 6.6923 7.46576
3 1 8.01131 7.53208 8.27576
ITEM: TIMESTEP
1600
ITEM: NUMBER OF ATOMS
10
ITEM: BOX BOUNDS pp pp pp
0.0000000000000000e+00 1.5000000000000000e+01
0.0000000000000000e+00 1.5000000000000000e+01
0.0000000000000000e+00 1.5000000000000000e+01
ITEM: ATOMS id type x y z
5 2 6.06315 6.18644 5.58002
10 2 9.13592 9.35584 8.66747
6 2 7.07098 7.78233 5.67101
4 1 8.48803 8.7399 8.04645
7 2 6.64059 5.81035 7.97244
8 2 8.06461 7.19353 9.33961
9 2 8.16424 9.17574 7.0773
1 1 6.65355 6.89096 6.19496
2 1 7.00056 6.72975 7.47533
3 1 7.85527 7.59203 8.38012
ITEM: TIMESTEP
1700
ITEM: NUMBER OF ATOMS
10
ITEM: BOX BOUNDS pp pp pp
0.0000000000000000e+00 1.5000000000000000e+01
0.0000000000000000e+00 1.5000000000000000e+01
0.0000000000000000e+00 1.5000000000000000e+01
ITEM: ATOMS id type x y z
5 2 5.93388 6.18537 5.81574
10 2 9.15036 9.15717 8.80062
6 2 6.9562 7.714 5.53748
4 1 8.65737 8.58441 8.00165
7 2 6.64392 5.79143 7.94162
8 2 7.40472 7.73084 9.43016
9 2 8.99611 8.83118 7.01441
1 1 6.6484 6.91002 6.20092
2 1 6.97608 6.76809 7.51162
3 1 7.72462 7.70582 8.34397
ITEM: TIMESTEP
1800
ITEM: NUMBER OF ATOMS
10
ITEM: BOX BOUNDS pp pp pp
0.0000000000000000e+00 1.5000000000000000e+01
0.0000000000000000e+00 1.5000000000000000e+01
0.0000000000000000e+00 1.5000000000000000e+01
ITEM: ATOMS id type x y z
5 2 5.98912 6.1454 5.79033
10 2 9.3203 8.95993 8.78142
6 2 6.78606 7.75409 5.55284
4 1 8.84189 8.35164 8.03095
7 2 6.75384 5.90286 8.00548
8 2 7.04718 8.38824 9.08605
9 2 9.48808 8.06949 7.18642
1 1 6.60381 6.92732 6.217
2 1 6.91091 6.8448 7.53869
3 1 7.59996 7.87623 8.29443
ITEM: TIMESTEP
1900
ITEM: NUMBER OF ATOMS
10
ITEM: BOX BOUNDS pp pp pp
0.0000000000000000e+00 1.5000000000000000e+01
0.0000000000000000e+00 1.5000000000000000e+01
0.0000000000000000e+00 1.5000000000000000e+01
ITEM: ATOMS id type x y z
5 2 6.16001 6.09784 5.65817
10 2 9.48856 9.02172 8.45511
6 2 7.19736 7.71451 5.67769
4 1 8.92286 8.15942 8.03291
7 2 6.30937 6.09997 8.14447
8 2 7.14798 8.80739 8.77593
9 2 9.46801 7.42841 7.40803
1 1 6.62873 6.91193 6.24777
2 1 6.72744 6.96454 7.55217
3 1 7.61309 7.97247 8.29541
ITEM: TIMESTEP
2000
ITEM: NUMBER OF ATOMS
10
ITEM: BOX BOUNDS pp pp pp
0.0000000000000000e+00 1.5000000000000000e+01
0.0000000000000000e+00 1.5000000000000000e+01
0.0000000000000000e+00 1.5000000000000000e+01
ITEM: ATOMS id type x y z
5 2 5.9519 6.04592 5.89776
10 2 9.6495 8.66128 8.62829
6 2 7.51034 6.94124 5.55011
4 1 8.99955 7.99871 8.0653
7 2 5.72138 6.89175 8.07663
8 2 7.28193 8.78156 9.04193
9 2 9.45791 7.36209 7.33199
1 1 6.68159 6.79196 6.20269
2 1 6.58501 7.26214 7.52257
3 1 7.65903 8.03654 8.26981
ITEM: TIMESTEP
2100
ITEM: NUMBER OF ATOMS
10
ITEM: BOX BOUNDS pp pp pp
0.0000000000000000e+00 1.5000000000000000e+01
0.0000000000000000e+00 1.5000000000000000e+01
0.0000000000000000e+00 1.5000000000000000e+01
ITEM: ATOMS id type x y z
5 2 5.66199 6.35133 5.99014
10 2 9.57138 8.50231 8.80084
6 2 7.51499 6.2257 5.83524
4 1 8.99953 7.89267 8.12106
7 2 5.64328 7.64649 7.78836
8 2 7.34254 8.6963 8.99024
9 2 9.56192 7.33384 7.3762
1 1 6.63841 6.70668 6.29757
2 1 6.63524 7.43514 7.40364
3 1 7.69814 8.04284 8.19572
ITEM: TIMESTEP
2200
ITEM: NUMBER OF ATOMS
10
ITEM: BOX BOUNDS pp pp pp
0.0000000000000000e+00 1.5000000000000000e+01
0.0000000000000000e+00 1.5000000000000000e+01
0.0000000000000000e+00 1.5000000000000000e+01
ITEM: ATOMS id type x y z
5 2 5.71975 6.39353 5.76194
10 2 9.74471 8.29362 8.84585
6 2 7.41106 5.88064 6.32104
4 1 9.03163 7.7938 8.1455
7 2 5.70276 8.20134 7.55128
8 2 7.33285 8.71182 8.95947
9 2 9.47473 7.2096 7.31724
1 1 6.61034 6.63503 6.38157
2 1 6.62833 7.58541 7.33523
3 1 7.68605 8.07401 8.15973
ITEM: TIMESTEP
2300
ITEM: NUMBER OF ATOMS
10
ITEM: BOX BOUNDS pp pp pp
0.0000000000000000e+00 1.5000000000000000e+01
0.0000000000000000e+00 1.5000000000000000e+01
0.0000000000000000e+00 1.5000000000000000e+01
ITEM: ATOMS id type x y z
5 2 5.89785 6.36128 5.75161
10 2 9.73478 7.81209 8.89532
6 2 7.13006 5.77503 6.97865
4 1 9.00644 7.69082 8.13846
7 2 5.91027 8.50293 7.0053
8 2 7.30141 8.70891 9.0165
9 2 9.32919 7.23118 7.1995
1 1 6.55818 6.57517 6.54047
2 1 6.68054 7.7895 7.14743
3 1 7.72491 8.08262 8.18066
ITEM: TIMESTEP
2400
ITEM: NUMBER OF ATOMS
10
ITEM: BOX BOUNDS pp pp pp
0.0000000000000000e+00 1.5000000000000000e+01
0.0000000000000000e+00 1.5000000000000000e+01
0.0000000000000000e+00 1.5000000000000000e+01
ITEM: ATOMS id type x y z
5 2 5.65341 6.49275 5.79662
10 2 9.74708 7.83411 9.02676
6 2 6.52771 5.71806 7.39027
4 1 9.00529 7.6281 8.2253
7 2 6.39842 8.68704 6.44531
8 2 7.38372 8.77031 8.86691
9 2 9.39479 7.04186 7.38182
1 1 6.37035 6.61504 6.69442
2 1 6.90458 7.8287 6.93718
3 1 7.72293 8.0408 8.13997
ITEM: TIMESTEP
2500
ITEM: NUMBER OF ATOMS
10
ITEM: BOX BOUNDS pp pp pp
0.0000000000000000e+00 1.5000000000000000e+01
0.0000000000000000e+00 1.5000000000000000e+01
0.0000000000000000e+00 1.5000000000000000e+01
ITEM: ATOMS id type x y z
5 2 5.46962 6.63735 6.03567
10 2 9.59762 7.94531 9.05106
6 2 6.31101 5.93297 7.43767
4 1 8.93825 7.43335 8.35942
7 2 6.7072 8.72495 6.35818
8 2 7.57739 9.10429 8.36901
9 2 9.26264 6.52384 7.87037
1 1 6.25363 6.70741 6.74282
2 1 6.98694 7.79113 6.87776
3 1 7.85426 8.12666 7.98118
ITEM: TIMESTEP
2600
ITEM: NUMBER OF ATOMS
10
ITEM: BOX BOUNDS pp pp pp
0.0000000000000000e+00 1.5000000000000000e+01
0.0000000000000000e+00 1.5000000000000000e+01
0.0000000000000000e+00 1.5000000000000000e+01
ITEM: ATOMS id type x y z
5 2 5.46021 6.49101 6.01469
10 2 9.67672 7.59725 9.1407
6 2 6.32392 6.01191 7.58228
4 1 8.81037 7.35179 8.51522
7 2 6.80465 8.76929 6.30162
8 2 8.27182 9.2864 7.77098
9 2 8.59144 6.28226 8.38271
1 1 6.18992 6.74175 6.78098
2 1 6.95748 7.86421 6.8679
3 1 8.04144 8.17256 7.78524
ITEM: TIMESTEP
2700
ITEM: NUMBER OF ATOMS
10
ITEM: BOX BOUNDS pp pp pp
0.0000000000000000e+00 1.5000000000000000e+01
0.0000000000000000e+00 1.5000000000000000e+01
0.0000000000000000e+00 1.5000000000000000e+01
ITEM: ATOMS id type x y z
5 2 5.24478 6.7977 6.16556
10 2 9.54754 7.60391 9.23947
6 2 6.26174 6.0384 7.66728
4 1 8.70209 7.31873 8.62881
7 2 6.7206 8.6583 6.0843
8 2 8.72081 9.0136 7.38169
9 2 8.25835 6.32007 8.76273
1 1 6.14188 6.83666 6.84305
2 1 6.99255 7.87053 6.8174
3 1 8.22518 8.10541 7.64207
ITEM: TIMESTEP
2800
ITEM: NUMBER OF ATOMS
10
ITEM: BOX BOUNDS pp pp pp
0.0000000000000000e+00 1.5000000000000000e+01
0.0000000000000000e+00 1.5000000000000000e+01
0.0000000000000000e+00 1.5000000000000000e+01
ITEM: ATOMS id type x y z
5 2 5.2049 7.07115 6.23711
10 2 9.62344 7.66083 9.18101
6 2 5.94412 6.15036 7.55968
4 1 8.65735 7.36201 8.72965
7 2 6.9113 8.58388 5.96055
8 2 9.14319 8.54261 7.13245
9 2 8.12312 6.56689 9.26489
1 1 6.044 6.92284 6.86779
2 1 7.02323 7.8754 6.78207
3 1 8.3044 7.94713 7.54604
ITEM: TIMESTEP
2900
ITEM: NUMBER OF ATOMS
10
ITEM: BOX BOUNDS pp pp pp
0.0000000000000000e+00 1.5000000000000000e+01
0.0000000000000000e+00 1.5000000000000000e+01
0.0000000000000000e+00 1.5000000000000000e+01
ITEM: ATOMS id type x y z
5 2 5.14035 7.32341 6.24267
10 2 9.59463 7.39246 9.06943
6 2 5.9313 6.27343 7.61083
4 1 8.55895 7.45856 8.7728
7 2 7.06208 8.51818 5.90497
8 2 9.29838 7.64898 6.84137
9 2 7.81808 7.26027 9.51426
1 1 6.02297 7.09217 6.89668
2 1 7.08242 7.83435 6.78122
3 1 8.38219 7.74879 7.50021
ITEM: TIMESTEP
3000
ITEM: NUMBER OF ATOMS
10
ITEM: BOX BOUNDS pp pp pp
0.0000000000000000e+00 1.5000000000000000e+01
0.0000000000000000e+00 1.5000000000000000e+01
0.0000000000000000e+00 1.5000000000000000e+01
ITEM: ATOMS id type x y z
5 2 5.09514 7.86987 6.5463
10 2 9.30252 7.18216 9.44303
6 2 5.74687 6.41601 7.6876
4 1 8.54449 7.60243 8.79781
7 2 7.32493 8.54148 5.90851
8 2 9.04473 6.72948 6.90723
9 2 7.70629 8.08754 9.29612
1 1 5.95743 7.30207 6.95663
2 1 7.22813 7.77121 6.65014
3 1 8.42054 7.38986 7.44545
ITEM: TIMESTEP
3100
ITEM: NUMBER OF ATOMS
10
ITEM: BOX BOUNDS pp pp pp
0.0000000000000000e+00 1.5000000000000000e+01
0.0000000000000000e+00 1.5000000000000000e+01
0.0000000000000000e+00 1.5000000000000000e+01
ITEM: ATOMS id type x y z
5 2 5.21952 7.993 6.26978
10 2 9.3548 7.19705 9.45767
6 2 5.59593 7.20572 7.84181
4 1 8.58099 7.62113 8.77561
7 2 7.45509 7.9465 5.6089
8 2 8.9984 6.39857 7.12777
9 2 7.84442 8.30789 9.29573
1 1 5.94862 7.58202 6.94538
2 1 7.23869 7.61947 6.635
3 1 8.34101 7.20593 7.52523
ITEM: TIMESTEP
3200
ITEM: NUMBER OF ATOMS
10
ITEM: BOX BOUNDS pp pp pp
0.0000000000000000e+00 1.5000000000000000e+01
0.0000000000000000e+00 1.5000000000000000e+01
0.0000000000000000e+00 1.5000000000000000e+01
ITEM: ATOMS id type x y z
5 2 5.32436 8.03523 6.03968
10 2 9.50391 7.25184 9.20117
6 2 5.51316 8.069 7.91356
4 1 8.54991 7.59426 8.79799
7 2 7.44942 7.23802 5.57987
8 2 9.10501 6.38644 7.19377
9 2 7.85862 8.18091 9.37429
1 1 5.9759 7.87214 6.90985
2 1 7.21204 7.44701 6.66675
3 1 8.32374 7.09635 7.55652
ITEM: TIMESTEP
3300
ITEM: NUMBER OF ATOMS
10
ITEM: BOX BOUNDS pp pp pp
0.0000000000000000e+00 1.5000000000000000e+01
0.0000000000000000e+00 1.5000000000000000e+01
0.0000000000000000e+00 1.5000000000000000e+01
ITEM: ATOMS id type x y z
5 2 5.19852 8.05153 6.16159
10 2 9.38954 7.25457 9.37707
6 2 5.92884 8.73379 7.72847
4 1 8.54753 7.56172 8.79494
7 2 7.24235 6.74855 5.75947
8 2 9.00634 6.31887 7.20464
9 2 7.87001 8.21653 9.35171
1 1 6.06574 8.09572 6.84775
2 1 7.16287 7.28984 6.65386
3 1 8.30526 7.03541 7.58779
ITEM: TIMESTEP
3400
ITEM: NUMBER OF ATOMS
10
ITEM: BOX BOUNDS pp pp pp
0.0000000000000000e+00 1.5000000000000000e+01
0.0000000000000000e+00 1.5000000000000000e+01
0.0000000000000000e+00 1.5000000000000000e+01
ITEM: ATOMS id type x y z
5 2 5.34834 8.27743 6.1644
10 2 9.49546 7.36484 9.38472
6 2 6.51317 9.05096 7.37894
4 1 8.55226 7.55306 8.79123
7 2 6.80393 6.43314 5.96117
8 2 8.95878 6.28284 7.1398
9 2 7.76226 8.19373 9.21349
1 1 6.23612 8.24406 6.74133
2 1 7.04775 7.16177 6.7831
3 1 8.20421 6.97728 7.62542
ITEM: TIMESTEP
3500
ITEM: NUMBER OF ATOMS
10
ITEM: BOX BOUNDS pp pp pp
0.0000000000000000e+00 1.5000000000000000e+01
0.0000000000000000e+00 1.5000000000000000e+01
0.0000000000000000e+00 1.5000000000000000e+01
ITEM: ATOMS id type x y z
5 2 5.48693 8.49607 6.03063
10 2 9.4466 7.25983 9.29277
6 2 7.06303 9.31578 6.576
4 1 8.55091 7.48967 8.79631
7 2 6.3578 6.18041 6.75218
8 2 8.80107 6.2964 7.01492
9 2 7.90888 8.178 9.3411
1 1 6.46905 8.35267 6.551
2 1 6.83432 7.16773 7.02921
3 1 8.15566 6.90552 7.60371
ITEM: TIMESTEP
3600
ITEM: NUMBER OF ATOMS
10
ITEM: BOX BOUNDS pp pp pp
0.0000000000000000e+00 1.5000000000000000e+01
0.0000000000000000e+00 1.5000000000000000e+01
0.0000000000000000e+00 1.5000000000000000e+01
ITEM: ATOMS id type x y z
5 2 5.68082 8.60355 5.87825
10 2 9.46263 6.94631 9.22672
6 2 7.48134 9.0239 6.1862
4 1 8.57536 7.43464 8.74644
7 2 6.00354 6.59211 7.09606
8 2 8.45966 5.92951 7.28233
9 2 8.18217 8.39651 9.08158
1 1 6.62026 8.37965 6.38671
2 1 6.76425 7.28482 7.15826
3 1 8.01578 6.85557 7.73156
ITEM: TIMESTEP
3700
ITEM: NUMBER OF ATOMS
10
ITEM: BOX BOUNDS pp pp pp
0.0000000000000000e+00 1.5000000000000000e+01
0.0000000000000000e+00 1.5000000000000000e+01
0.0000000000000000e+00 1.5000000000000000e+01
ITEM: ATOMS id type x y z
5 2 5.85787 8.82003 5.81494
10 2 9.57652 7.02574 9.21945
6 2 7.70495 8.94424 6.26793
4 1 8.70852 7.42298 8.67859
7 2 5.76097 6.62648 6.9606
8 2 7.77944 5.6598 7.99204
9 2 8.74329 8.53267 8.55138
1 1 6.76001 8.44013 6.34402
2 1 6.6808 7.31266 7.07146
3 1 7.80084 6.75941 7.91971
ITEM: TIMESTEP
3800
ITEM: NUMBER OF ATOMS
10
ITEM: BOX BOUNDS pp pp pp
0.0000000000000000e+00 1.5000000000000000e+01
0.0000000000000000e+00 1.5000000000000000e+01
0.0000000000000000e+00 1.5000000000000000e+01
ITEM: ATOMS id type x y z
5 2 6.08021 8.72041 5.59262
10 2 9.37159 6.77313 9.24633
6 2 7.77012 9.05955 6.28699
4 1 8.79947 7.35559 8.54241
7 2 5.80816 6.73291 6.93013
8 2 7.19007 5.91445 8.5755
9 2 9.19683 8.1982 8.02592
1 1 6.83367 8.45878 6.30214
2 1 6.72599 7.34885 7.04342
3 1 7.59204 6.80701 8.15062
ITEM: TIMESTEP
3900
ITEM: NUMBER OF ATOMS
10
ITEM: BOX BOUNDS pp pp pp
0.0000000000000000e+00 1.5000000000000000e+01
0.0000000000000000e+00 1.5000000000000000e+01
0.0000000000000000e+00 1.5000000000000000e+01
ITEM: ATOMS id type x y z
5 2 6.25677 8.60403 5.33821
10 2 9.27471 6.6164 9.30592
6 2 7.73006 9.10264 6.29877
4 1 8.78274 7.13985 8.46692
7 2 5.87506 6.7986 6.99187
8 2 7.00683 6.46503 9.08274
9 2 9.51559 7.56542 7.7311
1 1 6.8757 8.45375 6.25276
2 1 6.75175 7.3815 7.06698
3 1 7.50063 7.03622 8.23673
ITEM: TIMESTEP
4000
ITEM: NUMBER OF ATOMS
10
ITEM: BOX BOUNDS pp pp pp
0.0000000000000000e+00 1.5000000000000000e+01
0.0000000000000000e+00 1.5000000000000000e+01
0.0000000000000000e+00 1.5000000000000000e+01
ITEM: ATOMS id type x y z
5 2 6.41515 8.54802 5.32697
10 2 9.27102 6.73591 9.34957
6 2 7.82529 9.10206 6.40412
4 1 8.80009 6.96007 8.39672
7 2 5.75632 6.82316 6.87866
8 2 6.80603 7.22795 9.16219
9 2 9.44757 6.79109 7.55335
1 1 6.96175 8.41752 6.24227
2 1 6.70912 7.42027 7.09703
3 1 7.46281 7.20078 8.29968
ITEM: TIMESTEP
4100
ITEM: NUMBER OF ATOMS
10
ITEM: BOX BOUNDS pp pp pp
0.0000000000000000e+00 1.5000000000000000e+01
0.0000000000000000e+00 1.5000000000000000e+01
0.0000000000000000e+00 1.5000000000000000e+01
ITEM: ATOMS id type x y z
5 2 6.49291 8.33169 5.2439
10 2 9.32644 6.64672 9.27185
6 2 8.01235 8.9476 6.1739
4 1 8.73494 6.81643 8.38569
7 2 5.65661 7.12912 7.11308
8 2 6.91041 7.43168 9.3127
9 2 9.15035 6.53266 7.39047
1 1 7.11741 8.33849 6.14108
2 1 6.63766 7.588 7.17428
3 1 7.43914 7.29051 8.3628
ITEM: TIMESTEP
4200
ITEM: NUMBER OF ATOMS
10
ITEM: BOX BOUNDS pp pp pp
0.0000000000000000e+00 1.5000000000000000e+01
0.0000000000000000e+00 1.5000000000000000e+01
0.0000000000000000e+00 1.5000000000000000e+01
ITEM: ATOMS id type x y z
5 2 6.45573 8.58012 5.16576
10 2 9.10009 6.4233 9.41531
6 2 8.18312 8.1686 5.72994
4 1 8.6308 6.71688 8.41922
7 2 5.71918 8.13284 7.43586
8 2 6.98877 7.39441 9.43708
9 2 9.2467 6.46681 7.54355
1 1 7.09627 8.16532 5.96785
2 1 6.73088 7.86196 7.23015
3 1 7.44712 7.26483 8.40969
ITEM: TIMESTEP
4300
ITEM: NUMBER OF ATOMS
10
ITEM: BOX BOUNDS pp pp pp
0.0000000000000000e+00 1.5000000000000000e+01
0.0000000000000000e+00 1.5000000000000000e+01
0.0000000000000000e+00 1.5000000000000000e+01
ITEM: ATOMS id type x y z
5 2 6.59022 8.68147 5.31215
10 2 8.68802 6.14219 9.37969
6 2 7.87764 7.35869 5.49281
4 1 8.55673 6.58476 8.43843
7 2 6.11717 8.94762 7.62651
8 2 6.91514 7.46477 9.32561
9 2 9.2192 6.52973 7.61704
1 1 7.09719 7.95502 5.93058
2 1 6.85495 8.13337 7.2609
3 1 7.44389 7.34278 8.39263
ITEM: TIMESTEP
4400
ITEM: NUMBER OF ATOMS
10
ITEM: BOX BOUNDS pp pp pp
0.0000000000000000e+00 1.5000000000000000e+01
0.0000000000000000e+00 1.5000000000000000e+01
0.0000000000000000e+00 1.5000000000000000e+01
ITEM: ATOMS id type x y z
5 2 6.94171 8.67919 5.2087
10 2 8.6909 5.83594 9.3111
6 2 7.27512 6.8697 5.65505
4 1 8.44772 6.5299 8.45573
7 2 6.90069 9.30004 7.45101
8 2 6.71035 7.54955 9.26469
9 2 9.26271 6.49194 7.70217
1 1 6.99471 7.88321 5.96162
2 1 7.04982 8.25586 7.23594
3 1 7.39818 7.41329 8.39609
ITEM: TIMESTEP
4500
ITEM: NUMBER OF ATOMS
10
ITEM: BOX BOUNDS pp pp pp
0.0000000000000000e+00 1.5000000000000000e+01
0.0000000000000000e+00 1.5000000000000000e+01
0.0000000000000000e+00 1.5000000000000000e+01
ITEM: ATOMS id type x y z
5 2 6.92823 8.47061 5.05173
10 2 8.35027 5.89138 9.40747
6 2 6.94002 6.80797 5.70574
4 1 8.29858 6.45329 8.49379
7 2 7.29434 9.38109 7.35265
8 2 6.82475 7.62597 9.23475
9 2 9.05436 6.34451 7.69553
1 1 6.95161 7.8779 5.97946
2 1 7.23048 8.29963 7.22472
3 1 7.47467 7.48559 8.37555
ITEM: TIMESTEP
4600
ITEM: NUMBER OF ATOMS
10
ITEM: BOX BOUNDS pp pp pp
0.0000000000000000e+00 1.5000000000000000e+01
0.0000000000000000e+00 1.5000000000000000e+01
0.0000000000000000e+00 1.5000000000000000e+01
ITEM: ATOMS id type x y z
5 2 6.86994 8.57045 5.17674
10 2 8.28129 5.97671 9.48587
6 2 6.93374 6.77774 5.70251
4 1 8.09939 6.35304 8.48831
7 2 7.37073 9.45799 7.29645
8 2 7.30473 8.07865 9.35934
9 2 8.55009 5.68775 7.77978
1 1 6.95965 7.83169 5.9326
2 1 7.34345 8.33028 7.1746
3 1 7.56642 7.59678 8.41921
ITEM: TIMESTEP
4700
ITEM: NUMBER OF ATOMS
10
ITEM: BOX BOUNDS pp pp pp
0.0000000000000000e+00 1.5000000000000000e+01
0.0000000000000000e+00 1.5000000000000000e+01
0.0000000000000000e+00 1.5000000000000000e+01
ITEM: ATOMS id type x y z
5 2 6.77493 8.53726 5.11036
10 2 8.23453 5.90473 9.60847
6 2 6.96828 6.79955 5.66285
4 1 7.85534 6.27878 8.64259
7 2 7.45091 9.45099 7.06886
8 2 7.96672 8.28544 9.21108
9 2 7.63794 5.56406 7.81631
1 1 7.02282 7.85295 5.96207
2 1 7.40247 8.37776 7.10215
3 1 7.73449 7.60351 8.36171
ITEM: TIMESTEP
4800
ITEM: NUMBER OF ATOMS
10
ITEM: BOX BOUNDS pp pp pp
0.0000000000000000e+00 1.5000000000000000e+01
0.0000000000000000e+00 1.5000000000000000e+01
0.0000000000000000e+00 1.5000000000000000e+01
ITEM: ATOMS id type x y z
5 2 6.64101 8.53536 5.15318
10 2 8.03652 5.87237 9.56431
6 2 7.04782 6.74253 5.826
4 1 7.57181 6.34772 8.70839
7 2 7.63982 9.3813 7.20356
8 2 8.63405 8.15463 8.93992
9 2 6.81903 5.79552 8.16757
1 1 7.04981 7.85306 5.90546
2 1 7.48727 8.31873 7.07302
3 1 7.94207 7.60353 8.31887
ITEM: TIMESTEP
4900
ITEM: NUMBER OF ATOMS
10
ITEM: BOX BOUNDS pp pp pp
0.0000000000000000e+00 1.5000000000000000e+01
0.0000000000000000e+00 1.5000000000000000e+01
0.0000000000000000e+00 1.5000000000000000e+01
ITEM: ATOMS id type x y z
5 2 6.63118 8.50967 5.16406
10 2 7.83729 5.96188 9.60968
6 2 6.98521 6.79108 5.67982
4 1 7.37352 6.49006 8.78121
7 2 7.72975 9.38021 7.36748
8 2 9.07508 7.7793 8.54222
9 2 6.3177 6.30415 8.5187
1 1 7.08989 7.831 5.90099
2 1 7.56333 8.30007 7.10412
3 1 8.06456 7.46116 8.21486
ITEM: TIMESTEP
5000
ITEM: NUMBER OF ATOMS
10
ITEM: BOX BOUNDS pp pp pp
0.0000000000000000e+00 1.5000000000000000e+01
0.0000000000000000e+00 1.5000000000000000e+01
0.0000000000000000e+00 1.5000000000000000e+01
ITEM: ATOMS id type x y z
5 2 6.82447 8.58351 5.15506
10 2 7.62412 5.97735 9.71548
6 2 6.67436 6.84099 5.87437
4 1 7.29885 6.54998 8.84734
7 2 8.00346 9.28037 7.06285
8 2 9.07516 7.56541 8.49187
9 2 6.23015 6.52301 8.67035
1 1 7.08168 7.87899 5.94425
2 1 7.67775 8.24656 7.05376
3 1 8.0571 7.39936 8.14115
ITEM: TIMESTEP
5100
ITEM: NUMBER OF ATOMS
10
ITEM: BOX BOUNDS pp pp pp
0.0000000000000000e+00 1.5000000000000000e+01
0.0000000000000000e+00 1.5000000000000000e+01
0.0000000000000000e+00 1.5000000000000000e+01
ITEM: ATOMS id type x y z
5 2 6.92418 8.59047 5.13834
10 2 7.38482 6.16026 9.82804
6 2 6.16397 7.16993 6.01356
4 1 7.20074 6.59642 8.85325
7 2 8.54158 8.9877 6.81119
8 2 9.05307 7.58491 8.75054
9 2 6.13429 6.52326 8.57132
1 1 6.96542 7.89182 5.97389
2 1 7.87269 8.16572 6.96213
3 1 8.11484 7.37995 8.1734
ITEM: TIMESTEP
5200
ITEM: NUMBER OF ATOMS
10
ITEM: BOX BOUNDS pp pp pp
0.0000000000000000e+00 1.5000000000000000e+01
0.0000000000000000e+00 1.5000000000000000e+01
0.0000000000000000e+00 1.5000000000000000e+01
ITEM: ATOMS id type x y z
5 2 6.98766 8.41165 5.0039
10 2 7.36376 6.41193 9.89239
6 2 5.92948 7.83852 6.36646
4 1 7.10908 6.67152 8.85691
7 2 9.00018 8.36083 6.45223
8 2 9.02099 7.5089 8.77683
9 2 6.09309 6.614 8.4963
1 1 6.93797 8.03799 6.00979
2 1 8.01475 7.92279 6.86001
3 1 8.05968 7.38006 8.25678
ITEM: TIMESTEP
5300
ITEM: NUMBER OF ATOMS
10
ITEM: BOX BOUNDS pp pp pp
0.0000000000000000e+00 1.5000000000000000e+01
0.0000000000000000e+00 1.5000000000000000e+01
0.0000000000000000e+00 1.5000000000000000e+01
ITEM: ATOMS id type x y z
5 2 7.17238 8.39784 4.97707
3 1 7.99235 7.38396 8.1885
10 2 7.09416 6.69531 10.044
6 2 6.16686 8.55906 6.67657
4 1 7.08472 6.76083 8.95547
7 2 8.95852 7.42237 6.26817
8 2 8.90688 7.6289 8.68118
9 2 6.08751 6.54706 8.54933
1 1 7.04038 8.23853 6.07189
2 1 8.0055 7.61159 6.73292
ITEM: TIMESTEP
5400
ITEM: NUMBER OF ATOMS
10
ITEM: BOX BOUNDS pp pp pp
0.0000000000000000e+00 1.5000000000000000e+01
0.0000000000000000e+00 1.5000000000000000e+01
0.0000000000000000e+00 1.5000000000000000e+01
ITEM: ATOMS id type x y z
3 1 8.02489 7.32069 8.21098
2 1 7.93224 7.45043 6.73067
6 2 6.53571 9.06229 6.57672
4 1 6.97867 6.89832 8.959
7 2 8.57807 6.76157 6.20719
8 2 9.11112 7.52432 8.44812
9 2 6.02882 6.78779 8.43925
1 1 7.16188 8.31936 6.12049
5 2 7.14172 8.33429 5.03956
10 2 7.1425 6.8169 10.0513
ITEM: TIMESTEP
5500
ITEM: NUMBER OF ATOMS
10
ITEM: BOX BOUNDS pp pp pp
0.0000000000000000e+00 1.5000000000000000e+01
0.0000000000000000e+00 1.5000000000000000e+01
0.0000000000000000e+00 1.5000000000000000e+01
ITEM: ATOMS id type x y z
3 1 7.98954 7.08252 8.14016
2 1 7.87874 7.34908 6.71997
6 2 6.62839 9.02152 6.73116
4 1 6.97943 7.14967 9.02426
7 2 8.63473 6.70534 6.13676
8 2 8.97058 6.90521 8.5534
9 2 5.96264 7.3185 8.67096
1 1 7.25092 8.39152 6.0712
5 2 7.23351 8.44033 4.9784
10 2 7.10236 6.99245 10.0848
ITEM: TIMESTEP
5600
ITEM: NUMBER OF ATOMS
10
ITEM: BOX BOUNDS pp pp pp
0.0000000000000000e+00 1.5000000000000000e+01
0.0000000000000000e+00 1.5000000000000000e+01
0.0000000000000000e+00 1.5000000000000000e+01
ITEM: ATOMS id type x y z
3 1 7.84732 6.92257 8.13166
2 1 7.94084 7.32554 6.69827
6 2 6.5642 9.02669 6.50681
4 1 7.02381 7.35732 9.07543
7 2 8.62448 6.81546 6.06517
8 2 8.53691 6.14398 8.41763
9 2 6.20383 8.06926 8.89596
1 1 7.31781 8.35333 6.08118
5 2 7.33269 8.5056 5.0132
10 2 7.08319 6.90643 10.0709
ITEM: TIMESTEP
5700
ITEM: NUMBER OF ATOMS
10
ITEM: BOX BOUNDS pp pp pp
0.0000000000000000e+00 1.5000000000000000e+01
0.0000000000000000e+00 1.5000000000000000e+01
0.0000000000000000e+00 1.5000000000000000e+01
ITEM: ATOMS id type x y z
3 1 7.67241 6.81954 8.05511
2 1 7.94261 7.31975 6.71448
6 2 6.52992 8.94073 6.44893
4 1 7.12937 7.49632 9.13623
7 2 8.64116 6.72493 6.10825
8 2 8.01188 5.74533 8.29004
9 2 6.63308 8.47475 9.09675
1 1 7.35959 8.35422 6.06882
5 2 7.68662 8.44161 5.01101
10 2 6.99755 6.9537 10.0862
ITEM: TIMESTEP
5800
ITEM: NUMBER OF ATOMS
10
ITEM: BOX BOUNDS pp pp pp
0.0000000000000000e+00 1.5000000000000000e+01
0.0000000000000000e+00 1.5000000000000000e+01
0.0000000000000000e+00 1.5000000000000000e+01
ITEM: ATOMS id type x y z
3 1 7.45224 6.80971 8.05922