LAMMPS (2 Aug 2023 - Update 2)
#13 Butadiene
units           metal
boundary        p p p
atom_style      atomic

neighbor        2.0 bin
neigh_modify    delay 0 every 1 check yes

read_data       restart.lmp
Reading data file ...
  orthogonal box = (0 0 0) to (15 15 15)
  1 by 1 by 3 MPI processor grid
  reading atoms ...
  10 atoms
  reading velocities ...
  10 velocities
  read_data CPU = 0.001 seconds
mass            1 12.0
mass            2 2

variable        sysvol          equal vol
variable        sysmass         equal mass(all)/6.0221367e+23
variable        sysdensity      equal v_sysmass/v_sysvol/1.0e-24
variable	out_freq 	equal 100

pair_style      deepmd ../files/frozen_model_1_compressed.pb ../files/frozen_model_2_compressed.pb ../files/frozen_model_3_compressed.pb ../files/frozen_model_3_compressed.pb out_file md.out out_freq 10 atomic relative 1.0
Summary of lammps deepmd module ...
  >>> Info of deepmd-kit:
  installed to:       /rs1/researchers/w/wjpfaend/rahul/MLP/DeePMD-kit/deepmd_cpu
  source:             v2.2.8-dirty
  source branch:      master
  source commit:      b875ea8
  source commit at:   2024-01-22 22:28:58 -0500
  support model ver.: 1.1 
  build variant:      cpu
  build with tf inc:  /rs1/researchers/w/wjpfaend/rahul/MLP/DeePMD-kit/tensorflow/lib/python3.11/site-packages/tensorflow/include;/rs1/researchers/w/wjpfaend/rahul/MLP/DeePMD-kit/tensorflow/lib/python3.11/site-packages/tensorflow/include
  build with tf lib:  /rs1/researchers/w/wjpfaend/rahul/MLP/DeePMD-kit/tensorflow/lib/python3.11/site-packages/tensorflow/libtensorflow_cc.so.2
  set tf intra_op_parallelism_threads: 0
  set tf inter_op_parallelism_threads: 0
  >>> Info of lammps module:
  use deepmd-kit at:  /rs1/researchers/w/wjpfaend/rahul/MLP/DeePMD-kit/deepmd_cpu
  source:             v2.2.8-dirty
  source branch:      master
  source commit:      b875ea8
  source commit at:   2024-01-22 22:28:58 -0500
  build float prec:   double
  build with tf inc:  /rs1/researchers/w/wjpfaend/rahul/MLP/DeePMD-kit/tensorflow/lib/python3.11/site-packages/tensorflow/include;/rs1/researchers/w/wjpfaend/rahul/MLP/DeePMD-kit/tensorflow/lib/python3.11/site-packages/tensorflow/include
  build with tf lib:  /rs1/researchers/w/wjpfaend/rahul/MLP/DeePMD-kit/tensorflow/lib/python3.11/site-packages/tensorflow/libtensorflow_cc.so.2
pair_coeff	* *

#
velocity        all create 300.0 2345678 rot no dist gaussian
fix             1 all nvt temp 300.0 300.0 0.05
fix             2 all plumed plumedfile plumed.dat outfile PLUMED.log

timestep        0.0005
thermo_style    custom step pe ke etotal v_sysdensity temp press vol
thermo          10

dump            10 all custom 100 btd.dump id type x y z
dump		101 all xyz 20 btd.xyz
dump_modify	101 element C H

fix		extra all print 20 "$(step), $(ke), $(pe), $(etotal), $(temp), $(press), $(vol)" file logfile screen no

restart	        20000 dump.restart

run             50000

CITE-CITE-CITE-CITE-CITE-CITE-CITE-CITE-CITE-CITE-CITE-CITE-CITE

Your simulation uses code contributions which should be cited:

- USER-DEEPMD package:

@article{Wang_ComputPhysCommun_2018_v228_p178,
  author = {Wang, Han and Zhang, Linfeng and Han, Jiequn and E, Weinan},
  doi = {10.1016/j.cpc.2018.03.016},
  url = {https://doi.org/10.1016/j.cpc.2018.03.016},
  year = 2018,
  month = {jul},
  publisher = {Elsevier {BV}},
  volume = 228,
  journal = {Comput. Phys. Commun.},
  title = {{DeePMD-kit: A deep learning package for many-body potential energy representation and molecular dynamics}},
  pages = {178--184}
}
@misc{Zeng_JChemPhys_2023_v159_p054801,
  title  = {{DeePMD-kit v2: A software package for deep potential models}},
  author =   {Jinzhe Zeng and Duo Zhang and Denghui Lu and Pinghui Mo and Zeyu Li
         and Yixiao Chen and Mari{\'a}n Rynik and Li'ang Huang and Ziyao Li and 
         Shaochen Shi and Yingze Wang and Haotian Ye and Ping Tuo and Jiabin
         Yang and Ye Ding and Yifan Li and Davide Tisi and Qiyu Zeng and Han 
         Bao and Yu Xia and Jiameng Huang and Koki Muraoka and Yibo Wang and 
         Junhan Chang and Fengbo Yuan and Sigbj{\o}rn L{\o}land Bore and Chun
         Cai and Yinnian Lin and Bo Wang and Jiayan Xu and Jia-Xin Zhu and 
         Chenxing Luo and Yuzhi Zhang and Rhys E A Goodall and Wenshuo Liang
         and Anurag Kumar Singh and Sikai Yao and Jingchao Zhang and Renata
         Wentzcovitch and Jiequn Han and Jie Liu and Weile Jia and Darrin M
         York and Weinan E and Roberto Car and Linfeng Zhang and Han Wang},
  journal =  {J. Chem. Phys.},
  volume =   159,
  issue =    5,  
  year =    2023,
  pages  =   054801,
  doi =      {10.1063/5.0155600},
}

CITE-CITE-CITE-CITE-CITE-CITE-CITE-CITE-CITE-CITE-CITE-CITE-CITE

Generated 0 of 1 mixed pair_coeff terms from geometric mixing rule
Neighbor list info ...
  update: every = 1 steps, delay = 0 steps, check = yes
  max neighbors/atom: 2000, page size: 100000
  master list distance cutoff = 8
  ghost atom cutoff = 8
  binsize = 4, bins = 4 4 4
  1 neighbor lists, perpetual/occasional/extra = 1 0 0
  (1) pair deepmd, perpetual
      attributes: full, newton on
      pair build: full/bin/atomonly
      stencil: full/bin/3d
      bin: standard
Per MPI rank memory allocation (min/avg/max) = 2.958 | 2.999 | 3.083 Mbytes
   Step         PotEng         KinEng         TotEng      v_sysdensity       Temp          Press          Volume    
         0  -56.585254      0.34900239    -56.236251      0.029520714    300           -1411.3304      3375         
        10  -56.561066      0.50632075    -56.054745      0.029520714    435.22975      593.37438      3375         
        20  -56.603689      0.53739675    -56.066292      0.029520714    461.94246      1056.1911      3375         
        30  -56.432987      0.35869606    -56.074291      0.029520714    308.33261      620.60828      3375         
        40  -56.593801      0.50553666    -56.088264      0.029520714    434.55576     -327.06181      3375         
        50  -56.570304      0.47551838    -56.094785      0.029520714    408.75226     -110.2385       3375         
        60  -56.479888      0.36062194    -56.119266      0.029520714    309.98808     -121.21527      3375         
        70  -56.501648      0.3705876     -56.13106       0.029520714    318.5545      -1304.9779      3375         
        80  -56.592254      0.43772182    -56.154532      0.029520714    376.2626      -265.06082      3375         
        90  -56.510538      0.33122832    -56.17931       0.029520714    284.72154      1728.3962      3375         
       100  -56.510111      0.32968912    -56.180422      0.029520714    283.39845      604.22004      3375         
       110  -56.645091      0.43232117    -56.21277       0.029520714    371.62024     -741.04728      3375         
       120  -56.601518      0.36639451    -56.235123      0.029520714    314.95014     -53.182045      3375         
       130  -56.538817      0.28128454    -56.257532      0.029520714    241.79021     -58.176231      3375         
       140  -56.595373      0.3217483     -56.273625      0.029520714    276.57257     -345.73068      3375         
       150  -56.548637      0.25923733    -56.289399      0.029520714    222.83858     -384.87085      3375         
       160  -56.555889      0.25173099    -56.304158      0.029520714    216.38618     -426.50022      3375         
       170  -56.67046       0.35576615    -56.314694      0.029520714    305.81408      933.09058      3375         
       180  -56.626341      0.3005749     -56.325766      0.029520714    258.37207      1077.6143      3375         
       190  -56.587003      0.25001988    -56.336983      0.029520714    214.91533     -818.464        3375         
       200  -56.679848      0.33555108    -56.344297      0.029520714    288.43734     -379.19848      3375         
       210  -56.603627      0.25181419    -56.351813      0.029520714    216.4577       386.16597      3375         
       220  -56.572228      0.22110516    -56.351123      0.029520714    190.06044     -749.88526      3375         
       230  -56.653651      0.29945241    -56.354198      0.029520714    257.40719     -346.62493      3375         
       240  -56.644172      0.2892057     -56.354966      0.029520714    248.59919      972.21128      3375         
       250  -56.611346      0.25714083    -56.354205      0.029520714    221.03645      702.8151       3375         
       260  -56.740055      0.38384805    -56.356207      0.029520714    329.95309     -140.13706      3375         
       270  -56.569149      0.21709462    -56.352054      0.029520714    186.61301     -1066.3699      3375         
       280  -56.559375      0.21089249    -56.348482      0.029520714    181.2817      -930.89284      3375         
       290  -56.714709      0.36801472    -56.346694      0.029520714    316.34286      922.14922      3375         
       300  -56.671484      0.32929729    -56.342187      0.029520714    283.06163      924.4615       3375         
       310  -56.514312      0.17625729    -56.338054      0.029520714    151.50952     -292.2926       3375         
       320  -56.639621      0.30425564    -56.335365      0.029520714    261.53601      198.41064      3375         
       330  -56.6251        0.29460392    -56.330496      0.029520714    253.23946     -72.254054      3375         
       340  -56.526837      0.20120595    -56.325631      0.029520714    172.95522     -1012.7894      3375         
       350  -56.626288      0.30910672    -56.317181      0.029520714    265.70596     -305.60216      3375         
       360  -56.596844      0.28410595    -56.312738      0.029520714    244.21547      547.95128      3375         
       370  -56.501602      0.1952803     -56.306321      0.029520714    167.86157      886.295        3375         
       380  -56.623215      0.32140086    -56.301814      0.029520714    276.27392      554.15402      3375         
       390  -56.643928      0.35487696    -56.289051      0.029520714    305.04973     -684.65155      3375         
       400  -56.488993      0.20402186    -56.284971      0.029520714    175.37576     -634.19859      3375         
       410  -56.539018      0.26298022    -56.276037      0.029520714    226.05595      465.55678      3375         
       420  -56.5757        0.30370272    -56.271998      0.029520714    261.06072     -327.94935      3375         
       430  -56.512492      0.25400592    -56.258486      0.029520714    218.3417      -908.10448      3375         
       440  -56.638864      0.39391228    -56.244951      0.029520714    338.60423      655.36635      3375         
       450  -56.656064      0.41374976    -56.242314      0.029520714    355.65639      1015.7826      3375         
       460  -56.4938        0.26953689    -56.224263      0.029520714    231.69202      129.48516      3375         
       470  -56.580982      0.36818513    -56.212797      0.029520714    316.48935     -48.228512      3375         
       480  -56.643127      0.4358833     -56.207244      0.029520714    374.68222     -534.99846      3375         
       490  -56.458146      0.26118187    -56.196964      0.029520714    224.5101      -365.47802      3375         
       500  -56.587139      0.39755536    -56.189583      0.029520714    341.73579     -34.597258      3375         
       510  -56.583478      0.39876476    -56.184713      0.029520714    342.77538     -566.28176      3375         
       520  -56.535512      0.36086351    -56.174648      0.029520714    310.19574      167.1707       3375         
       530  -56.641466      0.4804058     -56.16106       0.029520714    412.95344      1758.378       3375         
       540  -56.641974      0.48117371    -56.1608        0.029520714    413.61354      261.31925      3375         
       550  -56.396426      0.22639245    -56.170033      0.029520714    194.60536     -1700.7068      3375         
       560  -56.542699      0.40383079    -56.138868      0.029520714    347.1301      -546.23498      3375         
       570  -56.65574       0.5031299     -56.15261       0.029520714    432.48693      552.19431      3375         
       580  -56.492789      0.34578925    -56.147         0.029520714    297.238        340.19495      3375         
       590  -56.507393      0.361096      -56.146297      0.029520714    310.39558      295.02826      3375         
       600  -56.599262      0.45396103    -56.145301      0.029520714    390.22171     -220.77634      3375         
       610  -56.515614      0.36779218    -56.147821      0.029520714    316.15157     -90.907119      3375         
       620  -56.500939      0.35191045    -56.149029      0.029520714    302.49975      119.62821      3375         
       630  -56.543328      0.39053204    -56.152796      0.029520714    335.69859     -905.4941       3375         
       640  -56.474569      0.31214143    -56.162428      0.029520714    268.31458     -121.03168      3375         
       650  -56.603648      0.45043707    -56.153211      0.029520714    387.19253      1473.4522      3375         
       660  -56.605267      0.44826067    -56.157006      0.029520714    385.32171      301.62636      3375         
       670  -56.467836      0.29196958    -56.175867      0.029520714    250.97499     -997.46371      3375         
       680  -56.588946      0.41243012    -56.176516      0.029520714    354.52203     -172.07115      3375         
       690  -56.607875      0.41314053    -56.194734      0.029520714    355.13269      227.28862      3375         
       700  -56.496816      0.28690144    -56.209915      0.029520714    246.61846      117.75787      3375         
       710  -56.54057       0.3135175     -56.227052      0.029520714    269.49744     -389.63285      3375         
       720  -56.628501      0.3832434     -56.245258      0.029520714    329.43333     -647.1255       3375         
       730  -56.608693      0.33701456    -56.271678      0.029520714    289.69534      793.68224      3375         
       740  -56.660247      0.36116663    -56.29908       0.029520714    310.45629      741.03555      3375         
       750  -56.613449      0.28984604    -56.323603      0.029520714    249.14962     -600.43776      3375         
       760  -56.593796      0.24613843    -56.347658      0.029520714    211.57887     -142.7491       3375         
       770  -56.631629      0.27124757    -56.360381      0.029520714    233.1625       285.51771      3375         
       780  -56.670957      0.29062778    -56.380329      0.029520714    249.82159     -538.69756      3375         
       790  -56.547217      0.15342022    -56.393797      0.029520714    131.87894     -118.58679      3375         
       800  -56.634154      0.23145042    -56.402704      0.029520714    198.95315      776.58652      3375         
       810  -56.72025       0.30771304    -56.412537      0.029520714    264.50796      558.81415      3375         
       820  -56.664006      0.24426601    -56.41974       0.029520714    209.96934     -458.59086      3375         
       830  -56.571982      0.14509364    -56.426888      0.029520714    124.72147     -1334.9237      3375         
       840  -56.657058      0.23186659    -56.425191      0.029520714    199.31089     -412.20052      3375         
       850  -56.62279       0.19537321    -56.427417      0.029520714    167.94144      1407.0493      3375         
       860  -56.610381      0.18256146    -56.42782       0.029520714    156.92855      910.77728      3375         
       870  -56.688617      0.26520011    -56.423417      0.029520714    227.96415     -302.3411       3375         
       880  -56.637036      0.21786293    -56.419173      0.029520714    187.27344     -151.59608      3375         
       890  -56.616889      0.20238993    -56.414499      0.029520714    173.97296     -372.29083      3375         
       900  -56.629366      0.22347906    -56.405887      0.029520714    192.10103     -898.85007      3375         
       910  -56.631985      0.23721473    -56.394771      0.029520714    203.90811     -176.44049      3375         
       920  -56.635128      0.25070302    -56.384424      0.029520714    215.50256      689.21253      3375         
       930  -56.644616      0.27475295    -56.369863      0.029520714    236.1757       659.70084      3375         
       940  -56.598557      0.24747371    -56.351084      0.029520714    212.72666      218.11285      3375         
       950  -56.630992      0.29459179    -56.3364        0.029520714    253.22903     -389.42967      3375         
       960  -56.653854      0.33813834    -56.315716      0.029520714    290.66134     -158.94647      3375         
       970  -56.585709      0.29107966    -56.29463       0.029520714    250.21003      583.89303      3375         
       980  -56.534315      0.25436627    -56.279949      0.029520714    218.65146     -464.46908      3375         
       990  -56.60687       0.34579774    -56.261072      0.029520714    297.24531     -1227.1296      3375         
      1000  -56.673933      0.43478732    -56.239146      0.029520714    373.74012      294.80042      3375         
      1010  -56.594725      0.36558589    -56.229139      0.029520714    314.25506      880.52283      3375         
      1020  -56.537174      0.32962723    -56.207546      0.029520714    283.34525      153.7013       3375         
      1030  -56.513688      0.31132192    -56.202366      0.029520714    267.61013      214.52273      3375         
      1040  -56.551964      0.35820504    -56.193759      0.029520714    307.91053      2.492838       3375         
      1050  -56.56438       0.377897      -56.186483      0.029520714    324.8376      -522.35222      3375         
      1060  -56.553645      0.37090166    -56.182743      0.029520714    318.82446     -343.18937      3375         
      1070  -56.467632      0.29038896    -56.177243      0.029520714    249.61631     -376.63668      3375         
      1080  -56.584322      0.41657301    -56.167749      0.029520714    358.08323      279.55997      3375         
      1090  -56.615985      0.45470389    -56.161282      0.029520714    390.86026      1285.8944      3375         
      1100  -56.493927      0.31600489    -56.177922      0.029520714    271.63558     -276.7433       3375         
      1110  -56.469336      0.31212503    -56.157211      0.029520714    268.30048     -1257.4136      3375         
      1120  -56.588762      0.43332051    -56.155441      0.029520714    372.47926      343.68229      3375         
      1130  -56.552771      0.38896521    -56.163806      0.029520714    334.35176      572.48547      3375         
      1140  -56.476025      0.31305372    -56.162971      0.029520714    269.09878      107.59141      3375         
      1150  -56.534504      0.37587198    -56.158632      0.029520714    323.09691      35.229131      3375         
      1160  -56.602786      0.43764667    -56.165139      0.029520714    376.198       -760.22896      3375         
      1170  -56.597464      0.4333387     -56.164125      0.029520714    372.4949      -467.80185      3375         
      1180  -56.551073      0.37976779    -56.171305      0.029520714    326.44572      349.28531      3375         
      1190  -56.470895      0.28982847    -56.181066      0.029520714    249.13451      67.361482      3375         
      1200  -56.495786      0.3137396     -56.182046      0.029520714    269.68835      704.6942       3375         
      1210  -56.59573       0.42806602    -56.167664      0.029520714    367.96254      1134.1943      3375         
      1220  -56.565568      0.37778387    -56.187784      0.029520714    324.74036     -612.87005      3375         
      1230  -56.565998      0.37430002    -56.191698      0.029520714    321.74567     -1257.5833      3375         
      1240  -56.643733      0.44780583    -56.195927      0.029520714    384.93074     -405.9483       3375         
      1250  -56.55398       0.34496638    -56.209014      0.029520714    296.53067     -61.162732      3375         
      1260  -56.514535      0.29950676    -56.215028      0.029520714    257.4539       424.50416      3375         
      1270  -56.493424      0.26876277    -56.224661      0.029520714    231.02658      585.49179      3375         
      1280  -56.539268      0.30918339    -56.230085      0.029520714    265.77187      10.132242      3375         
      1290  -56.598788      0.36161406    -56.237174      0.029520714    310.8409       182.79751      3375         
      1300  -56.630579      0.38428938    -56.24629       0.029520714    330.33245      205.2586       3375         
      1310  -56.561084      0.29630948    -56.264774      0.029520714    254.70554     -222.23333      3375         
      1320  -56.563422      0.29767903    -56.265743      0.029520714    255.8828      -223.27709      3375         
      1330  -56.53159       0.25329891    -56.278291      0.029520714    217.73396     -375.89463      3375         
      1340  -56.479086      0.19068265    -56.288404      0.029520714    163.90946     -582.20678      3375         
      1350  -56.547557      0.25081664    -56.29674       0.029520714    215.60022      452.13371      3375         
      1360  -56.655016      0.34669743    -56.308318      0.029520714    298.01867      1070.8519      3375         
      1370  -56.648814      0.32698159    -56.321832      0.029520714    281.07108      112.58817      3375         
      1380  -56.568091      0.23068809    -56.337403      0.029520714    198.29786     -533.13178      3375         
      1390  -56.57017       0.22304729    -56.347122      0.029520714    191.72988     -472.31866      3375         
      1400  -56.615439      0.25577743    -56.359662      0.029520714    219.86448     -272.76601      3375         
      1410  -56.600137      0.22896302    -56.371174      0.029520714    196.815        436.04032      3375         
      1420  -56.640992      0.25830998    -56.382682      0.029520714    222.04144      884.74419      3375         
      1430  -56.72071       0.32476793    -56.395942      0.029520714    279.16823      18.003888      3375         
      1440  -56.665623      0.25474135    -56.410882      0.029520714    218.97387     -658.35307      3375         
      1450  -56.648728      0.22587009    -56.422858      0.029520714    194.15634     -792.30693      3375         
      1460  -56.616681      0.18547656    -56.431205      0.029520714    159.43434     -226.96385      3375         
      1470  -56.626781      0.18866067    -56.438121      0.029520714    162.17138      980.32354      3375         
      1480  -56.711337      0.26926664    -56.44207       0.029520714    231.45971      680.16225      3375         
      1490  -56.706558      0.25766295    -56.448895      0.029520714    221.48526     -543.33464      3375         
      1500  -56.645955      0.19127146    -56.454684      0.029520714    164.4156      -202.32613      3375         
      1510  -56.671913      0.2150352     -56.456878      0.029520714    184.84275      125.34309      3375         
      1520  -56.697401      0.23863405    -56.458767      0.029520714    205.12815     -210.12792      3375         
      1530  -56.643705      0.1855575     -56.458147      0.029520714    159.50393      178.15627      3375         
      1540  -56.647517      0.19090095    -56.456616      0.029520714    164.09711      104.9464       3375         
      1550  -56.633103      0.18058493    -56.452518      0.029520714    155.22954     -393.5087       3375         
      1560  -56.686067      0.24134034    -56.444726      0.029520714    207.45446     -105.28127      3375         
      1570  -56.690319      0.25514988    -56.435169      0.029520714    219.32505      15.376958      3375         
      1580  -56.665077      0.24428989    -56.420787      0.029520714    209.98987      260.66226      3375         
      1590  -56.614094      0.20876978    -56.405324      0.029520714    179.45703      681.157        3375         
      1600  -56.617496      0.22890085    -56.388595      0.029520714    196.76156     -398.75311      3375         
      1610  -56.614532      0.24489928    -56.369632      0.029520714    210.5137      -756.45791      3375         
      1620  -56.578746      0.22762996    -56.351116      0.029520714    195.66911      367.26636      3375         
      1630  -56.576749      0.25735545    -56.319394      0.029520714    221.22093      250.27126      3375         
      1640  -56.672125      0.38152258    -56.290603      0.029520714    327.95413     -70.280214      3375         
      1650  -56.669519      0.40126634    -56.268252      0.029520714    344.92573      173.8599       3375         
      1660  -56.532372      0.28927338    -56.243099      0.029520714    248.65736     -460.88977      3375         
      1670  -56.543894      0.32117718    -56.222717      0.029520714    276.08164     -423.63082      3375         
      1680  -56.539809      0.33028213    -56.209527      0.029520714    283.90819      490.84604      3375         
      1690  -56.522826      0.32182172    -56.201004      0.029520714    276.63569      548.54122      3375         
      1700  -56.601853      0.41843747    -56.183415      0.029520714    359.68591      436.88399      3375         
      1710  -56.659781      0.48123055    -56.178551      0.029520714    413.6624      -428.94258      3375         
      1720  -56.56402       0.39981523    -56.164205      0.029520714    343.67835     -1513.6127      3375         
      1730  -56.656713      0.4906469     -56.166066      0.029520714    421.75662     -273.51545      3375         
      1740  -56.524259      0.35443175    -56.169827      0.029520714    304.66704      1086.7119      3375         
      1750  -56.360292      0.19937737    -56.160914      0.029520714    171.38338      593.55113      3375         
      1760  -56.500948      0.35437965    -56.146568      0.029520714    304.62225      347.4088       3375         
      1770  -56.6028        0.44739079    -56.155409      0.029520714    384.57398      120.37651      3375         
      1780  -56.600149      0.4482767     -56.151872      0.029520714    385.3355      -648.5322       3375         
      1790  -56.633182      0.4780002     -56.155182      0.029520714    410.88561     -727.44866      3375         
      1800  -56.509494      0.35597129    -56.153523      0.029520714    305.99042     -50.981455      3375         
      1810  -56.353202      0.19505255    -56.158149      0.029520714    167.6658       401.46149      3375         
      1820  -56.516022      0.35287202    -56.16315       0.029520714    303.32631      412.57062      3375         
      1830  -56.557017      0.39774709    -56.159269      0.029520714    341.9006      -239.64573      3375         
      1840  -56.461548      0.30444846    -56.1571        0.029520714    261.70175     -464.7437       3375         
      1850  -56.506892      0.34798695    -56.158905      0.029520714    299.12713      562.40565      3375         
      1860  -56.588567      0.42373444    -56.164832      0.029520714    364.23915      859.96754      3375         
      1870  -56.51195       0.3530182     -56.158931      0.029520714    303.45196     -367.68113      3375         
      1880  -56.477849      0.31446935    -56.163379      0.029520714    270.31564     -732.35641      3375         
      1890  -56.457485      0.28897882    -56.168506      0.029520714    248.40416     -151.72328      3375         
      1900  -56.377354      0.21522329    -56.162131      0.029520714    185.00443      127.55207      3375         
      1910  -56.535886      0.37456988    -56.161316      0.029520714    321.97763      291.10682      3375         
      1920  -56.656043      0.49510302    -56.16094       0.029520714    425.58708      42.705647      3375         
      1930  -56.602166      0.44404524    -56.15812       0.029520714    381.69816     -244.48129      3375         
      1940  -56.502157      0.33878595    -56.163371      0.029520714    291.21802      354.76328      3375         
      1950  -56.539207      0.37472694    -56.16448       0.029520714    322.11264      86.589277      3375         
      1960  -56.490409      0.32273107    -56.167678      0.029520714    277.41735     -384.49103      3375         
      1970  -56.578884      0.41180866    -56.167075      0.029520714    353.98783      738.3332       3375         
      1980  -56.64956       0.47140972    -56.178151      0.029520714    405.22048      608.3396       3375         
      1990  -56.571666      0.38577288    -56.185893      0.029520714    331.60765     -1223.6838      3375         
      2000  -56.552147      0.35602193    -56.196125      0.029520714    306.03394     -1215.1876      3375         
      2010  -56.652189      0.43691418    -56.215275      0.029520714    375.56835     -117.89671      3375         
      2020  -56.521346      0.29496376    -56.226382      0.029520714    253.54877      830.68723      3375         
      2030  -56.508651      0.27161084    -56.23704       0.029520714    233.47477      1273.053       3375         
      2040  -56.596107      0.3457158     -56.250391      0.029520714    297.17487      65.26168       3375         
      2050  -56.579588      0.31194939    -56.267638      0.029520714    268.1495      -614.69302      3375         
      2060  -56.62066       0.33455898    -56.286101      0.029520714    287.58454      265.45823      3375         
      2070  -56.667777      0.36324547    -56.304531      0.029520714    312.24325     -352.55334      3375         
      2080  -56.567895      0.2475813     -56.320314      0.029520714    212.81914     -1040.7394      3375         
      2090  -56.580904      0.24711625    -56.333788      0.029520714    212.41939      388.4142       3375         
      2100  -56.632125      0.2848064     -56.347319      0.029520714    244.81758      814.49008      3375         
      2110  -56.573043      0.21523091    -56.357812      0.029520714    185.01098     -293.57572      3375         
      2120  -56.584366      0.22027351    -56.364092      0.029520714    189.34556     -332.47306      3375         
      2130  -56.734795      0.35890368    -56.375892      0.029520714    308.51108      167.35833      3375         
      2140  -56.67898       0.29272561    -56.386255      0.029520714    251.62488      574.22266      3375         
      2150  -56.581089      0.19225572    -56.388833      0.029520714    165.26166      147.01597      3375         
      2160  -56.545396      0.14963028    -56.395766      0.029520714    128.62114     -1037.0699      3375         
      2170  -56.621345      0.21958193    -56.401763      0.029520714    188.75109     -312.79759      3375         
      2180  -56.649443      0.25548176    -56.393961      0.029520714    219.61032      1062.831       3375         
      2190  -56.716262      0.3225529     -56.39371       0.029520714    277.2642       57.269511      3375         
      2200  -56.610021      0.2139447     -56.396076      0.029520714    183.90536     -765.37616      3375         
      2210  -56.653079      0.26171725    -56.391361      0.029520714    224.97031      266.04497      3375         
      2220  -56.654595      0.26878409    -56.385811      0.029520714    231.04491      640.25583      3375         
      2230  -56.64349       0.26182927    -56.381661      0.029520714    225.0666      -455.53642      3375         
      2240  -56.529526      0.16022303    -56.369303      0.029520714    137.72659     -640.29009      3375         
      2250  -56.651628      0.28839585    -56.363232      0.029520714    247.90304      350.51289      3375         
      2260  -56.70342       0.36401935    -56.339401      0.029520714    312.90847      765.67426      3375         
      2270  -56.696043      0.37798008    -56.318063      0.029520714    324.90902     -555.71852      3375         
      2280  -56.592368      0.30119159    -56.291176      0.029520714    258.90217     -1103.6967      3375         
      2290  -56.590788      0.31270342    -56.278084      0.029520714    268.79766      624.19575      3375         
      2300  -56.485085      0.23600474    -56.24908       0.029520714    202.86801      1539.8085      3375         
      2310  -56.516894      0.30418394    -56.21271       0.029520714    261.47437     -248.2138       3375         
      2320  -56.56626       0.36956162    -56.196699      0.029520714    317.67257     -1333.7297      3375         
      2330  -56.637843      0.477493      -56.16035       0.029520714    410.44962      53.061147      3375         
      2340  -56.575668      0.44442136    -56.131247      0.029520714    382.02148      764.1316       3375         
      2350  -56.509718      0.39265081    -56.117067      0.029520714    337.51987     -468.35264      3375         
      2360  -56.376658      0.28424064    -56.092417      0.029520714    244.33126     -407.16415      3375         
      2370  -56.444027      0.3574642     -56.086563      0.029520714    307.27371      1056.0372      3375         
      2380  -56.550632      0.46981272    -56.080819      0.029520714    403.84771      538.19051      3375         
      2390  -56.425989      0.36206537    -56.063924      0.029520714    311.22885     -1565.1964      3375         
      2400  -56.420501      0.36192404    -56.058577      0.029520714    311.10735     -1010.8618      3375         
      2410  -56.52983       0.47017398    -56.059656      0.029520714    404.15825      1657.9266      3375         
      2420  -56.596376      0.54289907    -56.053477      0.029520714    466.67222      1218.587       3375         
      2430  -56.350059      0.29551076    -56.054548      0.029520714    254.01897     -1208.468       3375         
      2440  -56.340634      0.28324104    -56.057393      0.029520714    243.472       -622.9281       3375         
      2450  -56.430243      0.36349421    -56.066749      0.029520714    312.45707      1111.1522      3375         
      2460  -56.492974      0.44787118    -56.045103      0.029520714    384.98691      327.15383      3375         
      2470  -56.561804      0.49908231    -56.062722      0.029520714    429.00764     -1155.3262      3375         
      2480  -56.590214      0.52742047    -56.062793      0.029520714    453.36692     -836.96055      3375         
      2490  -56.495429      0.42038707    -56.075042      0.029520714    361.36177      838.15096      3375         
      2500  -56.464075      0.37616492    -56.08791       0.029520714    323.34872      1039.3431      3375         
      2510  -56.428537      0.33352781    -56.095009      0.029520714    286.69816     -569.60419      3375         
      2520  -56.527444      0.42654597    -56.100898      0.029520714    366.65591     -291.20637      3375         
      2530  -56.624951      0.50703802    -56.117913      0.029520714    435.84632      1201.3266      3375         
      2540  -56.647011      0.50967395    -56.137337      0.029520714    438.11214     -457.1735       3375         
      2550  -56.461915      0.30887846    -56.153036      0.029520714    265.50975     -1708.8454      3375         
      2560  -56.575464      0.39788809    -56.177575      0.029520714    342.0218       206.30313      3375         
      2570  -56.591656      0.40207758    -56.189579      0.029520714    345.62306      958.71847      3375         
      2580  -56.523969      0.32731025    -56.196659      0.029520714    281.35359      39.765812      3375         
      2590  -56.468144      0.24862132    -56.219522      0.029520714    213.71314     -194.48991      3375         
      2600  -56.566657      0.33769022    -56.228966      0.029520714    290.27614     -197.1971       3375         
      2610  -56.600641      0.3577882     -56.242853      0.029520714    307.55222      670.12816      3375         
      2620  -56.724079      0.46746515    -56.256614      0.029520714    401.82975      735.63386      3375         
      2630  -56.55527       0.2813895     -56.27388       0.029520714    241.88044     -1132.084       3375         
      2640  -56.46789       0.18940544    -56.278484      0.029520714    162.81159     -929.95534      3375         
      2650  -56.60055       0.3132035     -56.287346      0.029520714    269.22752      919.56561      3375         
      2660  -56.688897      0.39218556    -56.296712      0.029520714    337.11995      47.604594      3375         
      2670  -56.518008      0.21745219    -56.300556      0.029520714    186.92037     -816.82944      3375         
      2680  -56.587182      0.28177974    -56.305402      0.029520714    242.21588      435.39003      3375         
      2690  -56.643639      0.33105478    -56.312584      0.029520714    284.57236      808.79846      3375         
      2700  -56.609888      0.29878764    -56.3111        0.029520714    256.83575      182.99575      3375         
      2710  -56.547179      0.23517797    -56.312001      0.029520714    202.15733     -353.67867      3375         
      2720  -56.576396      0.26006879    -56.316327      0.029520714    223.5533      -704.76141      3375         
      2730  -56.547258      0.23420007    -56.313058      0.029520714    201.31673      187.48433      3375         
      2740  -56.651596      0.34489814    -56.306698      0.029520714    296.47201      310.35779      3375         
      2750  -56.642661      0.33643375    -56.306227      0.029520714    289.19608     -1031.8549      3375         
      2760  -56.510098      0.20818666    -56.301911      0.029520714    178.95579     -9.4803998      3375         
      2770  -56.555966      0.26012126    -56.295845      0.029520714    223.5984       1962.9863      3375         
      2780  -56.6905        0.4009007     -56.289599      0.029520714    344.61142      633.3217       3375         
      2790  -56.550231      0.26752514    -56.282706      0.029520714    229.96273     -1537.1171      3375         
      2800  -56.50864       0.24401653    -56.264623      0.029520714    209.7549      -1171.9789      3375         
      2810  -56.596104      0.33335863    -56.262745      0.029520714    286.55273      295.2007       3375         
      2820  -56.647161      0.41346226    -56.233699      0.029520714    355.40925      533.20853      3375         
      2830  -56.571186      0.36299744    -56.208188      0.029520714    312.03004     -245.08416      3375         
      2840  -56.544107      0.35667662    -56.18743       0.029520714    306.59671     -85.642407      3375         
      2850  -56.408133      0.25233122    -56.155801      0.029520714    216.90214      1418.4422      3375         
      2860  -56.541405      0.43319297    -56.108212      0.029520714    372.36963      833.58041      3375         
      2870  -56.547764      0.50146871    -56.046295      0.029520714    431.05898     -1659.0297      3375         
      2880  -56.474182      0.48360935    -55.990572      0.029520714    415.7072      -1690.9162      3375         
      2890  -56.449687      0.51783433    -55.931853      0.029520714    445.12675      966.09222      3375         
      2900  -56.48641       0.60458467    -55.881825      0.029520714    519.69673      1170.5235      3375         
      2910  -56.41755       0.55246907    -55.865081      0.029520714    474.89853     -933.93386      3375         
      2920  -56.430868      0.60850537    -55.822363      0.029520714    523.06693     -372.22046      3375         
      2930  -56.436069      0.60634768    -55.829721      0.029520714    521.2122       1413.6361      3375         
      2940  -56.368652      0.54208034    -55.826572      0.029520714    465.96845      521.23642      3375         
      2950  -56.339512      0.50458308    -55.834928      0.029520714    433.73606     -1599.1247      3375         
      2960  -56.508884      0.66430836    -55.844576      0.029520714    571.03479     -1382.8968      3375         
      2970  -56.437059      0.56488088    -55.872178      0.029520714    485.56763      1702.9855      3375         
      2980  -56.347818      0.46606844    -55.881749      0.029520714    400.62915      1576.3274      3375         
      2990  -56.309653      0.40102254    -55.908631      0.029520714    344.71615     -1518.8297      3375         
      3000  -56.296655      0.37306333    -55.923592      0.029520714    320.68261     -725.58922      3375         
      3010  -56.356855      0.41374725    -55.943108      0.029520714    355.65423      1370.9988      3375         
      3020  -56.572497      0.61363486    -55.958862      0.029520714    527.47621      214.22304      3375         
      3030  -56.489881      0.49252684    -55.997355      0.029520714    423.3726      -1547.3254      3375         
      3040  -56.380287      0.36755254    -56.012735      0.029520714    315.94558     -440.0124       3375         
      3050  -56.384938      0.34542212    -56.039515      0.029520714    296.92242      1572.1006      3375         
      3060  -56.505038      0.44839858    -56.056639      0.029520714    385.44026      1103.4288      3375         
      3070  -56.436364      0.3515513     -56.084813      0.029520714    302.19102     -1294.2257      3375         
      3080  -56.524021      0.42949637    -56.094525      0.029520714    369.19206     -1107.8736      3375         
      3090  -56.475415      0.35634882    -56.119067      0.029520714    306.31494      1348.465       3375         
      3100  -56.610008      0.47019722    -56.139811      0.029520714    404.17823      111.28736      3375         
      3110  -56.53537       0.37767973    -56.157691      0.029520714    324.65084     -1460.7645      3375         
      3120  -56.577293      0.38393482    -56.193359      0.029520714    330.02767      612.17025      3375         
      3130  -56.437853      0.25151612    -56.186337      0.029520714    216.20149      1474.1995      3375         
      3140  -56.608129      0.40692805    -56.201201      0.029520714    349.79249     -401.8018       3375         
      3150  -56.530257      0.30787952    -56.222377      0.029520714    264.65107     -1221.9633      3375         
      3160  -56.624824      0.39440563    -56.230418      0.029520714    339.0283      -536.2196       3375         
      3170  -56.640662      0.39002853    -56.250633      0.029520714    335.26578      1163.0606      3375         
      3180  -56.629319      0.37308399    -56.256235      0.029520714    320.70037      948.44448      3375         
      3190  -56.491449      0.21911935    -56.272329      0.029520714    188.35345     -1067.2917      3375         
      3200  -56.62471       0.34739134    -56.277319      0.029520714    298.61515     -396.5028       3375         
      3210  -56.585744      0.30109369    -56.28465       0.029520714    258.81801      1263.4119      3375         
      3220  -56.607311      0.30987938    -56.297432      0.029520714    266.37013     -661.48304      3375         
      3230  -56.575555      0.28210597    -56.293449      0.029520714    242.4963      -1517.5303      3375         
      3240  -56.638544      0.33231247    -56.306231      0.029520714    285.65346      580.45478      3375         
      3250  -56.543692      0.23414954    -56.309542      0.029520714    201.2733       1280.2831      3375         
      3260  -56.618443      0.31450606    -56.303937      0.029520714    270.34719      173.22177      3375         
      3270  -56.579621      0.26949904    -56.310122      0.029520714    231.65948     -629.88651      3375         
      3280  -56.568431      0.25627706    -56.312154      0.029520714    220.29396     -363.67532      3375         
      3290  -56.563681      0.25319501    -56.310486      0.029520714    217.64465      679.40877      3375         
      3300  -56.672327      0.36467185    -56.307655      0.029520714    313.46936     -55.717492      3375         
      3310  -56.551268      0.24706023    -56.304208      0.029520714    212.37124     -1578.6201      3375         
      3320  -56.60771       0.30576514    -56.301945      0.029520714    262.83357      61.381033      3375         
      3330  -56.57102       0.27569596    -56.295324      0.029520714    236.9863       2249.241       3375         
      3340  -56.625117      0.33653271    -56.288584      0.029520714    289.28115      373.78975      3375         
      3350  -56.554566      0.2726804     -56.281885      0.029520714    234.39415     -1577.3585      3375         
      3360  -56.60222       0.33902012    -56.2632        0.029520714    291.41931     -574.4349       3375         
      3370  -56.517169      0.25782189    -56.259347      0.029520714    221.62188      411.03718      3375         
      3380  -56.640669      0.40823895    -56.23243       0.029520714    350.91933     -75.928254      3375         
      3390  -56.556076      0.34192141    -56.214154      0.029520714    293.91324     -383.39287      3375         
      3400  -56.541795      0.34679873    -56.194996      0.029520714    298.10575      457.85787      3375         
      3410  -56.474247      0.31256002    -56.161687      0.029520714    268.67439      1623.3176      3375         
      3420  -56.676389      0.54645812    -56.129931      0.029520714    469.73156     -4.7689862      3375         
      3430  -56.433314      0.33773351    -56.09558       0.029520714    290.31335     -2248.4187      3375         
      3440  -56.501458      0.435923      -56.065535      0.029520714    374.71634     -825.65519      3375         
      3450  -56.563292      0.53163345    -56.031658      0.029520714    456.98837      2007.3225      3375         
      3460  -56.53936       0.54309417    -55.996266      0.029520714    466.83993      706.70397      3375         
      3470  -56.357175      0.37813889    -55.979036      0.029520714    325.04553     -1525.174       3375         
      3480  -56.508148      0.56159593    -55.946552      0.029520714    482.74391     -145.04658      3375         
      3490  -56.448393      0.50727001    -55.941123      0.029520714    436.04574      1011.8633      3375         
      3500  -56.411826      0.48272662    -55.929099      0.029520714    414.94841      112.70393      3375         
      3510  -56.396346      0.46961797    -55.926728      0.029520714    403.6803      -932.98711      3375         
      3520  -56.502844      0.57662556    -55.926218      0.029520714    495.66328     -373.16541      3375         
      3530  -56.330743      0.39744758    -55.933296      0.029520714    341.64315      1565.2137      3375         
      3540  -56.383705      0.44632413    -55.937381      0.029520714    383.65709      265.90521      3375         
      3550  -56.295242      0.34828664    -55.946956      0.029520714    299.38475     -1530.132       3375         
      3560  -56.380576      0.42020432    -55.960372      0.029520714    361.20468      224.26044      3375         
      3570  -56.442862      0.48763098    -55.955231      0.029520714    419.16416      1372.8461      3375         
      3580  -56.539839      0.54399279    -55.995847      0.029520714    467.61237     -984.14688      3375         
      3590  -56.371979      0.38425084    -55.987728      0.029520714    330.29932     -1578.1526      3375         
      3600  -56.448799      0.43819629    -56.010603      0.029520714    376.67045      938.87993      3375         
      3610  -56.407512      0.37607927    -56.031432      0.029520714    323.27509      1972.4331      3375         
      3620  -56.464137      0.42425307    -56.039884      0.029520714    364.68495      414.83658      3375         
      3630  -56.455771      0.39009222    -56.065679      0.029520714    335.32053     -1611.5473      3375         
      3640  -56.576245      0.50614962    -56.070096      0.029520714    435.08265     -1064.0029      3375         
      3650  -56.494682      0.40396044    -56.090722      0.029520714    347.24155      794.39176      3375         
      3660  -56.54705       0.4391725     -56.107877      0.029520714    377.50959     -67.869871      3375         
      3670  -56.507252      0.38005532    -56.127197      0.029520714    326.69288     -386.30222      3375         
      3680  -56.543723      0.40713199    -56.136591      0.029520714    349.96779      1120.5112      3375         
      3690  -56.438799      0.30665783    -56.132141      0.029520714    263.60092      775.47132      3375         
      3700  -56.585035      0.43320062    -56.151834      0.029520714    372.3762      -1051.7734      3375         
      3710  -56.559865      0.40100109    -56.158863      0.029520714    344.69772     -1078.164       3375         
      3720  -56.614853      0.44757966    -56.167274      0.029520714    384.73633      183.22526      3375         
      3730  -56.576895      0.39590649    -56.180988      0.029520714    340.31843      1159.8734      3375         
      3740  -56.498088      0.3152818     -56.182806      0.029520714    271.01402      332.18579      3375         
      3750  -56.483728      0.29211757    -56.191611      0.029520714    251.1022      -1011.9777      3375         
      3760  -56.635468      0.43816148    -56.197306      0.029520714    376.64052     -131.93972      3375         
      3770  -56.563218      0.35837382    -56.204844      0.029520714    308.05561      861.49058      3375         
      3780  -56.484062      0.27569932    -56.208363      0.029520714    236.98919     -368.83292      3375         
      3790  -56.639126      0.42434457    -56.214782      0.029520714    364.7636      -857.9159       3375         
      3800  -56.608556      0.38623719    -56.222319      0.029520714    332.00677      212.59632      3375         
      3810  -56.462028      0.2332477     -56.22878       0.029520714    200.49808      606.36281      3375         
      3820  -56.562985      0.33848273    -56.224502      0.029520714    290.95737      68.375384      3375         
      3830  -56.587519      0.35482523    -56.232694      0.029520714    305.00527     -140.85512      3375         
      3840  -56.577448      0.33893273    -56.238515      0.029520714    291.34419      194.64072      3375         
      3850  -56.589474      0.351476      -56.237998      0.029520714    302.12629      297.36144      3375         
      3860  -56.537915      0.2945865     -56.243328      0.029520714    253.22449     -486.91594      3375         
      3870  -56.541752      0.2974522     -56.244299      0.029520714    255.68782     -1199.1187      3375         
      3880  -56.72834       0.47993988    -56.2484        0.029520714    412.55295      91.873837      3375         
      3890  -56.550572      0.29829519    -56.252277      0.029520714    256.41245      1741.7726      3375         
      3900  -56.509745      0.25536701    -56.254378      0.029520714    219.51168      447.81061      3375         
      3910  -56.660139      0.4013235     -56.258815      0.029520714    344.97486     -1336.0527      3375         
      3920  -56.643777      0.38532273    -56.258454      0.029520714    331.22071     -600.04513      3375         
      3930  -56.523794      0.25745646    -56.266337      0.029520714    221.30776      290.75833      3375         
      3940  -56.611531      0.34844064    -56.26309       0.029520714    299.51712      296.12076      3375         
      3950  -56.60287       0.33424707    -56.268623      0.029520714    287.31643      333.64753      3375         
      3960  -56.59202       0.32092221    -56.271098      0.029520714    275.86247      226.25726      3375         
      3970  -56.573439      0.29991038    -56.273529      0.029520714    257.80085      60.564112      3375         
      3980  -56.57373       0.297899      -56.275831      0.029520714    256.07189     -490.68371      3375         
      3990  -56.542431      0.26619777    -56.276233      0.029520714    228.82173     -996.31016      3375         
      4000  -56.623156      0.34632493    -56.276831      0.029520714    297.69847      358.62076      3375         
      4010  -56.586832      0.31249453    -56.274338      0.029520714    268.6181       1592.0584      3375         
      4020  -56.522003      0.24184263    -56.28016       0.029520714    207.88622     -241.47489      3375         
      4030  -56.520679      0.2543605     -56.266319      0.029520714    218.64649     -1201.5519      3375         
      4040  -56.618698      0.35234038    -56.266357      0.029520714    302.86931      80.789278      3375         
      4050  -56.483174      0.22338661    -56.259788      0.029520714    192.02155      687.65196      3375         
      4060  -56.585366      0.34032911    -56.245037      0.029520714    292.54451      197.88964      3375         
      4070  -56.640837      0.40212477    -56.238712      0.029520714    345.66363     -638.63262      3375         
      4080  -56.478082      0.2618413     -56.216241      0.029520714    225.07694     -356.71411      3375         
      4090  -56.465356      0.25712343    -56.208232      0.029520714    221.0215       869.14839      3375         
      4100  -56.607105      0.41738685    -56.189718      0.029520714    358.7828       312.09882      3375         
      4110  -56.515587      0.35095373    -56.164633      0.029520714    301.67736     -508.39419      3375         
      4120  -56.538777      0.40373444    -56.135043      0.029520714    347.04728      37.160103      3375         
      4130  -56.549174      0.43121543    -56.117959      0.029520714    370.66975      80.338947      3375         
      4140  -56.51951       0.4231795     -56.096331      0.029520714    363.76212     -813.48672      3375         
      4150  -56.603308      0.539988      -56.06332       0.029520714    464.16989     -377.39542      3375         
      4160  -56.533002      0.47861718    -56.054385      0.029520714    411.41596      973.16911      3375         
      4170  -56.3562        0.32208612    -56.034114      0.029520714    276.86296      1426.5101      3375         
      4180  -56.530029      0.50910554    -56.020924      0.029520714    437.62354      43.046447      3375         
      4190  -56.614725      0.59911912    -56.015606      0.029520714    514.99858     -2054.4776      3375         
      4200  -56.464643      0.46966812    -55.994975      0.029520714    403.72341     -963.14535      3375         
      4210  -56.394188      0.38944636    -56.004742      0.029520714    334.76535      1154.2949      3375         
      4220  -56.545736      0.53539142    -56.010344      0.029520714    460.2187       674.37415      3375         
      4230  -56.454833      0.45156434    -56.003269      0.029520714    388.16153     -218.74211      3375         
      4240  -56.465739      0.45366993    -56.012069      0.029520714    389.97148      109.77951      3375         
      4250  -56.489791      0.46105707    -56.028734      0.029520714    396.32142      162.21453      3375         
      4260  -56.498895      0.45690744    -56.041988      0.029520714    392.75442     -464.17825      3375         
      4270  -56.458502      0.402847      -56.055655      0.029520714    346.28445     -448.31316      3375         
      4280  -56.591861      0.50145762    -56.090403      0.029520714    431.04944      306.04436      3375         
      4290  -56.506071      0.40974522    -56.096326      0.029520714    352.21411      731.91612      3375         
      4300  -56.492249      0.36301811    -56.129231      0.029520714    312.04781     -150.46178      3375         
      4310  -56.576704      0.42008905    -56.156615      0.029520714    361.10559     -1149.9087      3375         
      4320  -56.553357      0.37386778    -56.179489      0.029520714    321.37411     -72.034257      3375         
      4330  -56.512968      0.30748677    -56.205481      0.029520714    264.31346      1328.4756      3375         
      4340  -56.666513      0.43248315    -56.23403       0.029520714    371.75947      386.16757      3375         
      4350  -56.59021       0.33403939    -56.256171      0.029520714    287.13791     -1174.5485      3375         
      4360  -56.509346      0.23636358    -56.272982      0.029520714    203.17647     -752.22159      3375         
      4370  -56.671806      0.37837432    -56.293431      0.029520714    325.2479       623.98894      3375         
      4380  -56.63433       0.33302138    -56.301308      0.029520714    286.26284      783.7701       3375         
      4390  -56.56239       0.24746761    -56.314923      0.029520714    212.72142      172.982        3375         
      4400  -56.597516      0.27386518    -56.323651      0.029520714    235.41258     -315.60933      3375         
      4410  -56.568294      0.24197885    -56.326315      0.029520714    208.00332     -367.55057      3375         
      4420  -56.628494      0.2990038     -56.32949       0.029520714    257.02156     -212.41403      3375         
      4430  -56.6745        0.3422417     -56.332258      0.029520714    294.18855     -446.11948      3375         
      4440  -56.53633       0.20314454    -56.333186      0.029520714    174.62162      365.06623      3375         
      4450  -56.546151      0.21399124    -56.33216       0.029520714    183.94537      1447.9089      3375         
      4460  -56.658234      0.32789094    -56.330343      0.029520714    281.85275     -166.04175      3375         
      4470  -56.534121      0.206785      -56.327336      0.029520714    177.75093     -1566.1212      3375         
      4480  -56.586427      0.26338631    -56.32304       0.029520714    226.40502     -238.39934      3375         
      4490  -56.632763      0.31419912    -56.318564      0.029520714    270.08335      990.19899      3375         
      4500  -56.577096      0.26765873    -56.309438      0.029520714    230.07756      790.76799      3375         
      4510  -56.510233      0.2028293     -56.307404      0.029520714    174.35064     -207.20781      3375         
      4520  -56.655244      0.35890409    -56.29634       0.029520714    308.51143     -814.84669      3375         
      4530  -56.598691      0.30672323    -56.291968      0.029520714    263.65713     -29.501974      3375         
      4540  -56.518031      0.23776051    -56.280271      0.029520714    204.37726      110.64304      3375         
      4550  -56.575637      0.30475788    -56.27088       0.029520714    261.96773     -567.13779      3375         
      4560  -56.688754      0.42678692    -56.261967      0.029520714    366.86303      445.14229      3375         
      4570  -56.540351      0.28822855    -56.252123      0.029520714    247.75924      1227.1748      3375         
      4580  -56.578405      0.33625384    -56.242152      0.029520714    289.04144     -471.07685      3375         
      4590  -56.595698      0.36389039    -56.231807      0.029520714    312.79762     -912.54754      3375         
      4600  -56.524971      0.29619574    -56.228775      0.029520714    254.60778      380.98803      3375         
      4610  -56.597392      0.38544965    -56.211942      0.029520714    331.32981      741.35439      3375         
      4620  -56.659486      0.45230575    -56.20718       0.029520714    388.79884     -401.18224      3375         
      4630  -56.446891      0.24691924    -56.199972      0.029520714    212.25004     -1537.8232      3375         
      4640  -56.557448      0.37152357    -56.185924      0.029520714    319.35905     -131.99911      3375         
      4650  -56.646466      0.45431963    -56.192146      0.029520714    390.52995      1732.1797      3375         
      4660  -56.472141      0.301297      -56.170844      0.029520714    258.99278      1008.3489      3375         
      4670  -56.537686      0.37198473    -56.165701      0.029520714    319.75545     -695.57018      3375         
      4680  -56.619799      0.45334299    -56.166456      0.029520714    389.69044     -671.53167      3375         
      4690  -56.413849      0.25352606    -56.160323      0.029520714    217.92921     -101.1554       3375         
      4700  -56.551381      0.39652362    -56.154857      0.029520714    340.84891     -769.17129      3375         
      4710  -56.616409      0.46482344    -56.151586      0.029520714    399.55896     -453.60293      3375         
      4720  -56.520589      0.36520796    -56.155381      0.029520714    313.93019      1089.8346      3375         
      4730  -56.449032      0.31207905    -56.136953      0.029520714    268.26096      1622.5913      3375         
      4740  -56.579795      0.42522549    -56.15457       0.029520714    365.52084     -278.66202      3375         
      4750  -56.482913      0.34586528    -56.137047      0.029520714    297.30336     -2115.1429      3375         
      4760  -56.639343      0.50491643    -56.134427      0.029520714    434.02261     -406.96582      3375         
      4770  -56.50194       0.35091704    -56.151023      0.029520714    301.64582      1730.1161      3375         
      4780  -56.482414      0.34709733    -56.135316      0.029520714    298.36243      580.01531      3375         
      4790  -56.534112      0.39265203    -56.14146       0.029520714    337.52092     -1246.3366      3375         
      4800  -56.658034      0.50688761    -56.151147      0.029520714    435.71702     -610.59229      3375         
      4810  -56.474293      0.31457403    -56.159719      0.029520714    270.40562      888.21872      3375         
      4820  -56.52355       0.35241462    -56.171135      0.029520714    302.93313      277.1942       3375         
      4830  -56.578624      0.39319505    -56.185429      0.029520714    337.9877      -187.25685      3375         
      4840  -56.65201       0.44150093    -56.210509      0.029520714    379.51109      31.123278      3375         
      4850  -56.511145      0.28062442    -56.230521      0.029520714    241.22277      119.47966      3375         
      4860  -56.561551      0.30598488    -56.255566      0.029520714    263.02245     -428.4591       3375         
      4870  -56.590414      0.31208576    -56.278328      0.029520714    268.26673     -825.3569       3375         
      4880  -56.579402      0.27786827    -56.301534      0.029520714    238.85361      398.91028      3375         
      4890  -56.649158      0.32199815    -56.32716       0.029520714    276.78734      1477.4812      3375         
      4900  -56.613023      0.26871157    -56.344312      0.029520714    230.98258     -97.266593      3375         
      4910  -56.538811      0.17717839    -56.361632      0.029520714    152.3013      -1585.5238      3375         
      4920  -56.655453      0.28206241    -56.373391      0.029520714    242.45886     -73.321396      3375         
      4930  -56.603987      0.21957288    -56.384414      0.029520714    188.74331      1394.3799      3375         
      4940  -56.588391      0.19900567    -56.389385      0.029520714    171.06387      492.16184      3375         
      4950  -56.662333      0.26450333    -56.397829      0.029520714    227.3652      -809.33859      3375         
      4960  -56.620302      0.21827701    -56.402025      0.029520714    187.62938     -915.23758      3375         
      4970  -56.572645      0.16745735    -56.405187      0.029520714    143.94516      135.77972      3375         
      4980  -56.69677       0.29261004    -56.40416       0.029520714    251.52553      443.6785       3375         
      4990  -56.610437      0.20570769    -56.404729      0.029520714    176.82489     -59.06201       3375         
      5000  -56.664237      0.26181547    -56.402422      0.029520714    225.05473      842.89457      3375         
      5010  -56.614391      0.21619189    -56.398199      0.029520714    185.83702      917.30738      3375         
      5020  -56.627113      0.23283245    -56.39428       0.029520714    200.14114     -1394.7619      3375         
      5030  -56.658614      0.27386996    -56.384745      0.029520714    235.41669     -1518.3787      3375         
      5040  -56.685409      0.30721816    -56.37819       0.029520714    264.08257      520.06081      3375         
      5050  -56.545741      0.18408334    -56.361657      0.029520714    158.23674      1223.9716      3375         
      5060  -56.657787      0.30479498    -56.352992      0.029520714    261.99962      202.96129      3375         
      5070  -56.647609      0.31116646    -56.336443      0.029520714    267.4765      -768.41901      3375         
      5080  -56.629857      0.31077297    -56.319084      0.029520714    267.13826     -143.48378      3375         
      5090  -56.59005       0.28471191    -56.305338      0.029520714    244.73635      925.16831      3375         
      5100  -56.595828      0.32117981    -56.274648      0.029520714    276.08391      72.175916      3375         
      5110  -56.548792      0.28412714    -56.264665      0.029520714    244.23369     -1101.0964      3375         
      5120  -56.621661      0.379464      -56.242197      0.029520714    326.18458     -68.582004      3375         
      5130  -56.601174      0.37914672    -56.222027      0.029520714    325.91185      553.76691      3375         
      5140  -56.547989      0.34581944    -56.202169      0.029520714    297.26396     -431.37064      3375         
      5150  -56.49339       0.30401284    -56.189377      0.029520714    261.3273      -78.047468      3375         
      5160  -56.586796      0.41459543    -56.1722        0.029520714    356.38331      975.47561      3375         
      5170  -56.581662      0.42800713    -56.153655      0.029520714    367.91192      725.34713      3375         
      5180  -56.501405      0.35144211    -56.149963      0.029520714    302.09716     -1052.3666      3375         
      5190  -56.524222      0.3954583     -56.128764      0.029520714    339.93317     -1722.7976      3375         
      5200  -56.55495       0.41789071    -56.137059      0.029520714    359.21592      260.04897      3375         
      5210  -56.46515       0.34563955    -56.119511      0.029520714    297.10932      1699.437       3375         
      5220  -56.604519      0.50067459    -56.103845      0.029520714    430.37636      445.49602      3375         
      5230  -56.529942      0.41486731    -56.115075      0.029520714    356.61702     -1071.3516      3375         
      5240  -56.471745      0.36310202    -56.108643      0.029520714    312.11994     -165.66088      3375         
      5250  -56.542767      0.43184133    -56.110925      0.029520714    371.20777      760.4113       3375         
      5260  -56.664337      0.54973275    -56.114604      0.029520714    472.5464      -347.47705      3375         
      5270  -56.435745      0.31629361    -56.119451      0.029520714    271.88376     -791.07992      3375         
      5280  -56.571614      0.44617801    -56.125436      0.029520714    383.53147      151.89064      3375         
      5290  -56.529494      0.40126313    -56.128231      0.029520714    344.92296      802.06982      3375         
      5300  -56.565868      0.41819219    -56.147676      0.029520714    359.47507     -472.77085      3375         
      5310  -56.484406      0.34592239    -56.138484      0.029520714    297.35245     -732.3606       3375         
      5320  -56.612811      0.45102492    -56.161786      0.029520714    387.69785      971.09414      3375         
      5330  -56.490551      0.32836332    -56.162187      0.029520714    282.2588       1416.0262      3375         
      5340  -56.515018      0.34430047    -56.170717      0.029520714    295.95826     -723.92848      3375         
      5350  -56.516964      0.33598904    -56.180975      0.029520714    288.81382     -1852.5594      3375         
      5360  -56.566685      0.37930096    -56.187384      0.029520714    326.04443      180.22431      3375         
      5370  -56.498179      0.30301508    -56.195164      0.029520714    260.46963      1182.3849      3375         
      5380  -56.526309      0.3249668     -56.201342      0.029520714    279.33918     -316.13203      3375         
      5390  -56.527021      0.32032751    -56.206693      0.029520714    275.35128     -473.59711      3375         
      5400  -56.465587      0.25420728    -56.21138       0.029520714    218.51479      610.60099      3375         
      5410  -56.576085      0.36259726    -56.213488      0.029520714    311.68605      540.0347       3375         
      5420  -56.586598      0.36772412    -56.218873      0.029520714    316.09307     -313.59549      3375         
      5430  -56.480047      0.25977912    -56.220268      0.029520714    223.30431     -348.32752      3375         
      5440  -56.506769      0.28307977    -56.223689      0.029520714    243.33338      517.98754      3375         
      5450  -56.646096      0.42177639    -56.22432       0.029520714    362.55602      131.34737      3375         
      5460  -56.543693      0.31515765    -56.228536      0.029520714    270.9073      -1462.5422      3375         
      5470  -56.526627      0.29965622    -56.22697       0.029520714    257.58238     -805.45998      3375         
      5480  -56.558026      0.32212918    -56.235896      0.029520714    276.89998      1741.4472      3375         
      5490  -56.612168      0.38439189    -56.227776      0.029520714    330.42056      1350.8776      3375         
      5500  -56.606189      0.37109808    -56.235091      0.029520714    318.9933      -662.6531       3375         
      5510  -56.593251      0.35451154    -56.238739      0.029520714    304.73563     -761.42586      3375         
      5520  -56.570748      0.32699558    -56.243753      0.029520714    281.0831      -78.906539      3375         
      5530  -56.57227       0.32440321    -56.247867      0.029520714    278.85471      156.70436      3375         
      5540  -56.64195       0.38612056    -56.255829      0.029520714    331.90652     -425.25927      3375         
      5550  -56.62643       0.3604827     -56.265947      0.029520714    309.8684      -543.70933      3375         
      5560  -56.577396      0.29813213    -56.279264      0.029520714    256.27228      981.71666      3375         
      5570  -56.587906      0.30065029    -56.287255      0.029520714    258.43688      831.38051      3375         
      5580  -56.606861      0.30629283    -56.300568      0.029520714    263.28716     -930.85846      3375         
      5590  -56.588853      0.27624383    -56.312609      0.029520714    237.45726     -411.998        3375         
      5600  -56.657016      0.33360811    -56.323408      0.029520714    286.76718      867.85846      3375         
      5610  -56.64832       0.31411914    -56.334201      0.029520714    270.0146       62.424235      3375         
      5620  -56.541535      0.19652891    -56.345006      0.029520714    168.93487     -1126.3711      3375         
      5630  -56.628087      0.27634229    -56.351744      0.029520714    237.54189     -617.31079      3375         
      5640  -56.674204      0.30669629    -56.367508      0.029520714    263.63397      929.06487      3375         
      5650  -56.59268       0.2337063     -56.358974      0.029520714    200.89229      1236.6777      3375         
      5660  -56.59054       0.21929564    -56.371244      0.029520714    188.50499     -217.63976      3375         
      5670  -56.660264      0.28784704    -56.372417      0.029520714    247.43129     -909.00235      3375         
      5680  -56.63325       0.25789697    -56.375353      0.029520714    221.68642      119.39974      3375         
      5690  -56.655906      0.2792603     -56.376646      0.029520714    240.05019      85.309991      3375         
      5700  -56.618033      0.24148628    -56.376547      0.029520714    207.57991     -775.85095      3375         
      5710  -56.634393      0.25987905    -56.374514      0.029520714    223.3902      -97.993061      3375         
      5720  -56.634045      0.26289413    -56.371151      0.029520714    225.98195      1170.9933      3375         
      5730  -56.665829      0.29919085    -56.366638      0.029520714    257.18235      394.88391      3375         
      5740  -56.642847      0.2824444     -56.360403      0.029520714    242.78722     -983.26805      3375         
      5750  -56.662187      0.31058166    -56.351605      0.029520714    266.97381     -276.21725      3375         
      5760  -56.590404      0.24221824    -56.348185      0.029520714    208.20909      807.41633      3375         
      5770  -56.592459      0.26625237    -56.326206      0.029520714    228.86866      460.9502       3375         
      5780  -56.636912      0.31844955    -56.318463      0.029520714    273.73699     -1020.3786      3375         
      5790  -56.645629      0.34047116    -56.305158      0.029520714    292.66662     -1165.4356      3375         
      5800  -56.584886      0.29719414    -56.287691      0.029520714    255.46599      847.6518       3375         
      5810  -56.545658      0.27338953    -56.272269      0.029520714    235.00372      1256.2749      3375         
      5820  -56.566594      0.31042281    -56.256171      0.029520714    266.83726     -404.93828      3375         
      5830  -56.595489      0.35836525    -56.237124      0.029520714    308.04824     -291.61133      3375         
      5840  -56.533813      0.31854189    -56.215271      0.029520714    273.81637      677.72569      3375         
      5850  -56.467356      0.26523897    -56.202117      0.029520714    227.99755     -345.88924      3375         
      5860  -56.457767      0.27451625    -56.183251      0.029520714    235.97224     -1133.7015      3375         
      5870  -56.573212      0.40872092    -56.164491      0.029520714    351.33362      21.722787      3375         
      5880  -56.561024      0.42141956    -56.139605      0.029520714    362.24929      933.42314      3375         
      5890  -56.442679      0.31867971    -56.124         0.029520714    273.93483      344.27568      3375         
      5900  -56.380521      0.26825175    -56.112269      0.029520714    230.58732     -798.67229      3375         
      5910  -56.555002      0.4611777     -56.093825      0.029520714    396.42511     -91.679702      3375         
      5920  -56.534328      0.4508101     -56.083518      0.029520714    387.51319      1565.1976      3375         
      5930  -56.448655      0.38550692    -56.063148      0.029520714    331.37904      148.74104      3375         
      5940  -56.381454      0.32167093    -56.059783      0.029520714    276.50607     -1821.0302      3375         
      5950  -56.504651      0.45316558    -56.051486      0.029520714    389.53794     -450.00782      3375         
      5960  -56.485326      0.44349706    -56.041829      0.029520714    381.22696      974.31241      3375         
      5970  -56.623089      0.58284425    -56.040244      0.029520714    501.00882      129.32926      3375         
      5980  -56.404065      0.36451664    -56.039549      0.029520714    313.33594     -190.82827      3375         
      5990  -56.524504      0.48279617    -56.041708      0.029520714    415.00819      425.34158      3375         
      6000  -56.535601      0.48653575    -56.049065      0.029520714    418.22271      709.09015      3375         
      6010  -56.582141      0.52355138    -56.05859       0.029520714    450.04108     -661.86603      3375         
      6020  -56.431905      0.36085035    -56.071055      0.029520714    310.18442     -1324.5845      3375         
      6030  -56.537073      0.44506108    -56.092012      0.029520714    382.57137      260.32915      3375         
      6040  -56.50979       0.41730338    -56.092487      0.029520714    358.71105      1228.6438      3375         
      6050  -56.496677      0.38219923    -56.114478      0.029520714    328.53577     -284.46815      3375         
      6060  -56.591484      0.45841996    -56.133064      0.029520714    394.05457     -848.47279      3375         
      6070  -56.593784      0.43971774    -56.154066      0.029520714    377.97827      344.74745      3375         
      6080  -56.481849      0.30819423    -56.173655      0.029520714    264.92159      975.74099      3375         
      6090  -56.524304      0.33754681    -56.186757      0.029520714    290.15286      226.36797      3375         
      6100  -56.605856      0.3971624     -56.208694      0.029520714    341.398       -1076.3112      3375         
      6110  -56.551753      0.33178818    -56.219965      0.029520714    285.20278     -614.34006      3375         
      6120  -56.518384      0.28214426    -56.23624       0.029520714    242.52922      530.35785      3375         
      6130  -56.592772      0.34353114    -56.249241      0.029520714    295.29695     -84.639216      3375         
      6140  -56.545532      0.2877172     -56.257815      0.029520714    247.31968     -272.4268       3375         
      6150  -56.654033      0.38551166    -56.268522      0.029520714    331.38311      766.18804      3375         
      6160  -56.60519       0.3280474     -56.277143      0.029520714    281.98724      739.71421      3375         
      6170  -56.555229      0.27122434    -56.284005      0.029520714    233.14254     -441.19852      3375         
      6180  -56.533227      0.24541139    -56.287815      0.029520714    210.95391     -999.0106       3375         
      6190  -56.654901      0.36221517    -56.292685      0.029520714    311.35761     -251.27899      3375         
      6200  -56.591394      0.29722426    -56.29417       0.029520714    255.49188      644.76092      3375         
      6210  -56.618162      0.32500934    -56.293153      0.029520714    279.37574      92.647483      3375         
      6220  -56.61316       0.31890457    -56.294255      0.029520714    274.12812     -530.98466      3375         
      6230  -56.566498      0.27086565    -56.295633      0.029520714    232.83421      369.40246      3375         
      6240  -56.60371       0.30902626    -56.294684      0.029520714    265.6368       931.75508      3375         
      6250  -56.689437      0.39610397    -56.293333      0.029520714    340.48819      25.376294      3375         
      6260  -56.561236      0.2693215     -56.291914      0.029520714    231.50687     -966.76167      3375         
      6270  -56.52476       0.23405383    -56.290707      0.029520714    201.19102     -570.73594      3375         
      6280  -56.648129      0.35772235    -56.290407      0.029520714    307.49561      218.10901      3375         
      6290  -56.637129      0.35397732    -56.283152      0.029520714    304.27642     -89.689955      3375         
      6300  -56.540287      0.25861347    -56.281674      0.029520714    222.30232      56.315788      3375         
      6310  -56.538854      0.25339673    -56.285457      0.029520714    217.81805      1024.5225      3375         
      6320  -56.524769      0.25406076    -56.270709      0.029520714    218.38885      664.19268      3375         
      6330  -56.558884      0.28774728    -56.271137      0.029520714    247.34553     -482.92982      3375         
      6340  -56.611866      0.34790825    -56.263958      0.029520714    299.05949     -1081.6467      3375         
      6350  -56.568508      0.31079839    -56.257709      0.029520714    267.16011     -436.17751      3375         
      6360  -56.486351      0.23483912    -56.251512      0.029520714    201.86605      769.75111      3375         
[...]
     48420  -56.511416      0.48208946    -56.029327      0.029520714    414.4007      -359.36529      3375         
     48430  -56.531294      0.48149276    -56.049801      0.029520714    413.88779      1558.7832      3375         
     48440  -56.464464      0.44410866    -56.020355      0.029520714    381.75268      1501.7889      3375         
     48450  -56.528569      0.48428978    -56.044279      0.029520714    416.29208     -207.69247      3375         
     48460  -56.432639      0.36616554    -56.066473      0.029520714    314.75332     -1570.4166      3375         
     48470  -56.480983      0.42172825    -56.059255      0.029520714    362.51463     -972.50307      3375         
     48480  -56.59472       0.50113684    -56.093584      0.029520714    430.7737       484.7965       3375         
     48490  -56.429246      0.32910719    -56.100138      0.029520714    282.89822      417.83059      3375         
     48500  -56.503898      0.38446477    -56.119433      0.029520714    330.48321      218.93172      3375         
     48510  -56.541839      0.39982304    -56.142016      0.029520714    343.68507      814.89961      3375         
     48520  -56.485097      0.31239334    -56.172704      0.029520714    268.53111     -255.1215       3375         
     48530  -56.509293      0.3362224     -56.17307       0.029520714    289.01441     -1049.5636      3375         
     48540  -56.677725      0.46716838    -56.210557      0.029520714    401.57465      96.139173      3375         
     48550  -56.579315      0.34214375    -56.237172      0.029520714    294.10436      704.54557      3375         
     48560  -56.553559      0.29636641    -56.257192      0.029520714    254.75448      190.10332      3375         
     48570  -56.527564      0.24967862    -56.277885      0.029520714    214.62198     -688.71589      3375         
     48580  -56.566493      0.27570924    -56.290784      0.029520714    236.99772     -405.20814      3375         
     48590  -56.589758      0.27983357    -56.309924      0.029520714    240.54297      950.88225      3375         
     48600  -56.627665      0.30777788    -56.319887      0.029520714    264.5637       309.40624      3375         
     48610  -56.603416      0.2713752     -56.332041      0.029520714    233.27221     -872.50691      3375         
     48620  -56.559126      0.22053599    -56.33859       0.029520714    189.57118     -418.956        3375         
     48630  -56.671654      0.32710287    -56.344551      0.029520714    281.17532      359.37057      3375         
     48640  -56.670193      0.319973      -56.35022       0.029520714    275.04654      492.82004      3375         
     48650  -56.575255      0.22271501    -56.35254       0.029520714    191.44425      307.10307      3375         
     48660  -56.614512      0.26109795    -56.353414      0.029520714    224.43796      163.51909      3375         
     48670  -56.621534      0.26753159    -56.354002      0.029520714    229.96828     -159.44484      3375         
     48680  -56.515046      0.16342589    -56.351621      0.029520714    140.47974     -869.89502      3375         
     48690  -56.636929      0.28870922    -56.34822       0.029520714    248.17242     -967.35678      3375         
     48700  -56.705309      0.35948778    -56.345822      0.029520714    309.01317      427.82052      3375         
     48710  -56.585037      0.24685342    -56.338184      0.029520714    212.19347      1447.4208      3375         
     48720  -56.636386      0.30103559    -56.335351      0.029520714    258.76808      596.6211       3375         
     48730  -56.623814      0.29368958    -56.330125      0.029520714    252.4535      -543.22202      3375         
     48740  -56.578096      0.25269937    -56.325396      0.029520714    217.2186      -948.89386      3375         
     48750  -56.548865      0.22556553    -56.3233        0.029520714    193.89454     -253.78115      3375         
     48760  -56.591639      0.27955897    -56.31208       0.029520714    240.30693      378.55094      3375         
     48770  -56.57652       0.2670187     -56.309501      0.029520714    229.52739      164.47771      3375         
     48780  -56.679467      0.3824651     -56.297002      0.029520714    328.76431      132.60457      3375         
     48790  -56.583255      0.29321707    -56.290038      0.029520714    252.04733      327.09134      3375         
     48800  -56.544044      0.26175697    -56.282287      0.029520714    225.00445     -29.738659      3375         
     48810  -56.587536      0.31191075    -56.275625      0.029520714    268.11629     -381.8846       3375         
     48820  -56.610347      0.34489655    -56.265451      0.029520714    296.47065     -337.88157      3375         
     48830  -56.530463      0.27522455    -56.255238      0.029520714    236.58109      188.15327      3375         
     48840  -56.58781       0.33949202    -56.248318      0.029520714    291.82495      67.253233      3375         
     48850  -56.572551      0.33437667    -56.238174      0.029520714    287.42783     -438.37032      3375         
     48860  -56.42901       0.19335827    -56.235652      0.029520714    166.2094       239.76067      3375         
     48870  -56.560264      0.3438714     -56.216393      0.029520714    295.58943      907.37267      3375         
     48880  -56.67721       0.47311788    -56.204092      0.029520714    406.6888       290.66237      3375         
     48890  -56.579996      0.38342548    -56.19657       0.029520714    329.58984     -769.36677      3375         
     48900  -56.516349      0.3369835     -56.179365      0.029520714    289.66865     -803.77939      3375         
     48910  -56.577271      0.40285163    -56.174419      0.029520714    346.28843      27.897215      3375         
     48920  -56.386116      0.21270648    -56.17341       0.029520714    182.84099      829.6729       3375         
     48930  -56.491742      0.33711917    -56.154623      0.029520714    289.78527      373.31747      3375         
     48940  -56.65753       0.50711778    -56.150412      0.029520714    435.91487     -379.52544      3375         
     48950  -56.501107      0.36314761    -56.13796       0.029520714    312.15913     -413.26384      3375         
     48960  -56.465063      0.3356321     -56.129431      0.029520714    288.50699     -556.2915       3375         
     48970  -56.623278      0.49961327    -56.123665      0.029520714    429.46405     -94.791005      3375         
     48980  -56.483435      0.35307119    -56.130364      0.029520714    303.49751      995.63296      3375         
     48990  -56.417147      0.31628133    -56.100865      0.029520714    271.8732       804.07963      3375         
     49000  -56.59723       0.49661128    -56.100618      0.029520714    426.88356      117.7788       3375         
     49010  -56.489022      0.38585012    -56.103172      0.029520714    331.67404     -534.71081      3375         
     49020  -56.465439      0.36668583    -56.098754      0.029520714    315.20056     -1300.1827      3375         
     49030  -56.514438      0.42198901    -56.092449      0.029520714    362.73879     -337.79013      3375         
     49040  -56.520117      0.4252655     -56.094852      0.029520714    365.55523      750.05586      3375         
     49050  -56.445372      0.35304685    -56.092325      0.029520714    303.47659      455.66424      3375         
     49060  -56.505229      0.41071921    -56.09451       0.029520714    353.05135      270.08172      3375         
     49070  -56.51063       0.41290441    -56.097725      0.029520714    354.92972      193.34587      3375         
     49080  -56.61855       0.51999469    -56.098555      0.029520714    446.98378     -482.1226       3375         
     49090  -56.512289      0.39903733    -56.113251      0.029520714    343.00968     -176.52853      3375         
     49100  -56.35101       0.22797605    -56.123034      0.029520714    195.96661     -124.12065      3375         
     49110  -56.500133      0.36459093    -56.135542      0.029520714    313.3998      -299.88117      3375         
     49120  -56.609422      0.46322403    -56.146198      0.029520714    398.18411      228.79949      3375         
     49130  -56.502765      0.32701641    -56.175748      0.029520714    281.10101      328.32011      3375         
     49140  -56.522908      0.32478368    -56.198124      0.029520714    279.18177      219.72646      3375         
     49150  -56.627343      0.40457506    -56.222768      0.029520714    347.76987      454.80474      3375         
     49160  -56.533301      0.28254918    -56.250752      0.029520714    242.87728      12.842906      3375         
     49170  -56.565335      0.29060157    -56.274734      0.029520714    249.79907     -729.23016      3375         
     49180  -56.632517      0.33704767    -56.295469      0.029520714    289.7238      -764.81849      3375         
     49190  -56.598008      0.28177998    -56.316228      0.029520714    242.21609     -161.57504      3375         
     49200  -56.554041      0.22000231    -56.334039      0.029520714    189.11244      665.07132      3375         
     49210  -56.60762       0.26294836    -56.344671      0.029520714    226.02856      800.44675      3375         
     49220  -56.648239      0.2905012     -56.357738      0.029520714    249.71278      299.11594      3375         
     49230  -56.611324      0.24474262    -56.366582      0.029520714    210.37904     -352.96864      3375         
     49240  -56.654212      0.27914988    -56.375062      0.029520714    239.95527     -818.01472      3375         
     49250  -56.641753      0.26031426    -56.381439      0.029520714    223.7643      -402.19251      3375         
     49260  -56.602512      0.21567947    -56.386832      0.029520714    185.39656      417.73518      3375         
     49270  -56.614849      0.22604354    -56.388805      0.029520714    194.30544      751.64426      3375         
     49280  -56.667022      0.27665181    -56.39037       0.029520714    237.80795      246.85184      3375         
     49290  -56.580625      0.1921463     -56.388478      0.029520714    165.16761     -605.16609      3375         
     49300  -56.607728      0.21967597    -56.388052      0.029520714    188.83192     -574.63757      3375         
     49310  -56.675231      0.29163315    -56.383598      0.029520714    250.68581      53.170104      3375         
     49320  -56.632949      0.25439247    -56.378556      0.029520714    218.67398      293.04253      3375         
     49330  -56.622287      0.25112939    -56.371157      0.029520714    215.86906      455.99211      3375         
     49340  -56.629695      0.2667233     -56.362972      0.029520714    229.27347      213.00795      3375         
     49350  -56.629323      0.27756377    -56.351759      0.029520714    238.59186     -388.75178      3375         
     49360  -56.601161      0.25994638    -56.341215      0.029520714    223.44808     -293.65404      3375         
     49370  -56.58086       0.25536167    -56.325499      0.029520714    219.5071      -57.557999      3375         
     49380  -56.558356      0.2464473     -56.311909      0.029520714    211.84436      84.009777      3375         
     49390  -56.633279      0.33854876    -56.29473       0.029520714    291.01414      274.12776      3375         
     49400  -56.53802       0.26566695    -56.272353      0.029520714    228.36544     -254.87056      3375         
     49410  -56.608092      0.35381877    -56.254273      0.029520714    304.14012     -302.24267      3375         
     49420  -56.666486      0.43584355    -56.230642      0.029520714    374.64805      567.49063      3375         
     49430  -56.562453      0.36397349    -56.19848       0.029520714    312.86905      476.20876      3375         
     49440  -56.423871      0.2349324     -56.188939      0.029520714    201.94624     -240.23759      3375         
     49450  -56.427942      0.24825579    -56.179686      0.029520714    213.39893     -573.18504      3375         
     49460  -56.586898      0.43193554    -56.154963      0.029520714    371.28875     -611.89257      3375         
     49470  -56.609538      0.46750257    -56.142035      0.029520714    401.86192      116.33495      3375         
     49480  -56.48099       0.34984086    -56.131149      0.029520714    300.72074      875.28966      3375         
     49490  -56.457451      0.34188671    -56.115564      0.029520714    293.88341      856.31072      3375         
     49500  -56.6274        0.51559377    -56.111807      0.029520714    443.20078     -82.879952      3375         
     49510  -56.437015      0.32813183    -56.108884      0.029520714    282.05981     -1008.1955      3375         
     49520  -56.490654      0.39501186    -56.095642      0.029520714    339.54942     -1025.3949      3375         
     49530  -56.534393      0.42442495    -56.109968      0.029520714    364.8327       84.313184      3375         
     49540  -56.450295      0.35063412    -56.099661      0.029520714    301.40262      830.49066      3375         
     49550  -56.49187       0.40209158    -56.089778      0.029520714    345.63509      542.03609      3375         
     49560  -56.50771       0.40978522    -56.097924      0.029520714    352.24849      188.64353      3375         
     49570  -56.443522      0.33966754    -56.103855      0.029520714    291.97583     -70.581153      3375         
     49580  -56.582864      0.48484103    -56.098023      0.029520714    416.76594     -506.23766      3375         
     49590  -56.585621      0.4777713     -56.107849      0.029520714    410.68885     -306.01891      3375         
     49600  -56.395415      0.2816666     -56.113748      0.029520714    242.11863      261.12738      3375         
     49610  -56.533425      0.41594424    -56.117481      0.029520714    357.54274      201.88986      3375         
     49620  -56.566847      0.43809836    -56.128749      0.029520714    376.58627     -91.324191      3375         
     49630  -56.435604      0.30336984    -56.132234      0.029520714    260.77458     -366.58691      3375         
     49640  -56.493581      0.35726341    -56.136317      0.029520714    307.10111      4.1419521      3375         
     49650  -56.649722      0.49602683    -56.153695      0.029520714    426.38117      464.25969      3375         
     49660  -56.47416       0.3193549     -56.154805      0.029520714    274.51523      79.555627      3375         
     49670  -56.453218      0.2927371     -56.160481      0.029520714    251.63475     -636.99617      3375         
     49680  -56.57843       0.40577208    -56.172658      0.029520714    348.79883     -133.71352      3375         
     49690  -56.509787      0.32982296    -56.179964      0.029520714    283.51349      804.68739      3375         
     49700  -56.592199      0.40304514    -56.189153      0.029520714    346.45477      596.52229      3375         
     49710  -56.626698      0.42511025    -56.201588      0.029520714    365.42178     -75.35238       3375         
     49720  -56.484249      0.27394553    -56.210304      0.029520714    235.48165     -741.32661      3375         
     49730  -56.446961      0.22951585    -56.217445      0.029520714    197.29021     -715.47165      3375         
     49740  -56.636618      0.4095786     -56.227039      0.029520714    352.07088     -156.38067      3375         
     49750  -56.533896      0.29886765    -56.235028      0.029520714    256.90453      166.89938      3375         
     49760  -56.525511      0.28559721    -56.239914      0.029520714    245.49735      861.37775      3375         
     49770  -56.709706      0.45596864    -56.253737      0.029520714    391.94744      1039.0057      3375         
     49780  -56.609533      0.34547668    -56.264056      0.029520714    296.96933     -465.49679      3375         
     49790  -56.458847      0.18509367    -56.273753      0.029520714    159.10521     -1336.8806      3375         
     49800  -56.558851      0.27596033    -56.28289       0.029520714    237.21356     -423.58319      3375         
     49810  -56.605315      0.31286592    -56.292449      0.029520714    268.93734      698.82279      3375         
     49820  -56.579495      0.27625034    -56.303245      0.029520714    237.46285      686.52623      3375         
     49830  -56.634607      0.31644529    -56.318162      0.029520714    272.01414     -109.43285      3375         
     49840  -56.600966      0.26563196    -56.335334      0.029520714    228.33536     -395.31232      3375         
     49850  -56.612137      0.25967212    -56.352465      0.029520714    223.21232      240.08556      3375         
     49860  -56.650227      0.28184273    -56.368385      0.029520714    242.27003      290.68249      3375         
     49870  -56.619868      0.22489091    -56.394977      0.029520714    193.31464     -486.10308      3375         
     49880  -56.609855      0.20233795    -56.407517      0.029520714    173.92827     -272.98531      3375         
     49890  -56.684533      0.25750773    -56.427025      0.029520714    221.35183      215.06447      3375         
     49900  -56.63346       0.18671787    -56.446742      0.029520714    160.50137     -196.235        3375         
     49910  -56.608729      0.14788296    -56.460846      0.029520714    127.11915     -17.636753      3375         
     49920  -56.701938      0.23635009    -56.465588      0.029520714    203.16488      535.67203      3375         
     49930  -56.709131      0.23057111    -56.47856       0.029520714    198.1973       399.80792      3375         
     49940  -56.642663      0.15233728    -56.490326      0.029520714    130.94805     -282.93262      3375         
     49950  -56.687959      0.19745395    -56.490505      0.029520714    169.73002     -775.92892      3375         
     49960  -56.72626       0.2260661     -56.500194      0.029520714    194.32483     -190.58127      3375         
     49970  -56.611334      0.10938772    -56.501946      0.029520714    94.028913      791.93755      3375         
     49980  -56.674588      0.1830479     -56.49154       0.029520714    157.34668      508.16668      3375         
     49990  -56.711812      0.21288296    -56.498929      0.029520714    182.9927      -535.30052      3375         
     50000  -56.662104      0.16907653    -56.493028      0.029520714    145.337       -594.23573      3375         
Loop time of 86.8013 on 3 procs for 50000 steps with 10 atoms

Performance: 24.884 ns/day, 0.964 hours/ns, 576.028 timesteps/s, 5.760 katom-step/s
169.2% CPU use with 3 MPI tasks x no OpenMP threads

MPI task timing breakdown:
Section |  min time  |  avg time  |  max time  |%varavg| %total
---------------------------------------------------------------
Pair    | 36.16      | 51.58      | 81.895     | 298.5 | 59.42
Neigh   | 0.0014489  | 0.001869   | 0.0026877  |   1.3 |  0.00
Comm    | 2.2135     | 32.454     | 47.816     | 375.4 | 37.39
Output  | 0.50349    | 0.51       | 0.51692    |   0.8 |  0.59
Modify  | 1.956      | 2.039      | 2.1253     |   4.8 |  2.35
Other   |            | 0.2166     |            |       |  0.25

Nlocal:        3.33333 ave          10 max           0 min
Histogram: 2 0 0 0 0 0 0 0 0 1
Nghost:             80 ave         100 max          49 min
Histogram: 1 0 0 0 0 0 0 0 1 1
Neighs:              0 ave           0 max           0 min
Histogram: 3 0 0 0 0 0 0 0 0 0
FullNghs:           30 ave          90 max           0 min
Histogram: 2 0 0 0 0 0 0 0 0 1

Total # of neighbors = 90
Ave neighs/atom = 9
Neighbor list builds = 299
Dangerous builds = 0

write_data	restart.data
System init for write_data ...
Generated 0 of 1 mixed pair_coeff terms from geometric mixing rule
#
Total wall time: 0:01:28
