LAMMPS data file via write_data, version 2 Aug 2023, timestep = 50000, units = metal

10 atoms
2 atom types

0 15 xlo xhi
0 15 ylo yhi
0 15 zlo zhi

Masses

1 12
2 2

Atoms # atomic

5 2 7.727613509830693 5.588316247268669 5.567364531910367 0 0 0
10 2 7.571620352120013 8.933058964122544 9.782953167830746 0 0 0
6 2 8.916323518590836 6.2113400780166526 6.791011727807663 0 0 0
4 1 7.551603206369415 8.13215664511621 9.088366362592595 0 0 0
7 2 6.298514794105614 7.547240417416029 6.032293667629347 0 0 0
8 2 7.149421543948645 9.34536582958327 7.449877364977864 0 0 0
9 2 7.755712859826061 7.220527336884242 9.538658048819832 0 0 0
1 1 7.923797758278487 6.283069025657084 6.3866958293673655 0 0 0
2 1 7.1285113036220835 7.319221756443977 6.717672540588383 0 0 0
3 1 7.346886635451841 8.327911094140932 7.761738849043142 0 0 0

Velocities

5 18.35773459626984 -12.089899555095544 -4.717877461108804
10 1.8592914416749933 3.7318147810092146 -12.130566953760246
6 -6.006356721037853 8.20716805334155 3.582812130264131
4 -0.7599665225025624 1.7866113732181252 2.2631305531762247
7 2.8361662165836816 -0.20261798433097242 11.290108885533153
8 -8.977033179489776 0.9815807489955113 11.783252596697423
9 -8.951959166695849 -22.00940213215512 -5.6213379292038175
1 2.075925119816499 5.783923552172631 -0.47144111366368935
2 -4.661368036942927 -1.0409246278974509 -1.9391200340535757
3 3.4924355750781024 -2.9660509494541176 -0.5503012835292108
