ITEM: TIMESTEP
0
ITEM: NUMBER OF ATOMS
10
ITEM: BOX BOUNDS pp pp pp
0.0000000000000000e+00 1.5000000000000000e+01
0.0000000000000000e+00 1.5000000000000000e+01
0.0000000000000000e+00 1.5000000000000000e+01
ITEM: ATOMS id type x y z
10 2 8.64953 7.47377 9.18104
4 1 7.9281 7.97397 8.53648
7 2 6.35913 6.50615 5.98407
8 2 6.03582 6.68684 8.83089
9 2 7.82376 9.10118 8.63312
1 1 8.23675 7.79224 6.54878
3 1 6.75356 7.10379 8.12306
2 1 6.88703 7.05665 6.77759
6 2 9.12779 7.17257 6.33511
5 2 8.29535 8.71952 6.00929
ITEM: TIMESTEP
100
ITEM: NUMBER OF ATOMS
10
ITEM: BOX BOUNDS pp pp pp
0.0000000000000000e+00 1.5000000000000000e+01
0.0000000000000000e+00 1.5000000000000000e+01
0.0000000000000000e+00 1.5000000000000000e+01
ITEM: ATOMS id type x y z
10 2 8.75911 7.50606 9.17537
4 1 7.97825 7.93271 8.47917
7 2 6.27907 6.71742 5.96867
8 2 6.03341 6.68246 8.86024
9 2 7.77048 8.97649 8.5825
1 1 8.18248 7.78684 6.50592
3 1 6.80354 7.10372 8.18814
2 1 6.89775 7.08399 6.80797
6 2 8.98455 7.07839 6.37507
5 2 8.1253 8.81559 6.03998
ITEM: TIMESTEP
200
ITEM: NUMBER OF ATOMS
10
ITEM: BOX BOUNDS pp pp pp
0.0000000000000000e+00 1.5000000000000000e+01
0.0000000000000000e+00 1.5000000000000000e+01
0.0000000000000000e+00 1.5000000000000000e+01
ITEM: ATOMS id type x y z
10 2 8.93579 7.30942 8.76283
4 1 8.05164 7.91209 8.489
7 2 6.33783 6.43221 6.06554
8 2 6.00261 6.90592 8.94578
9 2 8.00532 8.92269 8.97477
1 1 8.12439 7.84669 6.52144
3 1 6.73306 7.17448 8.16465
2 1 6.87815 6.99563 6.82801
6 2 9.05249 7.29728 6.17201
5 2 8.06645 8.77912 5.94944
ITEM: TIMESTEP
300
ITEM: NUMBER OF ATOMS
10
ITEM: BOX BOUNDS pp pp pp
0.0000000000000000e+00 1.5000000000000000e+01
0.0000000000000000e+00 1.5000000000000000e+01
0.0000000000000000e+00 1.5000000000000000e+01
ITEM: ATOMS id type x y z
10 2 8.99436 7.42587 8.81504
4 1 8.07951 7.88751 8.4699
7 2 6.15574 6.57213 6.16893
8 2 6.02738 6.92277 8.87577
9 2 7.89048 8.90149 8.82573
1 1 8.11044 7.80499 6.53351
3 1 6.81488 7.1318 8.15888
2 1 6.86125 7.06045 6.84049
6 2 8.97689 7.2639 6.08664
5 2 7.88272 8.82534 6.10023
ITEM: TIMESTEP
400
ITEM: NUMBER OF ATOMS
10
ITEM: BOX BOUNDS pp pp pp
0.0000000000000000e+00 1.5000000000000000e+01
0.0000000000000000e+00 1.5000000000000000e+01
0.0000000000000000e+00 1.5000000000000000e+01
ITEM: ATOMS id type x y z
10 2 9.02643 7.52447 8.92092
4 1 8.1301 7.91967 8.42144
7 2 6.0311 6.72383 6.15317
8 2 6.07081 6.61535 8.83811
9 2 7.88046 8.91345 8.78948
1 1 8.08942 7.79686 6.51648
3 1 6.87509 7.05749 8.20896
2 1 6.75816 7.14577 6.85716
6 2 8.91294 7.17226 6.15487
5 2 8.08567 8.75193 6.00823
ITEM: TIMESTEP
500
ITEM: NUMBER OF ATOMS
10
ITEM: BOX BOUNDS pp pp pp
0.0000000000000000e+00 1.5000000000000000e+01
0.0000000000000000e+00 1.5000000000000000e+01
0.0000000000000000e+00 1.5000000000000000e+01
ITEM: ATOMS id type x y z
10 2 9.06268 7.3776 8.75462
4 1 8.15228 7.87084 8.40233
7 2 6.0719 6.49857 6.3016
8 2 6.14101 6.68107 8.86043
9 2 8.18969 8.89078 8.93221
1 1 8.0325 7.84721 6.52255
3 1 6.85355 7.13715 8.19299
2 1 6.7765 7.10156 6.87139
6 2 8.78495 7.20643 6.0535
5 2 7.98481 8.82502 6.05107
ITEM: TIMESTEP
600
ITEM: NUMBER OF ATOMS
10
ITEM: BOX BOUNDS pp pp pp
0.0000000000000000e+00 1.5000000000000000e+01
0.0000000000000000e+00 1.5000000000000000e+01
0.0000000000000000e+00 1.5000000000000000e+01
ITEM: ATOMS id type x y z
10 2 9.03119 7.16866 8.71451
4 1 8.23065 7.82116 8.37525
7 2 6.0173 6.49365 6.34152
8 2 6.14446 6.88751 8.94119
9 2 8.24981 8.80211 8.72393
1 1 7.95836 7.86557 6.544
3 1 6.87191 7.19976 8.18653
2 1 6.79829 7.03133 6.89325
6 2 8.69618 7.39939 5.86303
5 2 7.82978 8.96174 6.31061
ITEM: TIMESTEP
700
ITEM: NUMBER OF ATOMS
10
ITEM: BOX BOUNDS pp pp pp
0.0000000000000000e+00 1.5000000000000000e+01
0.0000000000000000e+00 1.5000000000000000e+01
0.0000000000000000e+00 1.5000000000000000e+01
ITEM: ATOMS id type x y z
10 2 9.09148 7.35055 8.79455
4 1 8.27514 7.82231 8.30499
7 2 5.88382 6.76975 6.29076
8 2 6.42137 6.53673 9.07253
9 2 8.34698 8.86658 8.7091
1 1 7.91932 7.88882 6.49982
3 1 6.92197 7.07271 8.25813
2 1 6.65983 7.15324 6.92283
6 2 8.74136 7.23371 6.09747
5 2 7.98142 8.84019 6.00998
ITEM: TIMESTEP
800
ITEM: NUMBER OF ATOMS
10
ITEM: BOX BOUNDS pp pp pp
0.0000000000000000e+00 1.5000000000000000e+01
0.0000000000000000e+00 1.5000000000000000e+01
0.0000000000000000e+00 1.5000000000000000e+01
ITEM: ATOMS id type x y z
10 2 9.14584 7.2102 8.61027
4 1 8.25803 7.80281 8.29297
7 2 5.77232 6.86834 6.36714
8 2 6.53709 6.56576 9.09721
9 2 8.24185 8.82689 8.63167
1 1 7.88897 7.86545 6.49678
3 1 7.01776 7.05546 8.24829
2 1 6.64687 7.22672 6.9733
6 2 8.66366 7.21733 6.14189
5 2 7.8935 8.82889 5.97271
ITEM: TIMESTEP
900
ITEM: NUMBER OF ATOMS
10
ITEM: BOX BOUNDS pp pp pp
0.0000000000000000e+00 1.5000000000000000e+01
0.0000000000000000e+00 1.5000000000000000e+01
0.0000000000000000e+00 1.5000000000000000e+01
ITEM: ATOMS id type x y z
10 2 9.23052 7.17031 8.42728
4 1 8.31557 7.74872 8.27088
7 2 5.80906 6.71513 6.45024
8 2 6.39089 7.04293 9.19934
9 2 8.47099 8.73985 8.74096
1 1 7.89685 7.89269 6.4771
3 1 6.94869 7.11991 8.28247
2 1 6.66501 7.08292 6.97829
6 2 8.60179 7.54212 5.69458
5 2 7.66406 8.94427 6.32418
ITEM: TIMESTEP
1000
ITEM: NUMBER OF ATOMS
10
ITEM: BOX BOUNDS pp pp pp
0.0000000000000000e+00 1.5000000000000000e+01
0.0000000000000000e+00 1.5000000000000000e+01
0.0000000000000000e+00 1.5000000000000000e+01
ITEM: ATOMS id type x y z
10 2 9.23305 7.16415 8.23181
4 1 8.33653 7.76194 8.24332
7 2 5.79063 6.76004 6.49346
8 2 6.39285 6.73171 9.1718
9 2 8.44409 8.66955 8.84482
1 1 7.82842 7.88827 6.44226
3 1 6.99393 7.11048 8.31572
2 1 6.66162 7.17328 7.0306
6 2 8.5639 7.36132 5.85408
5 2 7.77648 8.92941 6.10168
ITEM: TIMESTEP
1100
ITEM: NUMBER OF ATOMS
10
ITEM: BOX BOUNDS pp pp pp
0.0000000000000000e+00 1.5000000000000000e+01
0.0000000000000000e+00 1.5000000000000000e+01
0.0000000000000000e+00 1.5000000000000000e+01
ITEM: ATOMS id type x y z
10 2 9.37808 7.33568 8.31724
4 1 8.36936 7.77009 8.23679
7 2 5.62848 6.97668 6.6704
8 2 6.51474 6.48353 9.07959
9 2 8.29803 8.71312 8.72215
1 1 7.83168 7.89076 6.43456
3 1 7.03728 7.01662 8.30958
2 1 6.5989 7.27197 7.05467
6 2 8.44951 7.12922 5.89968
5 2 7.83184 8.88514 5.98628
ITEM: TIMESTEP
1200
ITEM: NUMBER OF ATOMS
10
ITEM: BOX BOUNDS pp pp pp
0.0000000000000000e+00 1.5000000000000000e+01
0.0000000000000000e+00 1.5000000000000000e+01
0.0000000000000000e+00 1.5000000000000000e+01
ITEM: ATOMS id type x y z
10 2 9.38473 7.17906 8.28166
4 1 8.42404 7.69641 8.2363
7 2 5.65799 6.77835 6.67193
8 2 6.43214 6.71863 9.19507
9 2 8.59056 8.75975 8.58854
1 1 7.78851 7.90187 6.42568
3 1 7.03701 7.08709 8.31955
2 1 6.59195 7.19871 7.07855
6 2 8.28744 7.48207 5.54963
5 2 7.72209 8.99763 6.24175
ITEM: TIMESTEP
1300
ITEM: NUMBER OF ATOMS
10
ITEM: BOX BOUNDS pp pp pp
0.0000000000000000e+00 1.5000000000000000e+01
0.0000000000000000e+00 1.5000000000000000e+01
0.0000000000000000e+00 1.5000000000000000e+01
ITEM: ATOMS id type x y z
10 2 9.12981 6.7885 8.00105
4 1 8.45351 7.68861 8.18071
7 2 5.90096 6.56541 6.63831
8 2 6.48604 6.71007 9.17878
9 2 8.91752 8.57508 8.56513
1 1 7.68905 7.97318 6.42075
3 1 7.04731 7.16233 8.37669
2 1 6.63267 7.20463 7.1146
6 2 8.23676 7.34914 5.71053
5 2 7.51771 9.05933 6.23871
ITEM: TIMESTEP
1400
ITEM: NUMBER OF ATOMS
10
ITEM: BOX BOUNDS pp pp pp
0.0000000000000000e+00 1.5000000000000000e+01
0.0000000000000000e+00 1.5000000000000000e+01
0.0000000000000000e+00 1.5000000000000000e+01
ITEM: ATOMS id type x y z
10 2 9.42427 7.07813 8.28399
4 1 8.54422 7.66784 8.13527
7 2 5.51153 7.21015 6.72726
8 2 6.69864 6.53404 9.29667
9 2 8.62626 8.75989 8.38774
1 1 7.64495 7.94823 6.41416
3 1 7.11899 6.98483 8.37245
2 1 6.53978 7.289 7.16454
6 2 8.18236 7.31328 5.63577
5 2 7.59329 8.98512 6.0391
ITEM: TIMESTEP
1500
ITEM: NUMBER OF ATOMS
10
ITEM: BOX BOUNDS pp pp pp
0.0000000000000000e+00 1.5000000000000000e+01
0.0000000000000000e+00 1.5000000000000000e+01
0.0000000000000000e+00 1.5000000000000000e+01
ITEM: ATOMS id type x y z
10 2 9.4928 7.09174 8.01249
4 1 8.51622 7.62451 8.12943
7 2 5.49662 7.25315 6.85571
8 2 6.87879 6.56906 9.30992
9 2 8.63783 8.6556 8.5059
1 1 7.62129 7.94631 6.40594
3 1 7.16958 7.00471 8.3489
2 1 6.53542 7.31831 7.19134
6 2 8.08721 7.28485 5.70672
5 2 7.47573 9.00257 6.04458
ITEM: TIMESTEP
1600
ITEM: NUMBER OF ATOMS
10
ITEM: BOX BOUNDS pp pp pp
0.0000000000000000e+00 1.5000000000000000e+01
0.0000000000000000e+00 1.5000000000000000e+01
0.0000000000000000e+00 1.5000000000000000e+01
ITEM: ATOMS id type x y z
10 2 9.24922 6.86044 7.66663
4 1 8.54916 7.60729 8.07015
7 2 5.60185 6.90598 6.77316
8 2 6.80995 6.77679 9.37564
9 2 8.93755 8.42872 8.70413
1 1 7.59841 7.99738 6.39436
3 1 7.1718 7.12077 8.40618
2 1 6.53553 7.23817 7.23542
6 2 8.01983 7.42453 5.52507
5 2 7.37621 9.04183 6.20772
ITEM: TIMESTEP
1700
ITEM: NUMBER OF ATOMS
10
ITEM: BOX BOUNDS pp pp pp
0.0000000000000000e+00 1.5000000000000000e+01
0.0000000000000000e+00 1.5000000000000000e+01
0.0000000000000000e+00 1.5000000000000000e+01
ITEM: ATOMS id type x y z
10 2 9.4697 6.99768 7.80721
4 1 8.57559 7.5876 8.01873
7 2 5.48492 7.09952 6.98123
8 2 6.79781 6.79847 9.41619
9 2 8.81645 8.46425 8.64552
1 1 7.55651 7.94788 6.36113
3 1 7.20488 7.0345 8.41023
2 1 6.52719 7.31049 7.26398
6 2 7.8995 7.50849 5.413
5 2 7.47063 9.06873 6.30137
ITEM: TIMESTEP
1800
ITEM: NUMBER OF ATOMS
10
ITEM: BOX BOUNDS pp pp pp
0.0000000000000000e+00 1.5000000000000000e+01
0.0000000000000000e+00 1.5000000000000000e+01
0.0000000000000000e+00 1.5000000000000000e+01
ITEM: ATOMS id type x y z
10 2 9.51437 6.9545 7.91463
4 1 8.58839 7.62056 8.02307
7 2 5.43231 7.2498 7.32506
8 2 7.06681 6.24176 9.13569
9 2 8.65675 8.59254 8.52919
1 1 7.51441 7.9606 6.38604
3 1 7.27474 6.9466 8.31204
2 1 6.49619 7.49143 7.35027
6 2 7.73977 7.11915 5.65271
5 2 7.4716 8.94712 5.90325
ITEM: TIMESTEP
1900
ITEM: NUMBER OF ATOMS
10
ITEM: BOX BOUNDS pp pp pp
0.0000000000000000e+00 1.5000000000000000e+01
0.0000000000000000e+00 1.5000000000000000e+01
0.0000000000000000e+00 1.5000000000000000e+01
ITEM: ATOMS id type x y z
10 2 9.33984 6.72152 7.77377
4 1 8.64566 7.53937 7.90455
7 2 5.43464 6.96594 7.20813
8 2 6.9952 6.5105 9.30078
9 2 9.24649 8.39704 8.36131
1 1 7.4715 8.05785 6.38703
3 1 7.27677 7.07184 8.40786
2 1 6.45338 7.32709 7.40357
6 2 7.68214 7.48854 5.46849
5 2 7.34185 9.15959 6.15845
ITEM: TIMESTEP
2000
ITEM: NUMBER OF ATOMS
10
ITEM: BOX BOUNDS pp pp pp
0.0000000000000000e+00 1.5000000000000000e+01
0.0000000000000000e+00 1.5000000000000000e+01
0.0000000000000000e+00 1.5000000000000000e+01
ITEM: ATOMS id type x y z
10 2 9.29141 6.5202 7.68561
4 1 8.66924 7.48307 7.82805
7 2 5.41611 7.03456 7.29473
8 2 7.00586 6.8799 9.40748
9 2 9.26721 8.28999 8.24951
1 1 7.37026 8.05605 6.44356
3 1 7.34516 7.14444 8.3943
2 1 6.49441 7.25921 7.37025
6 2 7.5631 7.70503 5.43415
5 2 7.30591 9.13368 6.60056
ITEM: TIMESTEP
2100
ITEM: NUMBER OF ATOMS
10
ITEM: BOX BOUNDS pp pp pp
0.0000000000000000e+00 1.5000000000000000e+01
0.0000000000000000e+00 1.5000000000000000e+01
0.0000000000000000e+00 1.5000000000000000e+01
ITEM: ATOMS id type x y z
10 2 9.45245 6.79307 7.51882
4 1 8.68515 7.53228 7.80032
7 2 5.3518 7.44341 7.55632
8 2 7.2846 6.35491 9.23809
9 2 9.11654 8.38555 8.40428
1 1 7.36274 8.02014 6.44794
3 1 7.34965 6.97985 8.35488
2 1 6.44273 7.46062 7.4628
6 2 7.57997 7.24545 5.71495
5 2 7.297 9.04028 6.06089
ITEM: TIMESTEP
2200
ITEM: NUMBER OF ATOMS
10
ITEM: BOX BOUNDS pp pp pp
0.0000000000000000e+00 1.5000000000000000e+01
0.0000000000000000e+00 1.5000000000000000e+01
0.0000000000000000e+00 1.5000000000000000e+01
ITEM: ATOMS id type x y z
10 2 9.49127 6.88794 7.33522
4 1 8.68471 7.49775 7.76708
7 2 5.33251 7.56179 7.52948
8 2 7.37909 6.53631 9.36727
9 2 9.06461 8.30443 8.38873
1 1 7.34444 7.99095 6.44689
3 1 7.38043 6.97714 8.35701
2 1 6.43267 7.43255 7.52668
6 2 7.44409 7.44773 5.47251
5 2 7.35893 9.09145 6.20978
ITEM: TIMESTEP
2300
ITEM: NUMBER OF ATOMS
10
ITEM: BOX BOUNDS pp pp pp
0.0000000000000000e+00 1.5000000000000000e+01
0.0000000000000000e+00 1.5000000000000000e+01
0.0000000000000000e+00 1.5000000000000000e+01
ITEM: ATOMS id type x y z
10 2 9.08906 6.60444 7.13984
4 1 8.6537 7.43893 7.69116
7 2 5.42479 7.11919 7.3628
8 2 7.37641 6.95906 9.49993
9 2 9.37977 8.0473 8.25447
1 1 7.30079 8.05551 6.45973
3 1 7.44766 7.12559 8.42543
2 1 6.47221 7.32997 7.49914
6 2 7.30884 7.69852 5.39475
5 2 7.29897 9.09152 6.78442
ITEM: TIMESTEP
2400
ITEM: NUMBER OF ATOMS
10
ITEM: BOX BOUNDS pp pp pp
0.0000000000000000e+00 1.5000000000000000e+01
0.0000000000000000e+00 1.5000000000000000e+01
0.0000000000000000e+00 1.5000000000000000e+01
ITEM: ATOMS id type x y z
10 2 9.1905 6.53303 7.17205
4 1 8.65393 7.40818 7.62192
7 2 5.39951 7.17522 7.55308
8 2 7.44197 6.36036 9.33976
9 2 9.46334 8.1885 7.79182
1 1 7.26666 8.115 6.47791
3 1 7.44939 7.04299 8.48136
2 1 6.48045 7.46354 7.62817
6 2 7.37479 7.62518 5.56082
5 2 7.1513 9.15947 6.21532
ITEM: TIMESTEP
2500
ITEM: NUMBER OF ATOMS
10
ITEM: BOX BOUNDS pp pp pp
0.0000000000000000e+00 1.5000000000000000e+01
0.0000000000000000e+00 1.5000000000000000e+01
0.0000000000000000e+00 1.5000000000000000e+01
ITEM: ATOMS id type x y z
10 2 9.43428 6.67717 7.13517
4 1 8.65936 7.37719 7.57486
7 2 5.57644 7.72358 8.13141
8 2 7.45181 6.2199 9.22107
9 2 8.79549 8.44104 7.81204
1 1 7.23918 8.06953 6.47091
3 1 7.49127 6.91661 8.38072
2 1 6.54749 7.5607 7.70184
6 2 7.00523 7.47718 5.58212
5 2 7.23698 9.13692 6.23721
ITEM: TIMESTEP
2600
ITEM: NUMBER OF ATOMS
10
ITEM: BOX BOUNDS pp pp pp
0.0000000000000000e+00 1.5000000000000000e+01
0.0000000000000000e+00 1.5000000000000000e+01
0.0000000000000000e+00 1.5000000000000000e+01
ITEM: ATOMS id type x y z
10 2 9.02532 6.60608 6.82302
4 1 8.651 7.36457 7.48242
7 2 5.45878 7.3341 7.94853
8 2 7.4777 6.4663 9.42193
9 2 9.44318 8.06483 7.69408
1 1 7.18055 8.1127 6.5056
3 1 7.5403 7.01879 8.46788
2 1 6.52406 7.49243 7.73162
6 2 7.05677 7.58825 5.50761
5 2 7.28678 9.22956 6.36875
ITEM: TIMESTEP
2700
ITEM: NUMBER OF ATOMS
10
ITEM: BOX BOUNDS pp pp pp
0.0000000000000000e+00 1.5000000000000000e+01
0.0000000000000000e+00 1.5000000000000000e+01
0.0000000000000000e+00 1.5000000000000000e+01
ITEM: ATOMS id type x y z
10 2 8.86499 6.5448 6.72558
4 1 8.65734 7.35417 7.43056
7 2 5.4294 7.33172 7.94842
8 2 7.57162 6.74397 9.52249
9 2 9.55079 7.92147 7.63883
1 1 7.14625 8.10106 6.51952
3 1 7.58979 7.02409 8.45257
2 1 6.50784 7.4744 7.76612
6 2 6.99475 7.76863 5.49643
5 2 7.3051 9.1871 6.54459
ITEM: TIMESTEP
2800
ITEM: NUMBER OF ATOMS
10
ITEM: BOX BOUNDS pp pp pp
0.0000000000000000e+00 1.5000000000000000e+01
0.0000000000000000e+00 1.5000000000000000e+01
0.0000000000000000e+00 1.5000000000000000e+01
ITEM: ATOMS id type x y z
10 2 9.25782 6.64257 6.74389
4 1 8.65375 7.33727 7.40337
7 2 5.64906 7.92863 8.35189
8 2 7.71116 6.50586 9.3224
9 2 9.13727 8.29627 7.76928
1 1 7.13679 8.04865 6.53629
3 1 7.53991 6.88691 8.32957
2 1 6.54501 7.598 7.83758
6 2 6.85998 7.51892 5.62173
5 2 7.25591 9.1028 6.43896
ITEM: TIMESTEP
2900
ITEM: NUMBER OF ATOMS
10
ITEM: BOX BOUNDS pp pp pp
0.0000000000000000e+00 1.5000000000000000e+01
0.0000000000000000e+00 1.5000000000000000e+01
0.0000000000000000e+00 1.5000000000000000e+01
ITEM: ATOMS id type x y z
10 2 8.99606 6.49128 6.65191
4 1 8.66639 7.30681 7.31569
7 2 5.44097 7.68486 8.22381
8 2 7.81888 6.31187 9.19683
9 2 9.56957 7.93445 7.4886
1 1 7.09446 8.12864 6.6413
3 1 7.61592 7.01029 8.38033
2 1 6.49269 7.59127 7.88749
6 2 6.99216 7.42573 5.80671
5 2 7.08956 9.14973 6.17226
ITEM: TIMESTEP
3000
ITEM: NUMBER OF ATOMS
10
ITEM: BOX BOUNDS pp pp pp
0.0000000000000000e+00 1.5000000000000000e+01
0.0000000000000000e+00 1.5000000000000000e+01
0.0000000000000000e+00 1.5000000000000000e+01
ITEM: ATOMS id type x y z
10 2 8.89524 6.31701 6.7248
4 1 8.61567 7.24003 7.21184
7 2 5.47533 7.57613 8.22639
8 2 7.92838 6.61949 9.3577
9 2 9.44915 7.86607 7.26581
1 1 7.03716 8.15776 6.64278
3 1 7.72482 7.09239 8.38193
2 1 6.50312 7.50788 7.91448
6 2 6.71634 7.66063 5.69054
5 2 7.37495 9.19234 6.71756
ITEM: TIMESTEP
3100
ITEM: NUMBER OF ATOMS
10
ITEM: BOX BOUNDS pp pp pp
0.0000000000000000e+00 1.5000000000000000e+01
0.0000000000000000e+00 1.5000000000000000e+01
0.0000000000000000e+00 1.5000000000000000e+01
ITEM: ATOMS id type x y z
10 2 8.95134 6.28413 6.65877
4 1 8.61739 7.20466 7.14363
7 2 5.55591 7.64124 8.52226
8 2 8.01013 6.50393 9.27632
9 2 9.38118 8.01443 7.2287
1 1 6.99337 8.1088 6.62222
3 1 7.7121 7.02859 8.3564
2 1 6.56311 7.62584 8.03151
6 2 6.56826 7.81424 5.67472
5 2 7.34135 9.15465 6.60572
ITEM: TIMESTEP
3200
ITEM: NUMBER OF ATOMS
10
ITEM: BOX BOUNDS pp pp pp
0.0000000000000000e+00 1.5000000000000000e+01
0.0000000000000000e+00 1.5000000000000000e+01
0.0000000000000000e+00 1.5000000000000000e+01
ITEM: ATOMS id type x y z
10 2 8.88568 6.31473 6.50516
4 1 8.61278 7.22591 7.15382
7 2 5.76709 7.66188 8.70329
8 2 7.87343 6.15625 9.00687
9 2 9.50433 7.88926 7.22141
1 1 6.96766 8.1334 6.6557
3 1 7.69318 6.9727 8.32396
2 1 6.64527 7.77065 8.08472
6 2 6.63308 7.41693 5.85929
5 2 6.94705 9.16498 6.28379
ITEM: TIMESTEP
3300
ITEM: NUMBER OF ATOMS
10
ITEM: BOX BOUNDS pp pp pp
0.0000000000000000e+00 1.5000000000000000e+01
0.0000000000000000e+00 1.5000000000000000e+01
0.0000000000000000e+00 1.5000000000000000e+01
ITEM: ATOMS id type x y z
10 2 8.77539 6.32399 6.44965
4 1 8.53566 7.17172 7.06993
7 2 5.84072 7.85951 8.76603
8 2 8.04297 6.62438 9.3591
9 2 9.35798 7.87938 7.24466
1 1 6.92445 8.14741 6.64823
3 1 7.79817 6.99237 8.33545
2 1 6.6478 7.61981 8.06334
6 2 6.38462 7.74751 5.79662
5 2 7.28587 9.19735 6.57119
ITEM: TIMESTEP
3400
ITEM: NUMBER OF ATOMS
10
ITEM: BOX BOUNDS pp pp pp
0.0000000000000000e+00 1.5000000000000000e+01
0.0000000000000000e+00 1.5000000000000000e+01
0.0000000000000000e+00 1.5000000000000000e+01
ITEM: ATOMS id type x y z
10 2 8.57931 6.35004 6.32731
4 1 8.51875 7.16285 7.03193
7 2 5.7932 7.77686 8.78451
8 2 8.25832 6.73648 9.33945
9 2 9.50145 7.5785 6.965
1 1 6.92043 8.18781 6.67456
3 1 7.84058 7.02359 8.3795
2 1 6.63032 7.56616 8.10038
6 2 6.31503 7.8893 5.80297
5 2 7.21626 9.24628 6.55154
ITEM: TIMESTEP
3500
ITEM: NUMBER OF ATOMS
10
ITEM: BOX BOUNDS pp pp pp
0.0000000000000000e+00 1.5000000000000000e+01
0.0000000000000000e+00 1.5000000000000000e+01
0.0000000000000000e+00 1.5000000000000000e+01
ITEM: ATOMS id type x y z
10 2 8.34988 6.3005 6.36362
4 1 8.52931 7.18245 6.99172
7 2 5.95808 7.8765 8.86904
8 2 8.20026 6.33743 9.10709
9 2 9.44956 7.80625 7.03495
1 1 6.92554 8.16427 6.7396
3 1 7.79702 6.95874 8.30449
2 1 6.74209 7.73342 8.13576
6 2 6.33767 7.46592 6.08982
5 2 6.86477 9.20014 6.39507
ITEM: TIMESTEP
3600
ITEM: NUMBER OF ATOMS
10
ITEM: BOX BOUNDS pp pp pp
0.0000000000000000e+00 1.5000000000000000e+01
0.0000000000000000e+00 1.5000000000000000e+01
0.0000000000000000e+00 1.5000000000000000e+01
ITEM: ATOMS id type x y z
10 2 8.80353 6.33828 6.219
4 1 8.45335 7.12164 6.93663
7 2 6.14068 8.23151 8.87917
8 2 8.38896 6.44485 9.1756
9 2 9.13326 8.02936 6.82966
1 1 6.81209 8.10986 6.75678
3 1 7.83172 6.86122 8.30495
2 1 6.82655 7.77389 8.18952
6 2 6.02893 7.81185 6.09512
5 2 7.0864 9.16452 6.56318
ITEM: TIMESTEP
3700
ITEM: NUMBER OF ATOMS
10
ITEM: BOX BOUNDS pp pp pp
0.0000000000000000e+00 1.5000000000000000e+01
0.0000000000000000e+00 1.5000000000000000e+01
0.0000000000000000e+00 1.5000000000000000e+01
ITEM: ATOMS id type x y z
10 2 8.09145 6.18216 6.25861
4 1 8.38766 7.10727 6.84436
7 2 5.82533 7.76327 8.75143
8 2 8.38594 6.41064 9.156
9 2 9.32654 7.5773 6.49095
1 1 6.82984 8.19386 6.80178
3 1 8.01483 7.04298 8.32802
2 1 6.83235 7.71397 8.27178
6 2 6.0853 7.71658 6.15479
5 2 7.02133 9.22157 6.60159
ITEM: TIMESTEP
3800
ITEM: NUMBER OF ATOMS
10
ITEM: BOX BOUNDS pp pp pp
0.0000000000000000e+00 1.5000000000000000e+01
0.0000000000000000e+00 1.5000000000000000e+01
0.0000000000000000e+00 1.5000000000000000e+01
ITEM: ATOMS id type x y z
10 2 8.05428 6.23584 6.16459
4 1 8.34174 7.04787 6.80495
7 2 6.0848 7.77969 8.98077
8 2 8.46675 6.41259 9.05214
9 2 9.21133 7.62823 6.48127
1 1 6.82299 8.18228 6.85263
3 1 8.01878 7.06796 8.30935
2 1 6.86092 7.73093 8.249
6 2 6.02496 7.71952 6.25261
5 2 7.01522 9.26989 6.66205
ITEM: TIMESTEP
3900
ITEM: NUMBER OF ATOMS
10
ITEM: BOX BOUNDS pp pp pp
0.0000000000000000e+00 1.5000000000000000e+01
0.0000000000000000e+00 1.5000000000000000e+01
0.0000000000000000e+00 1.5000000000000000e+01
ITEM: ATOMS id type x y z
10 2 8.40892 6.28626 5.98304
4 1 8.31149 7.04795 6.76426
7 2 6.51073 8.25401 9.20996
8 2 8.5201 6.46913 9.1107
9 2 8.99863 7.8575 6.59076
1 1 6.76588 8.14041 6.86407
3 1 7.96215 6.91607 8.25675
2 1 6.94517 7.77568 8.31361
6 2 5.81539 7.87226 6.28214
5 2 6.96205 9.20022 6.52028
ITEM: TIMESTEP
4000
ITEM: NUMBER OF ATOMS
10
ITEM: BOX BOUNDS pp pp pp
0.0000000000000000e+00 1.5000000000000000e+01
0.0000000000000000e+00 1.5000000000000000e+01
0.0000000000000000e+00 1.5000000000000000e+01
ITEM: ATOMS id type x y z
10 2 7.89416 6.26085 6.15847
4 1 8.26823 7.08671 6.75908
7 2 6.44306 8.00111 9.22869
8 2 8.49423 6.52251 9.08325
9 2 9.19209 7.54473 6.32326
1 1 6.74677 8.20144 6.88411
3 1 8.02985 6.93484 8.21995
2 1 6.99583 7.78689 8.32103
6 2 6.01696 7.58633 6.39019
5 2 6.83943 9.2452 6.60011
ITEM: TIMESTEP
4100
ITEM: NUMBER OF ATOMS
10
ITEM: BOX BOUNDS pp pp pp
0.0000000000000000e+00 1.5000000000000000e+01
0.0000000000000000e+00 1.5000000000000000e+01
0.0000000000000000e+00 1.5000000000000000e+01
ITEM: ATOMS id type x y z
10 2 7.7673 6.16185 6.16904
4 1 8.22664 7.04862 6.72022
7 2 6.43464 7.91387 9.29612
8 2 8.80491 6.66488 9.02154
9 2 9.06998 7.45002 6.15805
1 1 6.74754 8.20756 6.91353
3 1 8.07659 6.99465 8.23579
2 1 6.98083 7.73261 8.35071
6 2 5.91876 7.91299 6.30221
5 2 6.93882 9.21577 6.62054
ITEM: TIMESTEP
4200
ITEM: NUMBER OF ATOMS
10
ITEM: BOX BOUNDS pp pp pp
0.0000000000000000e+00 1.5000000000000000e+01
0.0000000000000000e+00 1.5000000000000000e+01
0.0000000000000000e+00 1.5000000000000000e+01
ITEM: ATOMS id type x y z
10 2 8.03503 6.17987 6.04602
4 1 8.15295 7.00398 6.69407
7 2 6.71197 8.18912 9.32857
8 2 8.82988 6.5411 8.82454
9 2 8.88746 7.76118 6.35375
1 1 6.71355 8.16376 6.93923
3 1 8.06937 6.96265 8.20223
2 1 7.03129 7.78006 8.37462
6 2 5.7199 7.96431 6.51773
5 2 7.1368 9.12176 6.55744
ITEM: TIMESTEP
4300
ITEM: NUMBER OF ATOMS
10
ITEM: BOX BOUNDS pp pp pp
0.0000000000000000e+00 1.5000000000000000e+01
0.0000000000000000e+00 1.5000000000000000e+01
0.0000000000000000e+00 1.5000000000000000e+01
ITEM: ATOMS id type x y z
10 2 7.96279 6.09122 6.09851
4 1 8.11981 7.03181 6.64809
7 2 6.65219 8.1573 9.34248
8 2 8.34977 6.06504 8.65936
9 2 8.92514 7.56068 6.1957
1 1 6.70234 8.17377 7.05911
3 1 8.08588 6.97569 8.08499
2 1 7.21008 7.95589 8.41778
6 2 5.93612 7.36483 6.83591
5 2 6.58932 9.15802 6.49716
ITEM: TIMESTEP
4400
ITEM: NUMBER OF ATOMS
10
ITEM: BOX BOUNDS pp pp pp
0.0000000000000000e+00 1.5000000000000000e+01
0.0000000000000000e+00 1.5000000000000000e+01
0.0000000000000000e+00 1.5000000000000000e+01
ITEM: ATOMS id type x y z
10 2 7.86116 5.99843 6.10772
4 1 8.01051 6.97279 6.58762
7 2 6.66338 8.18238 9.3622
8 2 9.03827 6.53022 8.64428
9 2 8.79125 7.4882 5.98432
1 1 6.66335 8.16719 7.06867
3 1 8.18537 7.00768 8.10517
2 1 7.16073 7.84215 8.46538
6 2 5.64563 7.93805 6.7221
5 2 7.00458 9.14385 6.70732
ITEM: TIMESTEP
4500
ITEM: NUMBER OF ATOMS
10
ITEM: BOX BOUNDS pp pp pp
0.0000000000000000e+00 1.5000000000000000e+01
0.0000000000000000e+00 1.5000000000000000e+01
0.0000000000000000e+00 1.5000000000000000e+01
ITEM: ATOMS id type x y z
10 2 7.57076 6.04261 6.16045
4 1 8.01853 6.94871 6.57448
7 2 6.82818 8.14393 9.44219
8 2 9.04541 6.6429 8.53833
9 2 8.79989 7.38159 5.92409
1 1 6.66547 8.16815 7.11454
3 1 8.18073 7.04613 8.06013
2 1 7.18149 7.8227 8.4488
6 2 5.66973 7.93 6.84875
5 2 6.93269 9.16483 6.78751
ITEM: TIMESTEP
4600
ITEM: NUMBER OF ATOMS
10
ITEM: BOX BOUNDS pp pp pp
0.0000000000000000e+00 1.5000000000000000e+01
0.0000000000000000e+00 1.5000000000000000e+01
0.0000000000000000e+00 1.5000000000000000e+01
ITEM: ATOMS id type x y z
10 2 7.57114 6.07842 6.01811
4 1 7.9941 6.97553 6.53667
7 2 7.0755 8.33205 9.44125
8 2 8.86165 6.38995 8.67184
9 2 8.85543 7.33383 5.95038
1 1 6.6481 8.18749 7.13637
3 1 8.15933 6.9804 8.04344
2 1 7.28422 7.9102 8.45755
6 2 5.73793 7.55496 7.02294
5 2 6.50788 9.20909 6.74028
ITEM: TIMESTEP
4700
ITEM: NUMBER OF ATOMS
10
ITEM: BOX BOUNDS pp pp pp
0.0000000000000000e+00 1.5000000000000000e+01
0.0000000000000000e+00 1.5000000000000000e+01
0.0000000000000000e+00 1.5000000000000000e+01
ITEM: ATOMS id type x y z
10 2 7.70149 6.01706 5.9936
4 1 7.90737 6.93019 6.51289
7 2 7.27621 8.40323 9.40116
8 2 9.01648 6.62379 8.69825
9 2 8.67691 7.44528 5.95565
1 1 6.5987 8.17897 7.16658
3 1 8.20817 6.95129 8.03067
2 1 7.32278 7.88291 8.44843
6 2 5.53066 7.82225 7.10468
5 2 6.70012 9.2483 6.78431
ITEM: TIMESTEP
4800
ITEM: NUMBER OF ATOMS
10
ITEM: BOX BOUNDS pp pp pp
0.0000000000000000e+00 1.5000000000000000e+01
0.0000000000000000e+00 1.5000000000000000e+01
0.0000000000000000e+00 1.5000000000000000e+01
ITEM: ATOMS id type x y z
10 2 7.30636 5.95426 6.31905
4 1 7.88296 6.89264 6.5415
7 2 7.12343 7.96137 9.50409
8 2 9.17712 6.75885 8.50101
9 2 8.53514 7.17278 5.72175
1 1 6.59869 8.22509 7.21116
3 1 8.29844 7.07686 7.95517
2 1 7.32587 7.81753 8.42287
6 2 5.52285 8.05101 7.1872
5 2 6.82331 9.24897 6.87174
ITEM: TIMESTEP
4900
ITEM: NUMBER OF ATOMS
10
ITEM: BOX BOUNDS pp pp pp
0.0000000000000000e+00 1.5000000000000000e+01
0.0000000000000000e+00 1.5000000000000000e+01
0.0000000000000000e+00 1.5000000000000000e+01
ITEM: ATOMS id type x y z
10 2 7.33286 5.92617 6.25462
4 1 7.79537 6.91218 6.50883
7 2 7.25596 8.14646 9.48998
8 2 9.12436 6.3501 8.43491
9 2 8.43834 7.3337 5.643
1 1 6.54791 8.24411 7.21998
3 1 8.35425 7.00367 7.96577
2 1 7.45784 7.89942 8.45299
6 2 5.54499 7.86721 7.36418
5 2 6.49524 9.24008 6.81691
ITEM: TIMESTEP
5000
ITEM: NUMBER OF ATOMS
10
ITEM: BOX BOUNDS pp pp pp
0.0000000000000000e+00 1.5000000000000000e+01
0.0000000000000000e+00 1.5000000000000000e+01
0.0000000000000000e+00 1.5000000000000000e+01
ITEM: ATOMS id type x y z
10 2 7.44962 5.94627 6.07446
4 1 7.75733 6.90039 6.53774
7 2 7.51694 8.46485 9.35498
8 2 9.10321 6.31133 8.31892
9 2 8.3013 7.5868 5.92138
1 1 6.52872 8.21298 7.33855
3 1 8.30252 6.92175 7.89396
2 1 7.5357 7.95331 8.37578
6 2 5.52007 7.72718 7.5163
5 2 6.48724 9.25303 6.82675
ITEM: TIMESTEP
5100
ITEM: NUMBER OF ATOMS
10
ITEM: BOX BOUNDS pp pp pp
0.0000000000000000e+00 1.5000000000000000e+01
0.0000000000000000e+00 1.5000000000000000e+01
0.0000000000000000e+00 1.5000000000000000e+01
ITEM: ATOMS id type x y z
10 2 7.12365 5.99605 6.37691
4 1 7.71762 6.87263 6.5123
7 2 7.37386 8.18296 9.48948
8 2 9.31745 6.47703 8.09169
9 2 8.2186 7.25396 5.63617
1 1 6.53315 8.22956 7.33071
3 1 8.38343 7.02717 7.85744
2 1 7.54244 7.89442 8.45289
6 2 5.45989 7.88335 7.46112
5 2 6.57074 9.28398 6.91359
ITEM: TIMESTEP
5200
ITEM: NUMBER OF ATOMS
10
ITEM: BOX BOUNDS pp pp pp
0.0000000000000000e+00 1.5000000000000000e+01
0.0000000000000000e+00 1.5000000000000000e+01
0.0000000000000000e+00 1.5000000000000000e+01
ITEM: ATOMS id type x y z
10 2 7.0109 5.97228 6.37316
4 1 7.67157 6.86839 6.50358
7 2 7.4948 8.21147 9.48503
8 2 9.39946 6.64377 8.00234
9 2 8.23039 7.228 5.59894
1 1 6.51957 8.23656 7.37417
3 1 8.38835 7.02615 7.82669
2 1 7.55937 7.87646 8.45617
6 2 5.49688 7.90346 7.52526
5 2 6.65842 9.21565 6.94057
ITEM: TIMESTEP
5300
ITEM: NUMBER OF ATOMS
10
ITEM: BOX BOUNDS pp pp pp
0.0000000000000000e+00 1.5000000000000000e+01
0.0000000000000000e+00 1.5000000000000000e+01
0.0000000000000000e+00 1.5000000000000000e+01
ITEM: ATOMS id type x y z
10 2 7.14452 5.95017 5.98278
4 1 7.62474 6.87983 6.49
7 2 7.91913 8.58902 9.28456
8 2 9.31017 6.55487 8.15073
9 2 8.24812 7.5019 5.79179
1 1 6.50973 8.21731 7.48161
3 1 8.31444 6.90099 7.83094
2 1 7.64618 7.96207 8.36954
6 2 5.57737 7.70058 7.72498
5 2 6.35415 9.16225 6.92165
ITEM: TIMESTEP
5400
ITEM: NUMBER OF ATOMS
10
ITEM: BOX BOUNDS pp pp pp
0.0000000000000000e+00 1.5000000000000000e+01
0.0000000000000000e+00 1.5000000000000000e+01
0.0000000000000000e+00 1.5000000000000000e+01
ITEM: ATOMS id type x y z
10 2 6.93855 5.96725 6.32259
4 1 7.54695 6.85227 6.44322
7 2 7.91272 8.23048 9.47503
8 2 9.33939 6.55946 8.04742
9 2 8.04099 7.19126 5.50078
1 1 6.52348 8.23614 7.45436
3 1 8.37772 7.00266 7.76481
2 1 7.70986 7.96615 8.45451
6 2 5.62834 7.69122 7.85186
5 2 6.31595 9.23697 6.98995
ITEM: TIMESTEP
5500
ITEM: NUMBER OF ATOMS
10
ITEM: BOX BOUNDS pp pp pp
0.0000000000000000e+00 1.5000000000000000e+01
0.0000000000000000e+00 1.5000000000000000e+01
0.0000000000000000e+00 1.5000000000000000e+01
ITEM: ATOMS id type x y z
10 2 6.92715 5.88656 6.58699
4 1 7.49904 6.81721 6.49577
7 2 7.87382 8.00719 9.52673
8 2 9.42312 6.72079 7.85187
9 2 7.73908 7.15769 5.51188
1 1 6.56373 8.23667 7.5313
3 1 8.38684 7.09186 7.65122
2 1 7.71885 7.90741 8.42606
6 2 5.54877 7.92561 7.85235
5 2 6.60126 9.20316 6.93306
ITEM: TIMESTEP
5600
ITEM: NUMBER OF ATOMS
10
ITEM: BOX BOUNDS pp pp pp
0.0000000000000000e+00 1.5000000000000000e+01
0.0000000000000000e+00 1.5000000000000000e+01
0.0000000000000000e+00 1.5000000000000000e+01
ITEM: ATOMS id type x y z
10 2 7.00337 5.85772 6.17734
4 1 7.40202 6.83914 6.51734
7 2 8.07903 8.41683 9.35466
8 2 9.33738 6.47633 7.80758
9 2 7.68593 7.45023 5.59961
1 1 6.53017 8.21019 7.59674
3 1 8.41343 6.98175 7.66971
2 1 7.83115 8.00023 8.37701
6 2 5.60664 7.73602 7.97565
5 2 6.35104 9.09493 7.00935
ITEM: TIMESTEP
5700
ITEM: NUMBER OF ATOMS
10
ITEM: BOX BOUNDS pp pp pp
0.0000000000000000e+00 1.5000000000000000e+01
0.0000000000000000e+00 1.5000000000000000e+01
0.0000000000000000e+00 1.5000000000000000e+01
ITEM: ATOMS id type x y z
10 2 6.80921 5.87779 6.35734
4 1 7.37481 6.86429 6.53542
7 2 8.15889 8.41812 9.3374
8 2 9.34523 6.37963 7.67013
9 2 7.70404 7.41313 5.59146
1 1 6.5421 8.18529 7.62433
3 1 8.39818 7.0068 7.60834
2 1 7.87288 8.01024 8.35464
6 2 5.74143 7.61916 8.07561
5 2 6.23735 9.11246 7.12067
ITEM: TIMESTEP
5800
ITEM: NUMBER OF ATOMS
10
ITEM: BOX BOUNDS pp pp pp
0.0000000000000000e+00 1.5000000000000000e+01
0.0000000000000000e+00 1.5000000000000000e+01
0.0000000000000000e+00 1.5000000000000000e+01
ITEM: ATOMS id type x y z