10
 Atoms. Timestep: 0
C 8.23675 7.79224 6.54878
C 6.88703 7.05665 6.77759
C 6.75356 7.10379 8.12306
C 7.9281 7.97397 8.53648
H 8.29535 8.71952 6.00929
H 9.12779 7.17257 6.33511
H 6.35913 6.50615 5.98407
H 6.03582 6.68684 8.83089
H 7.82376 9.10118 8.63312
H 8.64953 7.47377 9.18104
10
 Atoms. Timestep: 20
C 8.17891 7.77273 6.62759
C 6.92645 7.08109 6.78862
C 6.75208 7.12422 8.12698
C 7.96899 7.99483 8.42203
H 8.24009 8.67624 6.02633
H 8.99945 7.0419 6.4828
H 6.39529 6.65727 5.95129
H 6.1236 6.53362 8.81788
H 7.72536 9.00475 8.72101
H 8.68159 7.46897 9.09836
10
 Atoms. Timestep: 40
C 8.21448 7.75409 6.5611
C 6.87281 7.06361 6.78065
C 6.78303 7.13007 8.10355
C 7.94535 7.99023 8.52022
H 8.26167 8.7205 5.95854
H 9.03418 7.04301 6.54234
H 6.20387 6.67306 5.9966
H 6.13523 6.53554 8.74531
H 7.71837 8.99607 8.84308
H 8.87665 7.62387 9.01005
10
 Atoms. Timestep: 60
C 8.20664 7.776 6.60156
C 6.84084 7.07725 6.74407
C 6.81162 7.08306 8.11272
C 7.96707 7.97839 8.49623
H 8.37734 8.60537 5.94708
H 9.11628 7.1768 6.47571
H 6.03903 6.61676 6.12831
H 6.04737 6.64058 8.75802
H 7.72165 9.01707 8.85888
H 8.86527 7.67519 8.99357
10
 Atoms. Timestep: 80
C 8.1865 7.79643 6.58208
C 6.85823 7.09225 6.80901
C 6.81165 7.05196 8.11674
C 7.9943 7.9718 8.45123
H 8.30161 8.69367 5.97554
H 9.07606 7.12799 6.46687
H 6.15383 6.66055 6.1126
H 6.01679 6.73868 8.79959
H 7.68448 8.99416 8.69627
H 8.78713 7.53036 9.08379
10
 Atoms. Timestep: 100
C 8.18248 7.78684 6.50592
C 6.89775 7.08399 6.80797
C 6.80354 7.10372 8.18814
C 7.97825 7.93271 8.47917
H 8.1253 8.81559 6.03998
H 8.98455 7.07839 6.37507
H 6.27907 6.71742 5.96867
H 6.03341 6.68246 8.86024
H 7.77048 8.97649 8.5825
H 8.75911 7.50606 9.17537
10
 Atoms. Timestep: 120
C 8.16359 7.7804 6.60705
C 6.88699 7.05916 6.82413
C 6.7536 7.13318 8.124
C 8.02098 7.91151 8.4528
H 8.12068 8.70912 6.04157
H 9.00153 7.24824 6.14923
H 6.24376 6.68938 6.02975
H 6.13023 6.63975 8.84917
H 7.92041 9.02047 8.62165
H 8.75646 7.60758 9.14977
10
 Atoms. Timestep: 140
C 8.18371 7.77347 6.55406
C 6.85122 7.03436 6.76982
C 6.76192 7.14476 8.14259
C 8.04148 7.96108 8.52949
H 8.06947 8.7622 6.10207
H 9.10475 7.27282 6.10391
H 6.10225 6.55653 6.11607
H 6.0275 6.63936 8.81183
H 7.90503 9.05092 8.70135
H 8.88504 7.4562 9.07798
10
 Atoms. Timestep: 160
C 8.16459 7.7873 6.55884
C 6.85802 7.03255 6.83368
C 6.81808 7.14232 8.13154
C 8.0172 7.95573 8.43495
H 8.04732 8.82483 6.2034
H 9.02516 7.23666 6.27847
H 6.1703 6.50878 6.16833
H 5.9753 6.82348 8.73617
H 7.90723 8.93402 8.85325
H 8.85135 7.38483 8.89527
10
 Atoms. Timestep: 180
C 8.10965 7.81372 6.52027
C 6.90505 7.02399 6.82042
C 6.7844 7.14449 8.17684
C 8.02401 7.92714 8.43209
H 8.11033 8.83598 6.11621
H 9.02245 7.23669 6.32184
H 6.28181 6.47514 6.10766
H 5.96782 6.96548 8.88116
H 7.93815 8.88324 8.98395
H 8.86476 7.36744 8.78042
10
 Atoms. Timestep: 200
C 8.12439 7.84669 6.52144
C 6.87815 6.99563 6.82801
C 6.73306 7.17448 8.16465
C 8.05164 7.91209 8.489
H 8.06645 8.77912 5.94944
H 9.05249 7.29728 6.17201
H 6.33783 6.43221 6.06554
H 6.00261 6.90592 8.94578
H 8.00532 8.92269 8.97477
H 8.93579 7.30942 8.76283
10
 Atoms. Timestep: 220
C 8.14535 7.83129 6.5868
C 6.87758 7.0169 6.84034
C 6.7593 7.21833 8.14963
C 8.05049 7.9115 8.44289
H 7.87738 8.71247 6.00262
H 8.96637 7.36642 6.11152
H 6.29449 6.38913 6.15469
H 6.0144 6.74698 8.79982
H 8.1035 8.88111 8.8678
H 8.87159 7.2557 8.8346
10
 Atoms. Timestep: 240
C 8.10672 7.79651 6.49288
C 6.90511 7.03123 6.83394
C 6.77171 7.20064 8.15521
C 8.06433 7.92007 8.49003
H 7.82445 8.84692 6.19856
H 9.04723 7.32104 6.10095
H 6.2365 6.42104 6.22119
H 6.00669 6.74116 8.78245
H 8.13955 8.97122 8.83848
H 8.7824 7.22795 8.91498
10
 Atoms. Timestep: 260
C 8.09878 7.82028 6.54143
C 6.8691 6.98699 6.84036
C 6.78356 7.16803 8.16281
C 8.07671 7.90922 8.41031
H 8.03609 8.86771 6.27319
H 8.99959 7.39738 6.06284
H 6.20687 6.48287 6.13806
H 6.01336 6.89444 8.88214
H 8.07956 8.94399 8.85042
H 8.81954 7.32651 8.95289
10
 Atoms. Timestep: 280
C 8.12599 7.8392 6.52445
C 6.83326 6.98101 6.8223
C 6.80117 7.15068 8.17979
C 8.07522 7.89236 8.45933
H 8.03879 8.87579 6.20655
H 8.96054 7.35518 6.05789
H 6.17283 6.51497 6.06772
H 6.02192 7.00571 8.95534
H 7.93379 8.90161 8.80173
H 8.98231 7.38727 8.88458
10
 Atoms. Timestep: 300
C 8.11044 7.80499 6.53351
C 6.86125 7.06045 6.84049
C 6.81488 7.1318 8.15888
C 8.07951 7.88751 8.4699
H 7.88272 8.82534 6.10023
H 8.97689 7.2639 6.08664
H 6.15574 6.57213 6.16893
H 6.02738 6.92277 8.87577
H 7.89048 8.90149 8.82573
H 8.99436 7.42587 8.81504
10
 Atoms. Timestep: 320
C 8.09854 7.799 6.53967
C 6.85231 7.08815 6.84609
C 6.82278 7.12471 8.18994
C 8.08469 7.91529 8.42333
H 7.92447 8.72373 6.01911
H 8.96948 7.26737 6.13256
H 6.1207 6.63811 6.18151
H 6.0236 6.69173 8.7987
H 8.00282 8.93671 8.89705
H 8.93304 7.39937 8.86587
10
 Atoms. Timestep: 340
C 8.111 7.83052 6.48009
C 6.79145 7.05495 6.85863
C 6.80825 7.1179 8.19093
C 8.09501 7.94579 8.46794
H 8.08374 8.79395 5.95604
H 8.97043 7.2307 6.18758
H 6.08715 6.66809 6.11307
H 6.16491 6.54844 8.8927
H 8.07997 8.96954 8.83636
H 8.90353 7.31437 8.91772
10
 Atoms. Timestep: 360
C 8.07641 7.83955 6.559
C 6.80318 7.09263 6.82374
C 6.8316 7.12109 8.18397
C 8.07907 7.90261 8.40576
H 8.16255 8.80293 5.99206
H 8.90497 7.16603 6.26492
H 6.05171 6.61884 6.16345
H 6.3359 6.5959 8.99989
H 8.03721 8.9243 8.7277
H 8.89009 7.37671 8.90615
10
 Atoms. Timestep: 380
C 8.07572 7.81474 6.49143
C 6.7786 7.14101 6.846
C 6.87064 7.09962 8.16781
C 8.08898 7.8814 8.45941
H 8.09416 8.80966 6.0578
H 8.88898 7.10809 6.29744
H 6.09275 6.62677 6.18778
H 6.27608 6.64805 8.95452
H 7.90101 8.97465 8.71051
H 8.98732 7.43216 8.89302
10
 Atoms. Timestep: 400
C 8.08942 7.79686 6.51648
C 6.75816 7.14577 6.85716
C 6.87509 7.05749 8.20896
C 8.1301 7.91967 8.42144
H 8.08567 8.75193 6.00823
H 8.91294 7.17226 6.15487
H 6.0311 6.72383 6.15317
H 6.07081 6.61535 8.83811
H 7.88046 8.91345 8.78948
H 9.02643 7.52447 8.92092
10
 Atoms. Timestep: 420
C 8.08828 7.79722 6.52274
C 6.80358 7.11199 6.87589
C 6.84184 7.04515 8.19139
C 8.12483 7.92558 8.42975
H 8.06003 8.76255 5.93976
H 8.88407 7.20172 6.04505
H 5.95356 6.89291 6.2063
H 6.10408 6.62506 8.88228
H 7.93967 8.91876 8.7786
H 9.03136 7.53929 8.91843
10
 Atoms. Timestep: 440
C 8.08342 7.81948 6.4798
C 6.82593 7.0922 6.84475
C 6.86672 7.09028 8.21364
C 8.08489 7.87499 8.46295
H 7.96045 8.80099 6.01845
H 8.86898 7.15022 6.10526
H 5.94329 6.92873 6.21638
H 6.24754 6.6592 8.99683
H 7.94973 8.9934 8.65763
H 8.98823 7.42576 8.88757
10
 Atoms. Timestep: 460
C 8.0661 7.82492 6.53924
C 6.7661 7.10896 6.87961
C 6.87342 7.10839 8.19496
C 8.12629 7.8683 8.37311
H 7.99073 8.79123 6.08125
H 8.91729 7.25907 6.16063
H 6.0356 6.75403 6.16644
H 6.29028 6.66906 9.00614
H 7.98948 8.92304 8.63562
H 8.90922 7.36013 8.91736
10
 Atoms. Timestep: 480
C 8.0365 7.81495 6.45356
C 6.72241 7.12907 6.85331
C 6.8436 7.09953 8.21678
C 8.1883 7.89994 8.44515
H 8.0469 8.88361 6.07162
H 8.9586 7.28966 6.13496
H 6.07509 6.50727 6.18358
H 6.16841 6.63653 8.96941
H 8.10091 8.90265 8.77706
H 9.02925 7.33933 8.93962
10
 Atoms. Timestep: 500
C 8.0325 7.84721 6.52255
C 6.7765 7.10156 6.87139
C 6.85355 7.13715 8.19299
C 8.15228 7.87084 8.40233
H 7.98481 8.82502 6.05107
H 8.78495 7.20643 6.0535
H 6.0719 6.49857 6.3016
H 6.14101 6.68107 8.86043
H 8.18969 8.89078 8.93221
H 9.06268 7.3776 8.75462
10
 Atoms. Timestep: 520
C 8.03607 7.86411 6.49991
C 6.83585 7.05448 6.88117
C 6.85565 7.16516 8.21919
C 8.13591 7.87072 8.43394
H 7.8776 8.81792 6.04568
H 8.72704 7.19367 5.97775
H 6.06376 6.63944 6.25131
H 6.15489 6.76127 8.95716
H 8.11437 8.85895 8.93749
H 9.0055 7.22195 8.51442
10
 Atoms. Timestep: 540
C 8.02489 7.83528 6.45915
C 6.82096 7.04588 6.89812
C 6.82426 7.14333 8.25523
C 8.15746 7.88483 8.42052
H 7.82315 8.87527 6.05952
H 8.9025 7.39917 5.90446
H 6.09979 6.68098 6.14082
H 6.15978 6.85791 9.09606
H 8.19422 8.80294 8.93984
H 8.97918 7.14784 8.55017
10
 Atoms. Timestep: 560
C 8.02515 7.83631 6.49608
C 6.77292 7.05902 6.90531
C 6.83871 7.15457 8.23381
C 8.17284 7.83789 8.33717
H 7.75667 8.85296 6.18185
H 8.90788 7.55957 5.95458
H 6.09115 6.53023 6.2248
H 6.1394 6.90437 9.01976
H 8.37091 8.8026 8.92326
H 9.00032 7.24354 8.75053
10
 Atoms. Timestep: 580
C 7.97951 7.87745 6.45344
C 6.76465 7.03971 6.85919
C 6.87133 7.20083 8.20581
C 8.23547 7.8091 8.45123
H 7.71334 8.90728 6.31839
H 8.85909 7.4172 5.95175
H 6.01828 6.41631 6.37072
H 6.10935 6.88692 8.929
H 8.27206 8.8964 8.73366
H 9.0461 7.13333 8.76752
10
 Atoms. Timestep: 600
C 7.95836 7.86557 6.544
C 6.79829 7.03133 6.89325
C 6.87191 7.19976 8.18653
C 8.23065 7.82116 8.37525
H 7.82978 8.96174 6.31061
H 8.69618 7.39939 5.86303
H 6.0173 6.49365 6.34152
H 6.14446 6.88751 8.94119
H 8.24981 8.80211 8.72393
H 9.03119 7.16866 8.71451
10
 Atoms. Timestep: 620
C 7.99116 7.8531 6.43223
C 6.78035 7.05127 6.90993
C 6.8525 7.14089 8.2848
C 8.19408 7.84006 8.38542
H 7.84943 8.91857 6.20955
H 8.72582 7.42622 5.77286
H 6.05795 6.64817 6.15803
H 6.1643 6.87351 9.1006
H 8.3261 8.82514 8.93341
H 9.09181 7.21648 8.64027
10
 Atoms. Timestep: 640
C 8.01012 7.84629 6.43578
C 6.76291 7.10985 6.93698
C 6.8644 7.10377 8.27599
C 8.19215 7.85734 8.37291
H 7.76237 8.83661 6.08857
H 8.79497 7.36137 5.78924
H 6.04477 6.70244 6.25489
H 6.23134 6.8253 9.1179
H 8.27257 8.78032 9.01868
H 9.04046 7.21046 8.48967
10
 Atoms. Timestep: 660
C 7.969 7.86155 6.50949
C 6.75128 7.13603 6.91323
C 6.92595 7.13862 8.23549
C 8.21272 7.84601 8.36475
H 7.76849 8.81551 5.98672
H 8.75188 7.25708 5.98456
H 5.90866 6.64435 6.42355
H 6.26441 6.69574 8.99062
H 8.2099 8.73694 8.90436
H 9.06697 7.17716 8.46145
10
 Atoms. Timestep: 680
C 7.92137 7.88843 6.43418
C 6.69144 7.11513 6.9191
C 6.92507 7.13421 8.22538
C 8.26444 7.82165 8.41784
H 7.92103 8.90066 5.95995
H 8.70847 7.24636 6.15072
H 5.83088 6.64563 6.36037
H 6.32983 6.58358 8.95898
H 8.30577 8.87444 8.82041
H 9.21411 7.21281 8.65959
10
 Atoms. Timestep: 700
C 7.91932 7.88882 6.49982
C 6.65983 7.15324 6.92283
C 6.92197 7.07271 8.25813
C 8.27514 7.82231 8.30499
H 7.98142 8.84019 6.00998
H 8.74136 7.23371 6.09747
H 5.88382 6.76975 6.29076
H 6.42137 6.53673 9.07253
H 8.34698 8.86658 8.7091
H 9.09148 7.35055 8.79455
10
 Atoms. Timestep: 720
C 7.94975 7.8391 6.42717
C 6.6806 7.21901 6.95935
C 6.96152 7.03524 8.2641
C 8.23711 7.83625 8.37597
H 7.86711 8.87977 6.04586
H 8.68193 7.16721 5.91202
H 5.86545 6.91421 6.30947
H 6.48447 6.54475 9.11423
H 8.13433 8.87243 8.5927
H 9.1169 7.26408 8.75517
10
 Atoms. Timestep: 740
C 7.97811 7.80977 6.44811
C 6.71268 7.23142 6.9743
C 6.99444 7.03998 8.26001
C 8.21088 7.8153 8.36707
H 7.84238 8.81151 6.00476
H 8.56456 7.21078 5.78787
H 5.73186 7.04234 6.4514
H 6.41083 6.53589 9.03595
H 8.00459 8.86419 8.6459
H 9.19313 7.37645 8.66612
10
 Atoms. Timestep: 760
C 7.95737 7.83489 6.46087
C 6.67996 7.19402 6.9667
C 6.95715 7.00938 8.26142
C 8.28435 7.82721 8.32925
H 7.93291 8.8116 5.99193
H 8.585 7.17882 5.80092
H 5.70243 7.12078 6.52269
H 6.3173 6.53174 9.0221
H 8.0692 8.84207 8.76456
H 9.24418 7.542 8.67739
10
 Atoms. Timestep: 780
C 7.9053 7.85884 6.40712
C 6.64062 7.18974 6.96465
C 6.97268 6.99936 8.2675
C 8.30875 7.83478 8.35363
H 7.95466 8.89389 6.01849
H 8.66119 7.13758 6.03363
H 5.71481 7.05743 6.4066
H 6.37351 6.57319 9.0684
H 8.15907 8.84437 8.71772
H 9.29664 7.41718 8.68678
10
 Atoms. Timestep: 800
C 7.88897 7.86545 6.49678
C 6.64687 7.22672 6.9733
C 7.01776 7.05546 8.24829
C 8.25803 7.80281 8.29297
H 7.8935 8.82889 5.97271
H 8.66366 7.21733 6.14189
H 5.77232 6.86834 6.36714
H 6.53709 6.56576 9.09721
H 8.24185 8.82689 8.63167
H 9.14584 7.2102 8.61027
10
 Atoms. Timestep: 820
C 7.89853 7.89114 6.41665
C 6.64001 7.21483 6.97274
C 6.95952 7.09608 8.2657
C 8.2886 7.79164 8.37313
H 7.81646 8.86327 5.90157
H 8.66313 7.20622 5.99877
H 5.82485 6.73441 6.43591
H 6.60387 6.46299 9.10497
H 8.37281 8.85509 8.71927
H 9.12292 7.13587 8.55919
10
 Atoms. Timestep: 840
C 7.91133 7.89753 6.44884
C 6.66483 7.17325 6.97703
C 6.92629 7.11885 8.30977
C 8.30453 7.81536 8.30021
H 7.78973 8.84853 5.93815
H 8.56633 7.24614 5.81864
H 5.83065 6.72449 6.45696
H 6.44879 6.45051 9.02325
H 8.471 8.73145 8.87907
H 9.17563 7.18894 8.5578
10
 Atoms. Timestep: 860
C 7.86986 7.8654 6.433
C 6.70705 7.14535 6.99933
C 6.95673 7.12178 8.29079
C 8.31274 7.81129 8.31227
H 7.75366 8.92926 6.12143
H 8.52551 7.31049 5.78215
H 5.84227 6.78014 6.40732
H 6.31304 6.66548 9.04943
H 8.39486 8.72487 8.89051
H 9.21633 7.14678 8.42579
10
 Atoms. Timestep: 880
C 7.86378 7.87213 6.43057
C 6.69485 7.12232 6.96203
C 6.98548 7.10468 8.29172
C 8.31608 7.77252 8.3365
H 7.69767 8.94107 6.29643
H 8.57534 7.38713 5.74609
H 5.81669 6.76603 6.40125
H 6.32905 6.96187 9.18815
H 8.36287 8.78049 8.80086
H 9.18123 7.1535 8.33131
10
 Atoms. Timestep: 900
C 7.89685 7.89269 6.4771
C 6.66501 7.08292 6.97829
C 6.94869 7.11991 8.28247
C 8.31557 7.74872 8.27088
H 7.66406 8.94427 6.32418
H 8.60179 7.54212 5.69458
H 5.80906 6.71513 6.45024
H 6.39089 7.04293 9.19934
H 8.47099 8.73985 8.74096
H 9.23052 7.17031 8.42728
10
 Atoms. Timestep: 920
C 7.84923 7.90149 6.3956
C 6.68585 7.0792 6.97543
C 6.94522 7.17329 8.31326
C 8.36546 7.7444 8.31261
H 7.61358 8.98638 6.31274
H 8.60426 7.55226 5.68868
H 5.78862 6.65571 6.46055
H 6.30303 6.87484 9.1562
H 8.51122 8.72211 8.74996
H 9.22875 7.03842 8.53947
10
 Atoms. Timestep: 940
C 7.82624 7.89099 6.45362
C 6.72114 7.11386 7.00633
C 6.96257 7.19674 8.28815
C 8.35298 7.75356 8.26712
H 7.60157 8.9447 6.24605
H 8.49298 7.47206 5.71373
H 5.88402 6.64274 6.48617
H 6.32769 6.73055 9.06268
H 8.56723 8.69688 8.79039
H 9.07295 7.00216 8.49858
10
 Atoms. Timestep: 960
C 7.85311 7.91561 6.43493
C 6.68029 7.13592 6.98582
C 6.95717 7.15625 8.31803
C 8.33161 7.77524 8.30726
H 7.63307 8.9383 6.15061
H 8.46819 7.34546 5.69118
H 5.90317 6.62099 6.43771
H 6.43989 6.71803 9.1735
H 8.64177 8.71938 8.8266
H 9.10481 6.97968 8.33315
10
 Atoms. Timestep: 980
C 7.86202 7.90916 6.42386
C 6.649 7.1551 7.00843
C 6.94781 7.11336 8.33076
C 8.32693 7.77792 8.30457
H 7.74299 8.946 6.06666
H 8.52364 7.36459 5.7394
H 5.87306 6.65659 6.41122
H 6.48669 6.75492 9.24471
H 8.58454 8.67137 8.84014
H 9.19855 7.09328 8.18116
10
 Atoms. Timestep: 1000
C 7.82842 7.88827 6.44226
C 6.66162 7.17328 7.0306
C 6.99393 7.11048 8.31572
C 8.33653 7.76194 8.24332
H 7.77648 8.92941 6.10168
H 8.5639 7.36132 5.85408
H 5.79063 6.76004 6.49346
H 6.39285 6.73171 9.1718
H 8.44409 8.66955 8.84482
H 9.23305 7.16415 8.23181
10
 Atoms. Timestep: 1020
C 7.81261 7.89508 6.3947
C 6.63695 7.17291 7.01223
C 7.02363 7.09482 8.29663
C 8.38032 7.759 8.29065
H 7.67889 8.94984 6.15335
H 8.55918 7.25825 5.86252
H 5.6756 6.88321 6.5924
H 6.40747 6.67884 9.09887
H 8.39896 8.78284 8.77862
H 9.2828 7.13623 8.43795
10
 Atoms. Timestep: 1040
C 7.8462 7.88083 6.46656
C 6.60932 7.18948 7.01243
C 7.02318 7.06071 8.27537
C 8.37072 7.7709 8.26056
H 7.68067 8.89032 6.07303
H 8.45606 7.33416 5.73315
H 5.62729 6.98964 6.59506
H 6.56162 6.61542 9.13539
H 8.46068 8.77043 8.62684
H 9.2412 7.20856 8.63601
10
 Atoms. Timestep: 1060
C 7.82904 7.87068 6.40144
C 6.61521 7.23148 7.03408
C 7.03689 7.04031 8.31373
C 8.35731 7.75752 8.29936
H 7.7481 8.92038 6.04104
H 8.42247 7.31892 5.68893
H 5.66077 7.04556 6.49556
H 6.6262 6.50667 9.2063
H 8.3813 8.82915 8.54722
H 9.25445 7.19937 8.61828
10
 Atoms. Timestep: 1080
C 7.82504 7.88066 6.40349
C 6.64059 7.2683 7.07964
C 7.03806 7.03552 8.32376
C 8.34325 7.74435 8.24179
H 7.79196 8.91221 6.06961
H 8.42796 7.18169 5.79124
H 5.72625 7.02921 6.54783
H 6.56678 6.45377 9.12685
H 8.24775 8.81581 8.60271
H 9.28167 7.25434 8.45875
10
 Atoms. Timestep: 1100
C 7.83168 7.89076 6.43456
C 6.5989 7.27197 7.05467
C 7.03728 7.01662 8.30958
C 8.36936 7.77009 8.23679
H 7.83184 8.88514 5.98628
H 8.44951 7.12922 5.89968
H 5.62848 6.97668 6.6704
H 6.51474 6.48353 9.07959
H 8.29803 8.71312 8.72215
H 9.37808 7.33568 8.31724
10
 Atoms. Timestep: 1120
C 7.80099 7.88652 6.41212
C 6.54491 7.24335 7.0454
C 7.06105 7.01784 8.25454
C 8.40141 7.78236 8.31344
H 7.83393 8.86171 5.87559
H 8.477 7.20297 5.93845
H 5.53229 7.00255 6.65095
H 6.57863 6.53525 9.12449
H 8.45225 8.75166 8.84488
H 9.3997 7.28541 8.30167
10
 Atoms. Timestep: 1140
C 7.7827 7.89012 6.46822
C 6.57825 7.23946 7.04055
C 7.09021 7.0545 8.27604
C 8.36885 7.77655 8.22253
H 7.69886 8.82711 5.93219
H 8.47364 7.21113 5.93739
H 5.60309 7.05591 6.57481
H 6.68388 6.50625 9.15635
H 8.51513 8.71103 8.82835
H 9.22937 7.14475 8.41584
10
 Atoms. Timestep: 1160
C 7.77069 7.91909 6.36824
C 6.63196 7.24003 7.07671
C 7.03162 7.07542 8.34314
C 8.39939 7.74208 8.2457
H 7.59477 8.95579 6.03545
H 8.44654 7.19251 5.82832
H 5.72012 7.00002 6.55393
H 6.7225 6.46184 9.15779
H 8.44804 8.748 8.65736
H 9.19009 7.00217 8.45341
10
 Atoms. Timestep: 1180
C 7.80884 7.91946 6.41594
C 6.6267 7.23417 7.08123
C 7.01765 7.0943 8.36897
C 8.38037 7.6988 8.21057
H 7.66238 8.95003 6.05795
H 8.33594 7.41916 5.62104
H 5.70488 6.83421 6.62677
H 6.57645 6.49524 9.1824
H 8.52964 8.71392 8.52153
H 9.31333 7.12702 8.41904
10
 Atoms. Timestep: 1200
C 7.78851 7.90187 6.42568
C 6.59195 7.19871 7.07855
C 7.03701 7.08709 8.31955
C 8.42404 7.69641 8.2363
H 7.72209 8.99763 6.24175
H 8.28744 7.48207 5.54963
H 5.65799 6.77835 6.67193
H 6.43214 6.71863 9.19507
H 8.59056 8.75975 8.58854
H 9.38473 7.17906 8.28166
10
 Atoms. Timestep: 1220
C 7.73084 7.89984 6.41745
C 6.59444 7.16103 7.04184
C 7.06683 7.08712 8.31279
C 8.46743 7.73712 8.22571
H 7.6582 8.97077 6.49937
H 8.33171 7.37191 5.62132
H 5.6288 6.86587 6.63096
H 6.48989 6.94375 9.2054
H 8.5542 8.69542 8.77841
H 9.30397 7.06161 8.16682
10
 Atoms. Timestep: 1240
C 7.73189 7.89019 6.44123
C 6.61823 7.12433 7.06083
C 7.07362 7.13874 8.32115
C 8.41113 7.73004 8.16393
H 7.53613 8.97934 6.424
H 8.37358 7.52036 5.66128
H 5.6632 6.93157 6.58486
H 6.60885 6.97962 9.28824
H 8.66588 8.50344 8.85055
H 9.26717 7.00591 8.15728
10
 Atoms. Timestep: 1260
C 7.73676 7.9441 6.36316
C 6.62393 7.1186 7.0824
C 7.03271 7.18139 8.37067
C 8.43565 7.66478 8.22434
H 7.41198 8.99502 6.15787
H 8.40372 7.65125 5.54913
H 5.66489 6.79823 6.61749
H 6.60434 6.84436 9.36094
H 8.81989 8.55455 8.84599
H 9.2448 6.92337 8.11419
10
 Atoms. Timestep: 1280
C 7.75075 7.98232 6.44364
C 6.64676 7.17097 7.09657
C 7.01261 7.17739 8.39005
C 8.45136 7.66973 8.16178
H 7.39932 8.94479 6.09878
H 8.30846 7.54758 5.55615
H 5.78648 6.60112 6.73066
H 6.49288 6.73805 9.23194
H 8.84991 8.54335 8.65689
H 9.11812 6.84265 8.0623
10
 Atoms. Timestep: 1300
C 7.68905 7.97318 6.42075
C 6.63267 7.20463 7.1146
C 7.04731 7.16233 8.37669
C 8.45351 7.68861 8.18071
H 7.51771 9.05933 6.23871
H 8.23676 7.34914 5.71053
H 5.90096 6.56541 6.63831
H 6.48604 6.71007 9.17878
H 8.91752 8.57508 8.56513
H 9.12981 6.7885 8.00105
10
 Atoms. Timestep: 1320
C 7.66576 7.94143 6.41576
C 6.57396 7.19492 7.10482
C 7.06993 7.15363 8.37739
C 8.45051 7.68728 8.17557
H 7.73055 9.02693 6.29178
H 8.2286 7.39996 5.68699
H 5.79551 6.67203 6.51337
H 6.64471 6.72077 9.33079
H 8.92572 8.59109 8.65424
H 9.23801 6.94571 7.97054
10
 Atoms. Timestep: 1340
C 7.72524 7.90775 6.43571
C 6.54858 7.1859 7.12426
C 7.05672 7.12124 8.35812
C 8.47463 7.70004 8.12973
H 7.69655 8.98678 6.2664
H 8.24244 7.49728 5.51524
H 5.58207 6.87385 6.68402
H 6.78891 6.78579 9.3503
H 8.70155 8.54863 8.7925
H 9.28145 7.03812 7.99364
10
 Atoms. Timestep: 1360
C 7.72119 7.91334 6.34719
C 6.56207 7.21516 7.12278
C 7.13606 7.08942 8.35026
C 8.47156 7.6789 8.18004
H 7.45312 8.97784 6.28726
H 8.21808 7.42059 5.47563
H 5.49582 7.08074 6.9378
H 6.64989 6.77769 9.27567
H 8.57182 8.58538 8.78157
H 9.38994 6.99685 8.1294
10
 Atoms. Timestep: 1380
C 7.67964 7.90214 6.41217
C 6.60711 7.25666 7.16134
C 7.14571 7.03388 8.32155
C 8.46991 7.66985 8.1167
H 7.43784 8.95705 6.16456
H 8.13603 7.42721 5.59218
H 5.54161 7.21381 6.93894
H 6.56299 6.7161 9.19896
H 8.64588 8.63904 8.60708
H 9.38545 7.09163 8.31671
10
 Atoms. Timestep: 1400
C 7.64495 7.94823 6.41416
C 6.53978 7.289 7.16454
C 7.11899 6.98483 8.37245
C 8.54422 7.66784 8.13527
H 7.59329 8.98512 6.0391
H 8.18236 7.31328 5.63577
H 5.51153 7.21015 6.72726
H 6.69864 6.53404 9.29667
H 8.62626 8.75989 8.38774
H 9.42427 7.07813 8.28399
10
 Atoms. Timestep: 1420
C 7.68954 7.95332 6.41726
C 6.48845 7.32627 7.20543
C 7.12638 7.01766 8.35947
C 8.48954 7.66115 8.11974
H 7.67068 8.96699 6.02353
H 8.18077 7.2133 5.77098
H 5.53298 7.11037 6.75792
H 6.91451 6.38303 9.21253
H 8.59459 8.70449 8.37988
H 9.46699 7.09142 8.13283
10
 Atoms. Timestep: 1440
C 7.66561 7.90291 6.40456
C 6.51803 7.37725 7.20675
C 7.16911 7.04902 8.32757
C 8.44724 7.6787 8.12041
H 7.69585 8.93776 6.01039
H 8.17562 7.18115 5.81496
H 5.50143 7.04108 6.97316
H 6.94431 6.28826 9.08587
H 8.61654 8.61203 8.63421
H 9.39035 7.11245 8.01469
10
 Atoms. Timestep: 1460
C 7.62274 7.90689 6.36505
C 6.51558 7.35953 7.21428
C 7.16931 7.0082 8.31877
C 8.52249 7.73542 8.13222
H 7.67025 8.92158 5.93956
H 8.16853 7.13806 5.74193
H 5.44002 7.13733 7.01391
H 6.82347 6.30495 9.09963
H 8.68975 8.58854 8.884
H 9.35127 7.06932 8.02803
10
 Atoms. Timestep: 1480
C 7.65732 7.93324 6.42702
C 6.49368 7.31658 7.21793
C 7.18666 6.98522 8.32568
C 8.50438 7.72889 8.08611
H 7.56144 8.87963 5.93518
H 8.07861 7.19751 5.71092
H 5.46772 7.28018 6.88865
H 6.79311 6.45301 9.18282
H 8.74497 8.53023 8.76734
H 9.42593 7.09582 8.0636
10
 Atoms. Timestep: 1500
C 7.62129 7.94631 6.40594
C 6.53542 7.31831 7.19134
C 7.16958 7.00471 8.3489
C 8.51622 7.62451 8.12943
H 7.47573 9.00257 6.04458
H 8.08721 7.28485 5.70672
H 5.49662 7.25315 6.85571
H 6.87879 6.56906 9.30992
H 8.63783 8.6556 8.5059
H 9.4928 7.09174 8.01249
10
 Atoms. Timestep: 1520
C 7.63236 7.9534 6.41566
C 6.56 7.31219 7.21654
C 7.1498 7.03608 8.37553
C 8.51862 7.59152 8.0699
H 7.50589 9.0241 6.20056
H 8.14947 7.42663 5.6027
H 5.50878 7.11664 6.9392
H 6.81921 6.58063 9.3238
H 8.54959 8.68072 8.29912
H 9.42637 7.03216 8.05783
10
 Atoms. Timestep: 1540
C 7.64297 7.95181 6.37976
C 6.51884 7.27308 7.24057
C 7.17073 7.0566 8.40339
C 8.51871 7.62642 8.03196
H 7.57751 9.0263 6.32629
H 8.11968 7.52012 5.47366
H 5.48672 7.05025 6.97587
H 6.69843 6.56878 9.25613
H 8.73093 8.63359 8.39492
H 9.40322 6.97349 8.12804
10
 Atoms. Timestep: 1560
C 7.59098 7.93567 6.37272
C 6.52277 7.25067 7.20415
C 7.16029 7.08341 8.36335
C 8.5494 7.6594 8.08479
H 7.58661 9.04474 6.36293
H 7.98929 7.4824 5.46685
H 5.48975 7.02461 6.97395
H 6.79326 6.63428 9.29012
H 8.93325 8.54983 8.61101
H 9.39121 6.90917 8.03404
10
 Atoms. Timestep: 1580
C 7.605 7.93804 6.45918
C 6.53858 7.24648 7.17401
C 7.17786 7.11686 8.35011
C 8.53994 7.65086 8.06976
H 7.46866 9.018 6.27105
H 7.8858 7.43281 5.53448
H 5.50797 6.97114 6.87534
H 6.89872 6.74445 9.34467
H 8.94177 8.4403 8.72939
H 9.25288 6.8999 7.81575
10
 Atoms. Timestep: 1600
C 7.59841 7.99738 6.39436
C 6.53553 7.23817 7.23542
C 7.1718 7.12077 8.40618
C 8.54916 7.60729 8.07015
H 7.37621 9.04183 6.20772
H 8.01983 7.42453 5.52507
H 5.60185 6.90598 6.77316
H 6.80995 6.77679 9.37564
H 8.93755 8.42872 8.70413
H 9.24922 6.86044 7.66663
10
 Atoms. Timestep: 1620
C 7.58198 7.99405 6.40116
C 6.57067 7.26496 7.23073
C 7.14388 7.10387 8.45465
C 8.51982 7.60484 8.01135
H 7.4046 9.0517 6.18974
H 8.13245 7.57654 5.56252
H 5.63347 6.81837 6.90575
H 6.70921 6.73147 9.38978
H 9.0426 8.40161 8.51623
H 9.30358 6.83396 7.7376
10
 Atoms. Timestep: 1640
C 7.57963 7.98895 6.41115
C 6.55387 7.23887 7.23188
C 7.14851 7.12287 8.40207
C 8.55041 7.60811 8.03269
H 7.44061 9.098 6.31733
H 8.08973 7.57269 5.54142
H 5.55998 6.84224 7.00447
H 6.76561 6.68258 9.33122
H 9.08292 8.50428 8.38856
H 9.19066 6.76737 7.83927
10
 Atoms. Timestep: 1660
C 7.58842 7.97833 6.42828
C 6.49912 7.21256 7.21032
C 7.20219 7.1528 8.37339
C 8.5692 7.60895 8.05012
H 7.46323 9.05085 6.45738
H 7.93057 7.50272 5.48412
H 5.4533 6.96662 6.92543
H 6.89248 6.67804 9.31148
H 9.01072 8.55456 8.44618
H 9.22013 6.75137 7.89181
10
 Atoms. Timestep: 1680
C 7.5594 7.92796 6.42975
C 6.5195 7.26023 7.22541
C 7.17504 7.10803 8.37796
C 8.56939 7.61215 8.00754
H 7.49443 9.01613 6.41064
H 7.85858 7.57573 5.44185
H 5.51091 7.07814 6.8998
H 6.94687 6.75463 9.37662
H 8.93136 8.44522 8.59838
H 9.44186 6.89994 7.91775
10
 Atoms. Timestep: 1700
C 7.55651 7.94788 6.36113
C 6.52719 7.31049 7.26398
C 7.20488 7.0345 8.41023
C 8.57559 7.5876 8.01873
H 7.47063 9.06873 6.30137
H 7.8995 7.50849 5.413
H 5.48492 7.09952 6.98123
H 6.79781 6.79847 9.41619
H 8.81645 8.46425 8.64552
H 9.4697 6.99768 7.80721
10
 Atoms. Timestep: 1720
C 7.61204 7.98991 6.40683
C 6.52894 7.31767 7.30429
C 7.22634 7.00719 8.3737
C 8.52796 7.59444 7.99511
H 7.46197 9.0334 6.16466
H 7.92457 7.36961 5.55714
H 5.45118 7.12976 7.15648
H 6.77568 6.71088 9.31404
H 8.79214 8.55304 8.49607
H 9.34675 6.96809 7.72105
10
 Atoms. Timestep: 1740
C 7.53774 7.99449 6.42383
C 6.49509 7.34312 7.26417
C 7.21183 7.01274 8.37141
C 8.57204 7.6192 8.03075
H 7.51731 9.01744 6.04573
H 8.02014 7.28216 5.71522
H 5.42146 7.21992 7.17932
H 6.98083 6.41891 9.27768
H 8.90992 8.60138 8.34582
H 9.37416 6.86288 7.78428
10
 Atoms. Timestep: 1760
C 7.50784 7.95626 6.42951
C 6.44109 7.37643 7.31319
C 7.22614 7.04205 8.37097
C 8.58893 7.62462 7.99494
H 7.50173 8.98591 5.99658
H 8.05123 7.26872 5.80083
H 5.38635 7.30369 7.00426
H 7.15533 6.20678 9.08196
H 8.99838 8.54554 8.38352
H 9.44701 6.91318 7.97017
10
 Atoms. Timestep: 1780
C 7.53817 7.94583 6.41449
C 6.43191 7.4429 7.37189
C 7.27551 7.02821 8.33617
C 8.57983 7.6132 7.97119
H 7.41204 8.93888 5.99739
H 7.93757 7.15413 5.75884
H 5.39339 7.26431 7.03549
H 7.14409 6.16257 8.99519
H 8.85568 8.55213 8.51527
H 9.42862 6.96716 8.02442
10
 Atoms. Timestep: 1800
C 7.51441 7.9606 6.38604
C 6.49619 7.49143 7.35027
C 7.27474 6.9466 8.31204
C 8.58839 7.62056 8.02307
H 7.4716 8.94712 5.90325
H 7.73977 7.11915 5.65271
H 5.43231 7.2498 7.32506
H 7.06681 6.24176 9.13569
H 8.65675 8.59254 8.52919
H 9.51437 6.9545 7.91463
10
 Atoms. Timestep: 1820
C 7.53851 7.96251 6.40884
C 6.51497 7.42587 7.38295
C 7.28051 6.89228 8.3192
C 8.54514 7.6066 7.96469
H 7.59131 8.94825 5.90971
H 7.69179 7.27383 5.60161
H 5.41077 7.50027 7.40878
H 6.95037 6.4128 9.23331
H 8.65334 8.56145 8.45022
H 9.5517 7.19989 7.83133
10
 Atoms. Timestep: 1840
C 7.50917 7.96347 6.36548
C 6.4604 7.37572 7.38132
C 7.29342 6.88748 8.37609
C 8.59438 7.5818 7.93963
H 7.56376 9.06267 6.16632
H 7.82181 7.29517 5.55968
H 5.42023 7.73462 7.29345
H 6.96701 6.44978 9.34747
H 8.63686 8.62019 8.39857
H 9.57014 7.20676 7.74833
10
 Atoms. Timestep: 1860
C 7.47996 7.93714 6.42519
C 6.50538 7.38636 7.35383
C 7.25142 6.96392 8.36899
C 8.59911 7.57469 7.91128
H 7.40184 9.00787 6.33937
H 7.92599 7.41632 5.54144
H 5.44455 7.61156 7.31032
H 7.14714 6.44293 9.32071
H 8.66562 8.60455 8.29823
H 9.52358 6.96413 7.72315
10
 Atoms. Timestep: 1880
C 7.48799 7.97278 6.42098
C 6.47841 7.38073 7.35958
C 7.30603 7.04324 8.3767
C 8.59168 7.54163 7.92649
H 7.28949 9.04026 6.27336
H 7.84128 7.53637 5.4999
H 5.38072 7.26861 7.30945
H 7.10207 6.44123 9.26917
H 8.91538 8.49965 8.25053
H 9.41044 6.80359 7.784
10
 Atoms. Timestep: 1900
C 7.4715 8.05785 6.38703
C 6.45338 7.32709 7.40357
C 7.27677 7.07184 8.40786
C 8.64566 7.53937 7.90455
H 7.34185 9.15959 6.15845
H 7.68214 7.48854 5.46849
H 5.43464 6.96594 7.20813
H 6.9952 6.5105 9.30078
H 9.24649 8.39704 8.36131
H 9.33984 6.72152 7.77377
10
 Atoms. Timestep: 1920
C 7.44195 8.05132 6.47507
C 6.50625 7.32706 7.34371
C 7.25877 7.09822 8.44703
C 8.63261 7.56864 7.83299
H 7.44524 9.09839 6.24557
H 7.59462 7.45321 5.5437
H 5.5438 6.851 7.1275
H 7.03165 6.62752 9.41517
H 9.2508 8.24327 8.42963
H 9.22046 6.67518 7.53463
10
 Atoms. Timestep: 1940
C 7.40326 8.0239 6.43335
C 6.52641 7.29842 7.36934
C 7.29941 7.14281 8.4422
C 8.61591 7.51074 7.90679
H 7.43673 9.11425 6.43629
H 7.65508 7.5279 5.49905
H 5.56392 6.9372 7.01342
H 7.09652 6.7585 9.44339
H 9.21854 8.2704 8.37981
H 9.08329 6.75649 7.20696
10
 Atoms. Timestep: 1960
C 7.46141 8.00418 6.42186
C 6.4948 7.26554 7.37341
C 7.29657 7.13536 8.47231
C 8.60216 7.51303 7.87089
H 7.35468 9.1031 6.53396
H 7.6844 7.73115 5.36235
H 5.46401 6.97823 7.13891
H 7.0817 6.85034 9.50583
H 9.31734 8.23847 8.2973
H 9.09227 6.81005 7.21981
10
 Atoms. Timestep: 1980
C 7.43376 8.01821 6.43207
C 6.50254 7.25431 7.35586
C 7.25514 7.11699 8.45866
C 8.65897 7.52643 7.8129
H 7.31756 9.09401 6.56135
H 7.63526 7.84394 5.35645
H 5.43993 6.99288 7.34937
H 7.03137 6.90559 9.51144
H 9.38296 8.22815 8.28971
H 9.2145 6.65982 7.46374
10
 Atoms. Timestep: 2000
C 7.37026 8.05605 6.44356
C 6.49441 7.25921 7.37025
C 7.34516 7.14444 8.3943
C 8.66924 7.48307 7.82805
H 7.30591 9.13368 6.60056
H 7.5631 7.70503 5.43415
H 5.41611 7.03456 7.29473
H 7.00586 6.8799 9.40748
H 9.26721 8.28999 8.24951
H 9.29141 6.5202 7.68561
10
 Atoms. Timestep: 2020
C 7.39777 8.03477 6.48785
C 6.48277 7.3088 7.39051
C 7.34223 7.13221 8.39428
C 8.64209 7.45724 7.79438
H 7.32176 9.15302 6.53073
H 7.53076 7.62863 5.48321
H 5.44103 7.07707 7.20641
H 7.18301 6.77239 9.40955
H 9.13206 8.34688 8.18502
H 9.3262 6.64383 7.67198
10
 Atoms. Timestep: 2040
C 7.41149 8.02341 6.4217
C 6.46621 7.37467 7.42464
C 7.2808 7.04461 8.47049
C 8.66489 7.48864 7.80164
H 7.37883 9.11195 6.39284
H 7.59334 7.60242 5.41887
H 5.4054 7.14027 7.25756
H 7.27287 6.61571 9.46687
H 9.14031 8.42434 8.19327
H 9.39286 6.73729 7.44871
10
 Atoms. Timestep: 2060
C 7.42641 7.99981 6.39987
C 6.47847 7.39872 7.47945
C 7.34216 7.00417 8.43786
C 8.61005 7.54163 7.82384
H 7.42083 9.07184 6.26358
H 7.61684 7.49503 5.44474
H 5.38753 7.28152 7.40988
H 7.08442 6.48046 9.39636
H 9.16252 8.36949 8.25413
H 9.30931 6.85564 7.27422
10
 Atoms. Timestep: 2080
C 7.38079 7.99737 6.43234
C 6.4984 7.41661 7.47433
C 7.37178 6.99864 8.36484
C 8.62896 7.557 7.83113
H 7.38989 9.07888 6.16083
H 7.58647 7.30098 5.60022
H 5.41498 7.39925 7.56677
H 7.06333 6.43232 9.2385
H 9.13154 8.35323 8.36507
H 9.25822 6.83766 7.34175
10
 Atoms. Timestep: 2100
C 7.36274 8.02014 6.44794
C 6.44273 7.46062 7.4628
C 7.34965 6.97985 8.35488
C 8.68515 7.53228 7.80032
H 7.297 9.04028 6.06089
H 7.57997 7.24545 5.71495
H 5.3518 7.44341 7.55632
H 7.2846 6.35491 9.23809
H 9.11654 8.38555 8.40428
H 9.45245 6.79307 7.51882
10
 Atoms. Timestep: 2120
C 7.39672 8.02794 6.45219
C 6.40912 7.48651 7.54562