LAMMPS (2 Aug 2023 - Update 2)
#13 Butadiene
units           metal
boundary        p p p
atom_style      atomic

neighbor        2.0 bin
neigh_modify    delay 0 every 1 check yes

read_data       restart.lmp
Reading data file ...
  orthogonal box = (0 0 0) to (15 15 15)
  1 by 1 by 3 MPI processor grid
  reading atoms ...
  10 atoms
  reading velocities ...
  10 velocities
  read_data CPU = 0.001 seconds
mass            1 12.0
mass            2 2

variable        sysvol          equal vol
variable        sysmass         equal mass(all)/6.0221367e+23
variable        sysdensity      equal v_sysmass/v_sysvol/1.0e-24
variable	out_freq 	equal 100

pair_style      deepmd ../files/frozen_model_1_compressed.pb ../files/frozen_model_2_compressed.pb ../files/frozen_model_3_compressed.pb ../files/frozen_model_3_compressed.pb out_file md.out out_freq 10 atomic relative 1.0
Summary of lammps deepmd module ...
  >>> Info of deepmd-kit:
  installed to:       /rs1/researchers/w/wjpfaend/rahul/MLP/DeePMD-kit/deepmd_cpu
  source:             v2.2.8-dirty
  source branch:      master
  source commit:      b875ea8
  source commit at:   2024-01-22 22:28:58 -0500
  support model ver.: 1.1 
  build variant:      cpu
  build with tf inc:  /rs1/researchers/w/wjpfaend/rahul/MLP/DeePMD-kit/tensorflow/lib/python3.11/site-packages/tensorflow/include;/rs1/researchers/w/wjpfaend/rahul/MLP/DeePMD-kit/tensorflow/lib/python3.11/site-packages/tensorflow/include
  build with tf lib:  /rs1/researchers/w/wjpfaend/rahul/MLP/DeePMD-kit/tensorflow/lib/python3.11/site-packages/tensorflow/libtensorflow_cc.so.2
  set tf intra_op_parallelism_threads: 0
  set tf inter_op_parallelism_threads: 0
  >>> Info of lammps module:
  use deepmd-kit at:  /rs1/researchers/w/wjpfaend/rahul/MLP/DeePMD-kit/deepmd_cpu
  source:             v2.2.8-dirty
  source branch:      master
  source commit:      b875ea8
  source commit at:   2024-01-22 22:28:58 -0500
  build float prec:   double
  build with tf inc:  /rs1/researchers/w/wjpfaend/rahul/MLP/DeePMD-kit/tensorflow/lib/python3.11/site-packages/tensorflow/include;/rs1/researchers/w/wjpfaend/rahul/MLP/DeePMD-kit/tensorflow/lib/python3.11/site-packages/tensorflow/include
  build with tf lib:  /rs1/researchers/w/wjpfaend/rahul/MLP/DeePMD-kit/tensorflow/lib/python3.11/site-packages/tensorflow/libtensorflow_cc.so.2
pair_coeff	* *

#
velocity        all create 300.0 2345678 rot no dist gaussian
fix             1 all nvt temp 300.0 300.0 0.05
fix             2 all plumed plumedfile plumed.dat outfile PLUMED.log

timestep        0.0005
thermo_style    custom step pe ke etotal v_sysdensity temp press vol
thermo          10

dump            10 all custom 100 btd.dump id type x y z
dump		101 all xyz 20 btd.xyz
dump_modify	101 element C H

fix		extra all print 20 "$(step), $(ke), $(pe), $(etotal), $(temp), $(press), $(vol)" file logfile screen no

restart	        20000 dump.restart

run             50000

CITE-CITE-CITE-CITE-CITE-CITE-CITE-CITE-CITE-CITE-CITE-CITE-CITE

Your simulation uses code contributions which should be cited:

- USER-DEEPMD package:

@article{Wang_ComputPhysCommun_2018_v228_p178,
  author = {Wang, Han and Zhang, Linfeng and Han, Jiequn and E, Weinan},
  doi = {10.1016/j.cpc.2018.03.016},
  url = {https://doi.org/10.1016/j.cpc.2018.03.016},
  year = 2018,
  month = {jul},
  publisher = {Elsevier {BV}},
  volume = 228,
  journal = {Comput. Phys. Commun.},
  title = {{DeePMD-kit: A deep learning package for many-body potential energy representation and molecular dynamics}},
  pages = {178--184}
}
@misc{Zeng_JChemPhys_2023_v159_p054801,
  title  = {{DeePMD-kit v2: A software package for deep potential models}},
  author =   {Jinzhe Zeng and Duo Zhang and Denghui Lu and Pinghui Mo and Zeyu Li
         and Yixiao Chen and Mari{\'a}n Rynik and Li'ang Huang and Ziyao Li and 
         Shaochen Shi and Yingze Wang and Haotian Ye and Ping Tuo and Jiabin
         Yang and Ye Ding and Yifan Li and Davide Tisi and Qiyu Zeng and Han 
         Bao and Yu Xia and Jiameng Huang and Koki Muraoka and Yibo Wang and 
         Junhan Chang and Fengbo Yuan and Sigbj{\o}rn L{\o}land Bore and Chun
         Cai and Yinnian Lin and Bo Wang and Jiayan Xu and Jia-Xin Zhu and 
         Chenxing Luo and Yuzhi Zhang and Rhys E A Goodall and Wenshuo Liang
         and Anurag Kumar Singh and Sikai Yao and Jingchao Zhang and Renata
         Wentzcovitch and Jiequn Han and Jie Liu and Weile Jia and Darrin M
         York and Weinan E and Roberto Car and Linfeng Zhang and Han Wang},
  journal =  {J. Chem. Phys.},
  volume =   159,
  issue =    5,  
  year =    2023,
  pages  =   054801,
  doi =      {10.1063/5.0155600},
}

CITE-CITE-CITE-CITE-CITE-CITE-CITE-CITE-CITE-CITE-CITE-CITE-CITE

Generated 0 of 1 mixed pair_coeff terms from geometric mixing rule
Neighbor list info ...
  update: every = 1 steps, delay = 0 steps, check = yes
  max neighbors/atom: 2000, page size: 100000
  master list distance cutoff = 8
  ghost atom cutoff = 8
  binsize = 4, bins = 4 4 4
  1 neighbor lists, perpetual/occasional/extra = 1 0 0
  (1) pair deepmd, perpetual
      attributes: full, newton on
      pair build: full/bin/atomonly
      stencil: full/bin/3d
      bin: standard
Per MPI rank memory allocation (min/avg/max) = 2.957 | 2.999 | 3.082 Mbytes
   Step         PotEng         KinEng         TotEng      v_sysdensity       Temp          Press          Volume    
         0  -55.336353      0.34900239    -54.987351      0.029520714    300           -1765.425       3375         
        10  -55.520874      0.49772915    -55.023145      0.029520714    427.84448     -45.119166      3375         
        20  -55.241381      0.23469654    -55.006685      0.029520714    201.74349      1800.0159      3375         
        30  -55.3388        0.40988876    -54.928911      0.029520714    352.3375       1816.8857      3375         
        40  -55.391949      0.40843354    -54.983515      0.029520714    351.0866      -774.11331      3375         
        50  -55.268765      0.28017207    -54.988593      0.029520714    240.83394     -2179.4994      3375         
        60  -55.372068      0.34498032    -55.027087      0.029520714    296.54265     -308.84643      3375         
        70  -55.256033      0.24149549    -55.014537      0.029520714    207.58782      1333.3166      3375         
        80  -55.465083      0.51533733    -54.949745      0.029520714    442.98034      800.95125      3375         
        90  -55.362449      0.36490765    -54.997541      0.029520714    313.67205     -939.87312      3375         
       100  -55.262752      0.25629973    -55.006452      0.029520714    220.31345     -947.31227      3375         
       110  -55.501676      0.45811408    -55.043562      0.029520714    393.79164      872.07196      3375         
       120  -55.288687      0.27570894    -55.012978      0.029520714    236.99746      1733.2425      3375         
       130  -55.364223      0.37389947    -54.990324      0.029520714    321.40136     -30.369539      3375         
       140  -55.326666      0.30086395    -55.025802      0.029520714    258.62054     -2444.4945      3375         
       150  -55.448723      0.40957278    -55.03915       0.029520714    352.06588     -1529.9204      3375         
       160  -55.519745      0.42877916    -55.090966      0.029520714    368.57555      1526.9981      3375         
       170  -55.307168      0.25059741    -55.05657       0.029520714    215.41177      2369.6893      3375         
       180  -55.433788      0.39391326    -55.039875      0.029520714    338.60506      466.92474      3375         
       190  -55.302918      0.20951931    -55.093398      0.029520714    180.10133     -1806.5226      3375         
       200  -55.445604      0.33000485    -55.115599      0.029520714    283.66984     -1569.314       3375         
       210  -55.484974      0.3234155     -55.161558      0.029520714    278.00569      579.05508      3375         
       220  -55.365396      0.2400903     -55.125306      0.029520714    206.37993      1372.9431      3375         
       230  -55.455249      0.3190889     -55.13616       0.029520714    274.28657     -5.3333003      3375         
       240  -55.351901      0.1772066     -55.174694      0.029520714    152.32555     -883.1411       3375         
       250  -55.498485      0.30237986    -55.196105      0.029520714    259.9236       182.8486       3375         
       260  -55.554376      0.3100472     -55.244329      0.029520714    266.51439      733.57619      3375         
       270  -55.388634      0.19769263    -55.190941      0.029520714    169.93519      158.41918      3375         
       280  -55.446454      0.24407658    -55.202377      0.029520714    209.80651     -761.76785      3375         
       290  -55.43813       0.20561331    -55.232516      0.029520714    176.74376     -1158.6718      3375         
       300  -55.565709      0.31019009    -55.255519      0.029520714    266.63722      279.5303       3375         
       310  -55.467149      0.20257515    -55.264574      0.029520714    174.13217      1710.85        3375         
       320  -55.515245      0.28814352    -55.227102      0.029520714    247.68614      898.01348      3375         
       330  -55.525397      0.28298113    -55.242416      0.029520714    243.24859     -993.22166      3375         
       340  -55.433603      0.17685672    -55.256747      0.029520714    152.02479     -1630.9603      3375         
       350  -55.580565      0.29427171    -55.286293      0.029520714    252.95389     -580.84732      3375         
       360  -55.446394      0.17589121    -55.270502      0.029520714    151.19485      946.80698      3375         
       370  -55.455481      0.23881348    -55.216667      0.029520714    205.28238      1488.218       3375         
       380  -55.472712      0.23350386    -55.239208      0.029520714    200.71828      48.027506      3375         
       390  -55.498453      0.25553956    -55.242914      0.029520714    219.66001     -1013.018       3375         
       400  -55.565507      0.30728905    -55.258218      0.029520714    264.1435      -185.13665      3375         
       410  -55.360927      0.13662039    -55.224306      0.029520714    117.43792      535.17145      3375         
       420  -55.455337      0.28261467    -55.172722      0.029520714    242.93358      106.32036      3375         
       430  -55.457727      0.27361432    -55.184112      0.029520714    235.19695     -1076.536       3375         
       440  -55.399832      0.22897234    -55.17086       0.029520714    196.82301     -788.76334      3375         
       450  -55.491252      0.30708397    -55.184168      0.029520714    263.96722      1297.9021      3375         
       460  -55.419637      0.31374068    -55.105897      0.029520714    269.68928      2037.5462      3375         
       470  -55.466355      0.4252303     -55.041125      0.029520714    365.52497     -44.398307      3375         
       480  -55.263825      0.21156409    -55.052261      0.029520714    181.859       -2307.3132      3375         
       490  -55.419402      0.37899897    -55.040403      0.029520714    325.78485     -1662.8447      3375         
       500  -55.507333      0.45744616    -55.049887      0.029520714    393.2175       898.37823      3375         
       510  -55.252206      0.2776569     -54.974549      0.029520714    238.67191      2238.2255      3375         
       520  -55.425151      0.46839523    -54.956756      0.029520714    402.62924      653.72986      3375         
       530  -55.23752       0.26621801    -54.971302      0.029520714    228.83913     -1717.5069      3375         
       540  -55.393679      0.42067434    -54.973004      0.029520714    361.60871     -1052.1542      3375         
       550  -55.400093      0.39979898    -55.000294      0.029520714    343.66439      1070.4998      3375         
       560  -55.257511      0.33202819    -54.925483      0.029520714    285.4091       956.84589      3375         
       570  -55.42824       0.50786875    -54.920371      0.029520714    436.5604      -690.57948      3375         
       580  -55.209697      0.26300272    -54.946695      0.029520714    226.07528     -1491.1975      3375         
       590  -55.28299       0.32203945    -54.960951      0.029520714    276.82285      71.709398      3375         
       600  -55.286216      0.30337857    -54.982838      0.029520714    260.78208      2050.4316      3375         
       610  -55.41088       0.51132338    -54.899557      0.029520714    439.52998      1443.5453      3375         
       620  -55.406584      0.48579897    -54.920785      0.029520714    417.58938     -1392.8094      3375         
       630  -55.128448      0.18880243    -54.939646      0.029520714    162.29324     -2514.7964      3375         
       640  -55.453202      0.48997174    -54.96323       0.029520714    421.17626     -265.0418       3375         
       650  -55.342622      0.36668015    -54.975942      0.029520714    315.19568      1667.1589      3375         
       660  -55.33497       0.43061534    -54.904354      0.029520714    370.15392      1722.9667      3375         
       670  -55.398635      0.45554528    -54.943089      0.029520714    391.58352     -308.3951       3375         
       680  -55.248939      0.2905168     -54.958423      0.029520714    249.7262      -1553.6999      3375         
       690  -55.444445      0.45083987    -54.993605      0.029520714    387.53878     -435.81098      3375         
       700  -55.286101      0.27548546    -55.010616      0.029520714    236.80536      708.52566      3375         
       710  -55.37435       0.43617476    -54.938175      0.029520714    374.93275      449.17937      3375         
       720  -55.446201      0.46227523    -54.983926      0.029520714    397.36853     -515.97158      3375         
       730  -55.263985      0.25618267    -55.007802      0.029520714    220.21282     -686.97742      3375         
       740  -55.414931      0.36836235    -55.046569      0.029520714    316.64168      674.58962      3375         
       750  -55.300532      0.25179929    -55.048733      0.029520714    216.4449       1542.1859      3375         
       760  -55.326046      0.32042532    -55.005621      0.029520714    275.43535      204.25562      3375         
       770  -55.303152      0.25598278    -55.047169      0.029520714    220.041       -1912.4907      3375         
       780  -55.401951      0.33971987    -55.062232      0.029520714    292.02081     -1628.9323      3375         
       790  -55.574465      0.45752972    -55.116935      0.029520714    393.28932      532.73519      3375         
       800  -55.301224      0.21093486    -55.090289      0.029520714    181.31812      2045.1168      3375         
       810  -55.415845      0.35852561    -55.057319      0.029520714    308.18609      1425.2482      3375         
       820  -55.39791       0.28458064    -55.11333       0.029520714    244.62352     -1069.1191      3375         
       830  -55.426513      0.29633704    -55.130176      0.029520714    254.72924     -1818.4077      3375         
       840  -55.474731      0.30141246    -55.173318      0.029520714    259.09203     -152.84829      3375         
       850  -55.400178      0.25874168    -55.141436      0.029520714    222.41253      1084.1336      3375         
       860  -55.556751      0.41227002    -55.144481      0.029520714    354.38441      331.94127      3375         
       870  -55.458289      0.27105434    -55.187235      0.029520714    232.99641     -772.951        3375         
       880  -55.491576      0.27989328    -55.211683      0.029520714    240.59429     -267.49113      3375         
       890  -55.485179      0.22822393    -55.256955      0.029520714    196.17968      900.27193      3375         
       900  -55.360749      0.15543844    -55.20531       0.029520714    133.61379      1011.557       3375         
       910  -55.494297      0.28606571    -55.208232      0.029520714    245.90008     -558.39195      3375         
       920  -55.434912      0.18834829    -55.246564      0.029520714    161.90287     -1821.2561      3375         
       930  -55.51812       0.25294259    -55.265177      0.029520714    217.42767     -550.43308      3375         
       940  -55.468197      0.18136348    -55.286834      0.029520714    155.89877      1647.6039      3375         
       950  -55.470194      0.21171175    -55.258482      0.029520714    181.98593      1638.7994      3375         
       960  -55.555539      0.29598431    -55.259554      0.029520714    254.42603     -488.18558      3375         
       970  -55.431786      0.14966184    -55.282124      0.029520714    128.64826     -1763.1706      3375         
       980  -55.531343      0.22854514    -55.302798      0.029520714    196.45579     -702.70138      3375         
       990  -55.510493      0.19558046    -55.314913      0.029520714    168.11959      914.72622      3375         
      1000  -55.506162      0.24341149    -55.262751      0.029520714    209.2348       1147.4819      3375         
      1010  -55.542716      0.2669421     -55.275774      0.029520714    229.46155     -71.191299      3375         
      1020  -55.49401       0.20466384    -55.289346      0.029520714    175.9276      -1037.6869      3375         
      1030  -55.620049      0.31677614    -55.303273      0.029520714    272.29854      12.374191      3375         
      1040  -55.485033      0.18921431    -55.295819      0.029520714    162.64729      914.75283      3375         
      1050  -55.436497      0.19066716    -55.24583       0.029520714    163.89615      10.895401      3375         
      1060  -55.484718      0.23067344    -55.254044      0.029520714    198.28526     -1073.0709      3375         
      1070  -55.454328      0.20544739    -55.24888       0.029520714    176.60113     -677.38097      3375         
      1080  -55.548713      0.29378231    -55.25493       0.029520714    252.5332       668.14491      3375         
      1090  -55.434571      0.21695544    -55.217616      0.029520714    186.49337      1563.2329      3375         
      1100  -55.454446      0.31362538    -55.140821      0.029520714    269.59017      577.71923      3375         
      1110  -55.402849      0.26707087    -55.135778      0.029520714    229.57224     -1484.0022      3375         
      1120  -55.318321      0.19151367    -55.126807      0.029520714    164.6238      -1505.9541      3375         
      1130  -55.458033      0.32647826    -55.131555      0.029520714    280.63842      236.50893      3375         
      1140  -55.383586      0.29640005    -55.087186      0.029520714    254.7834       1228.8674      3375         
      1150  -55.442375      0.42493135    -55.017444      0.029520714    365.268        993.52207      3375         
      1160  -55.310962      0.28211906    -55.028843      0.029520714    242.50756     -600.84679      3375         
      1170  -55.405434      0.38370765    -55.021726      0.029520714    329.83239     -1113.814       3375         
      1180  -55.478684      0.44845965    -55.030225      0.029520714    385.49276      406.32481      3375         
      1190  -55.256238      0.27795734    -54.97828       0.029520714    238.93017      932.46545      3375         
      1200  -55.430837      0.48313858    -54.947698      0.029520714    415.30252     -404.11614      3375         
      1210  -55.360386      0.39739593    -54.96299       0.029520714    341.59874     -1225.0842      3375         
      1220  -55.329283      0.36106127    -54.968222      0.029520714    310.36573     -358.35914      3375         
      1230  -55.301864      0.31579888    -54.986065      0.029520714    271.45849      1029.3516      3375         
      1240  -55.281114      0.36395536    -54.917159      0.029520714    312.85347      1757.7313      3375         
      1250  -55.396588      0.48426142    -54.912327      0.029520714    416.26771      248.3019       3375         
      1260  -55.25425       0.32404799    -54.930202      0.029520714    278.54937     -2085.4645      3375         
      1270  -55.365188      0.43156786    -54.93362       0.029520714    370.97269     -1448.2272      3375         
      1280  -55.342967      0.38733341    -54.955634      0.029520714    332.94908      763.18542      3375         
      1290  -55.209811      0.30944197    -54.900369      0.029520714    265.99414      1411.7477      3375         
      1300  -55.263043      0.36846823    -54.894575      0.029520714    316.7327       415.575        3375         
      1310  -55.214072      0.30086158    -54.913211      0.029520714    258.6185      -753.76266      3375         
      1320  -55.380191      0.4536323     -54.926559      0.029520714    389.93914     -406.05418      3375         
      1330  -55.379808      0.44210789    -54.9377        0.029520714    380.03283      657.31745      3375         
      1340  -55.301923      0.42307312    -54.87885       0.029520714    363.67068      547.35484      3375         
      1350  -55.418181      0.52835191    -54.889829      0.029520714    454.16758     -906.01802      3375         
      1360  -55.278041      0.36345647    -54.914585      0.029520714    312.42463     -1291.5315      3375         
      1370  -55.31954       0.38693555    -54.932605      0.029520714    332.60707      383.71666      3375         
      1380  -55.3108        0.36703701    -54.943763      0.029520714    315.50243      1929.3408      3375         
      1390  -55.419928      0.49902133    -54.920907      0.029520714    428.95522      846.14831      3375         
      1400  -55.3214        0.3757732     -54.945626      0.029520714    323.012       -1579.9877      3375         
      1410  -55.281954      0.31171806    -54.970236      0.029520714    267.95065     -1783.0903      3375         
      1420  -55.459318      0.45231269    -55.007005      0.029520714    388.80481     -57.229362      3375         
      1430  -55.336173      0.33042792    -55.005745      0.029520714    284.03351      1441.5858      3375         
      1440  -55.348255      0.36131973    -54.986936      0.029520714    310.5879       1424.4898      3375         
      1450  -55.333483      0.30417186    -55.029311      0.029520714    261.46399     -311.44129      3375         
      1460  -55.265107      0.21562323    -55.049484      0.029520714    185.34821     -1266.7263      3375         
      1470  -55.379714      0.29766801    -55.082046      0.029520714    255.87333     -218.74722      3375         
      1480  -55.359531      0.273164      -55.086367      0.029520714    234.80985      554.2347       3375         
      1490  -55.465277      0.40005265    -55.065224      0.029520714    343.88244     -22.436575      3375         
      1500  -55.484275      0.38127329    -55.103001      0.029520714    327.73984     -470.6372       3375         
      1510  -55.387859      0.26004908    -55.12781       0.029520714    223.53636     -61.154051      3375         
      1520  -55.466843      0.30160842    -55.165234      0.029520714    259.26047      597.61643      3375         
      1530  -55.40231       0.24261564    -55.159694      0.029520714    208.5507       891.69775      3375         
      1540  -55.421832      0.29173617    -55.130096      0.029520714    250.77436     -53.177025      3375         
      1550  -55.43921       0.27393486    -55.165276      0.029520714    235.47248     -1263.8973      3375         
      1560  -55.517019      0.33335064    -55.183668      0.029520714    286.54586     -899.22587      3375         
      1570  -55.538381      0.3257531     -55.212627      0.029520714    280.01507      543.64188      3375         
      1580  -55.406578      0.20730443    -55.199274      0.029520714    178.19743      1170.0559      3375         
      1590  -55.456032      0.26801348    -55.188019      0.029520714    230.3825       446.16291      3375         
      1600  -55.445371      0.23794816    -55.207423      0.029520714    204.53857     -695.00306      3375         
      1610  -55.489478      0.26868579    -55.220792      0.029520714    230.96042     -798.57907      3375         
      1620  -55.434588      0.20209123    -55.232497      0.029520714    173.7162       81.133153      3375         
      1630  -55.402609      0.19219803    -55.210411      0.029520714    165.21207      622.5507       3375         
      1640  -55.510846      0.31027164    -55.200575      0.029520714    266.70732      179.61487      3375         
      1650  -55.448815      0.2383707     -55.210445      0.029520714    204.90178     -555.52228      3375         
      1660  -55.440789      0.22201696    -55.218772      0.029520714    190.84422     -253.80451      3375         
      1670  -55.519132      0.3096848     -55.209447      0.029520714    266.20287      651.76067      3375         
      1680  -55.449544      0.27878314    -55.170761      0.029520714    239.64003      766.45039      3375         
      1690  -55.427939      0.26806344    -55.159875      0.029520714    230.42544     -436.34994      3375         
      1700  -55.430751      0.27976394    -55.150987      0.029520714    240.48312     -1337.2328      3375         
      1710  -55.469014      0.33134233    -55.137671      0.029520714    284.81954     -374.43834      3375         
      1720  -55.414356      0.31197573    -55.102381      0.029520714    268.17214      1226.2415      3375         
      1730  -55.459185      0.43409252    -55.025092      0.029520714    373.14287      1140.1808      3375         
      1740  -55.454547      0.47676167    -54.977785      0.029520714    409.82098     -514.7906       3375         
      1750  -55.312973      0.35896929    -54.954004      0.029520714    308.56747     -1173.8996      3375         
      1760  -55.322394      0.37959405    -54.9428        0.029520714    326.29637     -217.49483      3375         
      1770  -55.148683      0.23324711    -54.915436      0.029520714    200.49758      743.99346      3375         
      1780  -55.238532      0.37554111    -54.862991      0.029520714    322.8125       581.66939      3375         
      1790  -55.342261      0.48456312    -54.857698      0.029520714    416.52705     -510.88831      3375         
      1800  -55.230355      0.38037861    -54.849977      0.029520714    326.97077     -903.01406      3375         
      1810  -55.299468      0.44831784    -54.85115       0.029520714    385.37086      662.61951      3375         
      1820  -55.278304      0.43305484    -54.845249      0.029520714    372.25089      1303.5819      3375         
      1830  -55.198932      0.39326171    -54.80567       0.029520714    338.045       -339.81629      3375         
      1840  -55.124906      0.31479936    -54.810106      0.029520714    270.59931     -1479.5504      3375         
      1850  -55.241165      0.4184512     -54.822714      0.029520714    359.6977      -808.44311      3375         
      1860  -55.298449      0.46139794    -54.837052      0.029520714    396.61442      797.5292       3375         
      1870  -55.24836       0.43974196    -54.808618      0.029520714    377.99909      1845.8987      3375         
      1880  -55.452542      0.65823619    -54.794305      0.029520714    565.81519      869.9286       3375         
      1890  -55.396988      0.56925135    -54.827737      0.029520714    489.32446     -1190.004       3375         
      1900  -55.263638      0.41454098    -54.849097      0.029520714    356.33651     -1679.5901      3375         
      1910  -55.342251      0.45498335    -54.887268      0.029520714    391.10049     -549.22045      3375         
      1920  -55.301414      0.40606014    -54.895353      0.029520714    349.04644      516.90975      3375         
      1930  -55.331251      0.45365075    -54.8776        0.029520714    389.95499      930.18089      3375         
      1940  -55.278359      0.35560848    -54.922751      0.029520714    305.67855      371.46803      3375         
      1950  -55.214413      0.26686616    -54.947547      0.029520714    229.39627      42.919466      3375         
      1960  -55.404542      0.42307188    -54.981471      0.029520714    363.66961      0.57208804     3375         
      1970  -55.280696      0.30074997    -54.979946      0.029520714    258.52256     -62.291618      3375         
      1980  -55.332596      0.36159103    -54.971005      0.029520714    310.82111     -352.39184      3375         
      1990  -55.371585      0.36802621    -55.003559      0.029520714    316.35274     -790.28958      3375         
      2000  -55.317009      0.29181956    -55.02519       0.029520714    250.84604     -438.05109      3375         
      2010  -55.284643      0.23740934    -55.047234      0.029520714    204.0754       911.38528      3375         
      2020  -55.398549      0.3499246     -55.048624      0.029520714    300.79272      1424.092       3375         
      2030  -55.448576      0.40743824    -55.041138      0.029520714    350.23105      296.00403      3375         
      2040  -55.433891      0.37509723    -55.058794      0.029520714    322.43094     -1181.0117      3375         
      2050  -55.456562      0.37626842    -55.080293      0.029520714    323.43769     -1466.2316      3375         
      2060  -55.493709      0.39311127    -55.100598      0.029520714    337.91569     -249.51385      3375         
      2070  -55.388209      0.29166472    -55.096544      0.029520714    250.71294      1271.2724      3375         
      2080  -55.414435      0.32187242    -55.092562      0.029520714    276.67927      1080.9387      3375         
      2090  -55.423576      0.31096308    -55.112613      0.029520714    267.30168     -259.00659      3375         
      2100  -55.473077      0.34426398    -55.128813      0.029520714    295.9269      -574.80559      3375         
      2110  -55.431338      0.28910826    -55.14223       0.029520714    248.51542     -179.15603      3375         
      2120  -55.326483      0.1981188     -55.128365      0.029520714    170.30153     -49.253215      3375         
      2130  -55.386392      0.26175081    -55.124641      0.029520714    224.99915     -216.05486      3375         
      2140  -55.443459      0.30849041    -55.134968      0.029520714    265.17618     -334.7231       3375         
      2150  -55.393095      0.25155594    -55.141539      0.029520714    216.23571      297.96844      3375         
      2160  -55.35194       0.20264278    -55.149297      0.029520714    174.19031      1082.1085      3375         
      2170  -55.451949      0.3179836     -55.133966      0.029520714    273.33646      435.85948      3375         
      2180  -55.445446      0.33171566    -55.11373       0.029520714    285.14045     -637.45334      3375         
      2190  -55.375108      0.25684081    -55.118267      0.029520714    220.77855     -1100.9811      3375         
      2200  -55.423677      0.30324992    -55.120427      0.029520714    260.67149     -678.04444      3375         
      2210  -55.465589      0.34911171    -55.116477      0.029520714    300.09397      745.44219      3375         
      2220  -55.447837      0.35514975    -55.092687      0.029520714    305.28423      1254.2773      3375         
      2230  -55.517595      0.44915594    -55.068439      0.029520714    386.09128      128.96855      3375         
      2240  -55.488339      0.42705238    -55.061287      0.029520714    367.09122     -504.77596      3375         
      2250  -55.380942      0.32292423    -55.058017      0.029520714    277.5834      -485.27582      3375         
      2260  -55.268297      0.22332211    -55.044975      0.029520714    191.96612     -440.38891      3375         
      2270  -55.334743      0.33058813    -55.004154      0.029520714    284.17123      95.126754      3375         
      2280  -55.426182      0.45609948    -54.970083      0.029520714    392.0599       311.43196      3375         
      2290  -55.35312       0.42121652    -54.931903      0.029520714    362.07475     -61.516175      3375         
      2300  -55.315025      0.41842036    -54.896605      0.029520714    359.6712       526.08934      3375         
      2310  -55.225536      0.37990876    -54.845627      0.029520714    326.5669       762.23494      3375         
      2320  -55.101013      0.31132939    -54.789684      0.029520714    267.61655     -361.15767      3375         
      2330  -54.988127      0.2109595     -54.777168      0.029520714    181.3393      -877.89237      3375         
      2340  -55.090006      0.33195687    -54.758049      0.029520714    285.34779     -878.99374      3375         
      2350  -55.34182       0.60591648    -54.735903      0.029520714    520.84154     -211.45986      3375         
      2360  -55.34206       0.6397231     -54.702337      0.029520714    549.90148      1311.2223      3375         
      2370  -55.186662      0.51682777    -54.669835      0.029520714    444.26151      1135.7455      3375         
      2380  -55.198477      0.53618522    -54.662292      0.029520714    460.90104     -299.65571      3375         
      2390  -55.196808      0.52879531    -54.668013      0.029520714    454.54873     -545.98384      3375         
      2400  -55.232791      0.55124852    -54.681543      0.029520714    473.84935     -575.87296      3375         
      2410  -55.275704      0.58470184    -54.691002      0.029520714    502.60559     -337.28377      3375         
      2420  -55.218385      0.51754401    -54.700841      0.029520714    444.87719      410.41195      3375         
      2430  -55.160244      0.43439255    -54.725852      0.029520714    373.40078      39.165825      3375         
      2440  -55.33217       0.58065037    -54.75152       0.029520714    499.12297     -119.64656      3375         
      2450  -55.384027      0.59825498    -54.785772      0.029520714    514.25577      659.19055      3375         
      2460  -55.242396      0.42022057    -54.822175      0.029520714    361.21865      283.58033      3375         
      2470  -55.195336      0.36200168    -54.833335      0.029520714    311.1741      -622.3069       3375         
      2480  -55.235594      0.38377085    -54.851823      0.029520714    329.88672     -573.35839      3375         
      2490  -55.273209      0.38721999    -54.885989      0.029520714    332.85158     -396.8268       3375         
      2500  -55.204587      0.29665499    -54.907932      0.029520714    255.00255      475.20253      3375         
      2510  -55.143001      0.23374343    -54.909258      0.029520714    200.9242       1171.3822      3375         
      2520  -55.372431      0.44702293    -54.925408      0.029520714    384.25776      472.1643       3375         
      2530  -55.443226      0.49648896    -54.946737      0.029520714    426.77842     -673.66543      3375         
      2540  -55.300231      0.33238292    -54.967848      0.029520714    285.71402     -752.29057      3375         
      2550  -55.364738      0.37310116    -54.991636      0.029520714    320.71513     -505.80959      3375         
      2560  -55.423654      0.42456469    -54.999089      0.029520714    364.95282     -175.84938      3375         
      2570  -55.396668      0.39107427    -55.005594      0.029520714    336.16469      477.68569      3375         
      2580  -55.307833      0.28382197    -55.024011      0.029520714    243.97137      868.9806       3375         
      2590  -55.386457      0.34318103    -55.043276      0.029520714    294.996        492.26663      3375         
      2600  -55.497901      0.43830929    -55.059592      0.029520714    376.76758     -188.10796      3375         
      2610  -55.430209      0.36088876    -55.06932       0.029520714    310.21744     -573.91025      3375         
      2620  -55.382815      0.31025273    -55.072562      0.029520714    266.69107     -739.79569      3375         
      2630  -55.432886      0.3473054     -55.085581      0.029520714    298.54128     -546.51316      3375         
      2640  -55.447826      0.34159994    -55.106226      0.029520714    293.6369       387.30453      3375         
      2650  -55.268042      0.15342992    -55.114612      0.029520714    131.88728      1000.9457      3375         
      2660  -55.365142      0.25904251    -55.1061        0.029520714    222.67112      673.55305      3375         
      2670  -55.46396       0.34949188    -55.114468      0.029520714    300.42076     -34.466162      3375         
      2680  -55.3612        0.2383423     -55.122858      0.029520714    204.87736     -816.85584      3375         
      2690  -55.374446      0.25061564    -55.12383       0.029520714    215.42744     -1035.2305      3375         
      2700  -55.4873        0.36454061    -55.12276       0.029520714    313.35654     -46.905603      3375         
      2710  -55.461569      0.34249886    -55.11907       0.029520714    294.40961      729.7895       3375         
      2720  -55.412128      0.29603471    -55.116093      0.029520714    254.46935      698.50573      3375         
      2730  -55.418974      0.29651302    -55.122461      0.029520714    254.8805       274.94848      3375         
      2740  -55.369057      0.24057704    -55.12848       0.029520714    206.79833     -387.15026      3375         
      2750  -55.4289        0.31584555    -55.113054      0.029520714    271.49861     -329.68125      3375         
      2760  -55.488057      0.38559142    -55.102466      0.029520714    331.45167      103.90441      3375         
      2770  -55.509369      0.40872501    -55.100644      0.029520714    351.33714     -566.17772      3375         
      2780  -55.484181      0.38468283    -55.099498      0.029520714    330.67065     -664.10801      3375         
      2790  -55.442084      0.33668542    -55.105398      0.029520714    289.41242      769.7269       3375         
      2800  -55.31776       0.21829931    -55.099461      0.029520714    187.64855      996.20507      3375         
      2810  -55.331339      0.26295924    -55.06838       0.029520714    226.03791      177.73818      3375         
      2820  -55.284514      0.22169775    -55.062817      0.029520714    190.56982     -307.8248       3375         
      2830  -55.311498      0.25033848    -55.061159      0.029520714    215.1892      -1082.2927      3375         
      2840  -55.452977      0.41026822    -55.042708      0.029520714    352.66367     -287.1103       3375         
      2850  -55.458581      0.45410143    -55.00448       0.029520714    390.34239      1100.1975      3375         
      2860  -55.372975      0.41049725    -54.962478      0.029520714    352.86055      146.26927      3375         
      2870  -55.240367      0.31046645    -54.929901      0.029520714    266.87478     -623.07674      3375         
      2880  -55.23467       0.32494051    -54.90973       0.029520714    279.31657      204.11212      3375         
      2890  -55.276159      0.38693285    -54.889226      0.029520714    332.60476      238.36392      3375         
      2900  -55.294155      0.45042521    -54.84373       0.029520714    387.18234     -56.867977      3375         
      2910  -55.260704      0.45623724    -54.804467      0.029520714    392.17832     -20.856361      3375         
      2920  -55.358101      0.57734208    -54.780759      0.029520714    496.27919     -694.4621       3375         
      2930  -55.339015      0.58071246    -54.758303      0.029520714    499.17634     -91.222979      3375         
      2940  -55.198856      0.45171627    -54.74714       0.029520714    388.29212      1105.734       3375         
      2950  -55.195026      0.4540898     -54.740937      0.029520714    390.3324       105.66368      3375         
      2960  -55.328823      0.59418964    -54.734634      0.029520714    510.76123     -390.7602       3375         
      2970  -55.194328      0.45285271    -54.741476      0.029520714    389.269        1.7750839      3375         
      2980  -55.10995       0.35466912    -54.755281      0.029520714    304.87108     -591.16297      3375         
      2990  -55.151473      0.39466133    -54.756812      0.029520714    339.2481      -494.43616      3375         
      3000  -55.265969      0.51090526    -54.755063      0.029520714    439.17057      586.16918      3375         
      3010  -55.461994      0.68895374    -54.77304       0.029520714    592.21978      703.44063      3375         
      3020  -55.351385      0.55549908    -54.795886      0.029520714    477.5031       447.25876      3375         
      3030  -55.081504      0.26456959    -54.816934      0.029520714    227.42216     -55.518465      3375         
      3040  -55.053494      0.22190042    -54.831594      0.029520714    190.74404     -1052.5344      3375         
      3050  -55.260891      0.41752598    -54.843365      0.029520714    358.9024      -760.58821      3375         
      3060  -55.382071      0.52114083    -54.86093       0.029520714    447.96899      491.09523      3375         
      3070  -55.381017      0.49636396    -54.884653      0.029520714    426.67097      693.30171      3375         
      3080  -55.234207      0.34047701    -54.89373       0.029520714    292.67164      414.49714      3375         
      3090  -55.363902      0.44870653    -54.915195      0.029520714    385.70498      50.533879      3375         
      3100  -55.473377      0.52314847    -54.950228      0.029520714    449.69474     -426.08345      3375         
      3110  -55.2701        0.30268155    -54.967418      0.029520714    260.18293     -371.97749      3375         
      3120  -55.247676      0.2819474     -54.965729      0.029520714    242.36        -19.36426       3375         
      3130  -55.423828      0.43896879    -54.984859      0.029520714    377.33449     -188.59732      3375         
      3140  -55.343894      0.3419795     -55.001914      0.029520714    293.96317     -105.54383      3375         
      3150  -55.344769      0.32868782    -55.016081      0.029520714    282.53774      629.9831       3375         
      3160  -55.479017      0.44399952    -55.035018      0.029520714    381.65886      612.39827      3375         
      3170  -55.425696      0.39741876    -55.028277      0.029520714    341.61837     -132.38379      3375         
      3180  -55.391357      0.36054228    -55.030815      0.029520714    309.91961     -550.01705      3375         
      3190  -55.351677      0.30053076    -55.051146      0.029520714    258.33413     -688.79161      3375         
      3200  -55.285788      0.22399404    -55.061793      0.029520714    192.5437      -322.28758      3375         
      3210  -55.319171      0.25551087    -55.06366       0.029520714    219.63535      724.08121      3375         
      3220  -55.358685      0.29671298    -55.061972      0.029520714    255.05239      931.48743      3375         
      3230  -55.381617      0.32720609    -55.054411      0.029520714    281.26405     -8.7295069      3375         
      3240  -55.476331      0.41934038    -55.05699       0.029520714    360.46204     -415.35431      3375         
      3250  -55.51536       0.44573777    -55.069622      0.029520714    383.15305     -417.97684      3375         
      3260  -55.345224      0.27515232    -55.070072      0.029520714    236.519       -510.3014       3375         
      3270  -55.335746      0.28031013    -55.055436      0.029520714    240.95261      112.5987       3375         
      3280  -55.358663      0.29655275    -55.06211       0.029520714    254.91465      607.48267      3375         
      3290  -55.305283      0.24111937    -55.064163      0.029520714    207.26452      201.63335      3375         
      3300  -55.486881      0.42499444    -55.061887      0.029520714    365.32223      163.25804      3375         
      3310  -55.568021      0.50319527    -55.064826      0.029520714    432.54312      153.71623      3375         
      3320  -55.424482      0.36750864    -55.056974      0.029520714    315.90784     -575.2065       3375         
      3330  -55.412358      0.35835911    -55.053999      0.029520714    308.04297     -607.48742      3375         
      3340  -55.348015      0.28251737    -55.065498      0.029520714    242.84994     -253.96118      3375         
      3350  -55.253571      0.18301014    -55.070561      0.029520714    157.31423      39.131816      3375         
      3360  -55.326696      0.26956414    -55.057132      0.029520714    231.71544      1155.8774      3375         
      3370  -55.406854      0.35701444    -55.04984       0.029520714    306.8871       1102.7294      3375         
      3380  -55.381469      0.33329717    -55.048172      0.029520714    286.4999      -594.40008      3375         
      3390  -55.386918      0.34000793    -55.04691       0.029520714    292.26842     -1111.0551      3375         
      3400  -55.397969      0.3481211     -55.049848      0.029520714    299.24244     -440.33345      3375         
      3410  -55.408394      0.36896545    -55.039429      0.029520714    317.1601      -117.27828      3375         
      3420  -55.415282      0.39952758    -55.015754      0.029520714    343.4311       418.14683      3375         
      3430  -55.276232      0.25972126    -55.016511      0.029520714    223.25457      414.81943      3375         
      3440  -55.2302        0.21326437    -55.016936      0.029520714    183.32055      134.4395       3375         
      3450  -55.449965      0.4453248     -55.00464       0.029520714    382.79806      619.28522      3375         
      3460  -55.417842      0.4407646     -54.977077      0.029520714    378.87815      362.96914      3375         
      3470  -55.290939      0.34367029    -54.947269      0.029520714    295.41657     -1005.872       3375         
      3480  -55.378117      0.44852005    -54.929597      0.029520714    385.54468     -1321.7925      3375         
      3490  -55.438493      0.53236348    -54.906129      0.029520714    457.6159      -401.45359      3375         
      3500  -55.320225      0.43995989    -54.880265      0.029520714    378.18643      896.68758      3375         
      3510  -55.173003      0.34593603    -54.827067      0.029520714    297.36418      1791.2693      3375         
      3520  -55.185013      0.39112468    -54.793889      0.029520714    336.20802      716.29249      3375         
      3530  -55.186994      0.41487553    -54.772119      0.029520714    356.62409     -1221.8355      3375         
      3540  -55.23168       0.48596264    -54.745717      0.029520714    417.73006     -1248.6659      3375         
      3550  -55.310449      0.58605984    -54.724389      0.029520714    503.77291     -349.19119      3375         
      3560  -55.245447      0.57685023    -54.668596      0.029520714    495.8564       60.20321       3375         
      3570  -55.206163      0.58120669    -54.624956      0.029520714    499.60118      522.56369      3375         
      3580  -54.971863      0.34086009    -54.631003      0.029520714    293.00093      772.25871      3375         
      3590  -55.120553      0.49128151    -54.629271      0.029520714    422.30213      346.31685      3375         
      3600  -55.260142      0.62515733    -54.634984      0.029520714    537.38084     -45.80765       3375         
      3610  -55.030608      0.40603476    -54.624573      0.029520714    349.02463     -114.24905      3375         
      3620  -55.064107      0.4592457     -54.604861      0.029520714    394.76437     -461.08985      3375         
      3630  -55.284364      0.66835087    -54.616013      0.029520714    574.5097      -1043.2308      3375         
      3640  -55.336378      0.69074458    -54.645634      0.029520714    593.75918     -539.95547      3375         
      3650  -55.224744      0.54160291    -54.683141      0.029520714    465.55805      1063.8298      3375         
      3660  -55.315986      0.6030787     -54.712907      0.029520714    518.4022       1439.1459      3375         
      3670  -55.18169       0.43694607    -54.744744      0.029520714    375.59577      295.04068      3375         
      3680  -55.079422      0.30395287    -54.775469      0.029520714    261.27575     -914.77161      3375         
      3690  -55.173427      0.3708433     -54.802584      0.029520714    318.77429     -1459.4002      3375         
      3700  -55.312568      0.48267041    -54.829897      0.029520714    414.90008     -345.88356      3375         
      3710  -55.392108      0.54155315    -54.850555      0.029520714    465.51528      1241.1377      3375         
      3720  -55.428788      0.54644882    -54.882339      0.029520714    469.72356      1174.7952      3375         
      3730  -55.353568      0.43306167    -54.920506      0.029520714    372.25676     -85.624018      3375         
      3740  -55.256584      0.30764515    -54.948939      0.029520714    264.4496      -761.28354      3375         
      3750  -55.2051        0.23562725    -54.969473      0.029520714    202.54353     -579.54924      3375         
      3760  -55.182924      0.22520991    -54.957714      0.029520714    193.58886      53.336967      3375         
      3770  -55.376132      0.42221124    -54.953921      0.029520714    362.92981     -28.516833      3375         
      3780  -55.447614      0.47650744    -54.971107      0.029520714    409.60245     -252.02219      3375         
      3790  -55.420018      0.42908359    -54.990934      0.029520714    368.83723      626.60171      3375         
      3800  -55.447335      0.43642168    -55.010914      0.029520714    375.14501      945.29792      3375         
      3810  -55.343857      0.34910823    -54.994749      0.029520714    300.09098      50.317802      3375         
      3820  -55.260058      0.26197988    -54.998078      0.029520714    225.19607     -677.70197      3375         
      3830  -55.304669      0.28898256    -55.015686      0.029520714    248.40737     -1173.474       3375         
      3840  -55.38326       0.35675927    -55.026501      0.029520714    306.66776     -549.02691      3375         
      3850  -55.439873      0.40576303    -55.03411       0.029520714    348.79104      1293.4166      3375         
      3860  -55.528534      0.49403339    -55.034501      0.029520714    424.66763      1168.9405      3375         
      3870  -55.416384      0.37896506    -55.037419      0.029520714    325.75569     -392.81181      3375         
      3880  -55.312638      0.26019076    -55.052447      0.029520714    223.65815     -602.76588      3375         
      3890  -55.389055      0.31823378    -55.070822      0.029520714    273.55152     -305.40746      3375         
      3900  -55.339976      0.28081073    -55.059166      0.029520714    241.38293     -115.35501      3375         
      3910  -55.324199      0.2687644     -55.055434      0.029520714    231.02799      372.76038      3375         
      3920  -55.383143      0.31189294    -55.07125       0.029520714    268.10098      30.88884       3375         
      3930  -55.387243      0.308102      -55.079141      0.029520714    264.84231     -203.12825      3375         
      3940  -55.527034      0.43740777    -55.089627      0.029520714    375.99264      594.93175      3375         
      3950  -55.513347      0.42559245    -55.087754      0.029520714    365.83628      297.67968      3375         
      3960  -55.304819      0.23362655    -55.071192      0.029520714    200.82374     -763.748        3375         
      3970  -55.322008      0.23819541    -55.083813      0.029520714    204.7511      -577.09561      3375         
      3980  -55.428134      0.33186577    -55.096268      0.029520714    285.26948     -84.366898      3375         
      3990  -55.411532      0.30297283    -55.108559      0.029520714    260.43331      440.81803      3375         
      4000  -55.373521      0.28211118    -55.09141       0.029520714    242.50079      1017.0757      3375         
      4010  -55.422977      0.34077262    -55.082205      0.029520714    292.92574      218.00926      3375         
      4020  -55.443429      0.35681216    -55.086617      0.029520714    306.71322     -875.07044      3375         
      4030  -55.535582      0.44320692    -55.092375      0.029520714    380.97755     -697.33889      3375         
      4040  -55.40438       0.30352298    -55.100858      0.029520714    260.90622     -22.172199      3375         
      4050  -55.303125      0.21485445    -55.088271      0.029520714    184.68738      438.48191      3375         
      4060  -55.376011      0.29932664    -55.076684      0.029520714    257.29907      585.45988      3375         
      4070  -55.355248      0.27417569    -55.081073      0.029520714    235.67949     -136.95448      3375         
      4080  -55.433199      0.34887066    -55.084328      0.029520714    299.88676     -414.47921      3375         
      4090  -55.491231      0.40837385    -55.082857      0.029520714    351.03529      179.28045      3375         
      4100  -55.390159      0.33616776    -55.053991      0.029520714    288.96744      404.31194      3375         
      4110  -55.375704      0.34129226    -55.034412      0.029520714    293.37242     -143.35507      3375         
      4120  -55.318189      0.28472527    -55.033464      0.029520714    244.74784     -864.66604      3375         
      4130  -55.291952      0.25969576    -55.032256      0.029520714    223.23265     -605.25013      3375         
      4140  -55.367094      0.33519349    -55.0319        0.029520714    288.12997      963.06209      3375         
      4150  -55.319871      0.33680288    -54.983068      0.029520714    289.51339      1630.5377      3375         
      4160  -55.413325      0.46473562    -54.948589      0.029520714    399.48347      114.36361      3375         
      4170  -55.345833      0.40938126    -54.936452      0.029520714    351.90125     -1593.4709      3375         
      4180  -55.366554      0.44363327    -54.92292       0.029520714    381.34404     -1452.4743      3375         
      4190  -55.379094      0.46489291    -54.914201      0.029520714    399.61867      407.22586      3375         
      4200  -55.341329      0.47064794    -54.870681      0.029520714    404.56566      1249.0723      3375         
      4210  -55.244192      0.41832366    -54.825868      0.029520714    359.58807      208.86677      3375         
      4220  -55.067626      0.23589953    -54.831726      0.029520714    202.77757     -426.65418      3375         
      4230  -55.194492      0.36017476    -54.834317      0.029520714    309.60369      77.405549      3375         
      4240  -55.325165      0.49116071    -54.834004      0.029520714    422.19829      605.04937      3375         
      4250  -55.326369      0.55101622    -54.775352      0.029520714    473.64966      587.83786      3375         
      4260  -55.391789      0.62699622    -54.764793      0.029520714    538.96154     -733.38605      3375         
      4270  -55.241085      0.46651349    -54.774572      0.029520714    401.01171     -2104.3785      3375         
      4280  -55.200204      0.41926763    -54.780937      0.029520714    360.3995      -314.18804      3375         
      4290  -55.114842      0.31034776    -54.804494      0.029520714    266.77275      2015.0003      3375         
      4300  -55.061256      0.28811668    -54.77314       0.029520714    247.66307      1384.7228      3375         
      4310  -55.18219       0.42906438    -54.753126      0.029520714    368.82072     -182.52228      3375         
      4320  -55.164675      0.38551243    -54.779163      0.029520714    331.38378     -1110.7502      3375         
      4330  -55.387246      0.58313757    -54.804108      0.029520714    501.26096     -1208.4882      3375         
      4340  -55.441991      0.62379296    -54.818198      0.029520714    536.20804      305.96885      3375         
      4350  -55.262368      0.46956285    -54.792805      0.029520714    403.63292      1198.5497      3375         
      4360  -55.252765      0.42666871    -54.826096      0.029520714    366.76142     -213.64079      3375         
      4370  -55.196802      0.33267595    -54.864126      0.029520714    285.96591     -702.8156       3375         
      4380  -55.3395        0.43813781    -54.901362      0.029520714    376.62018      370.92625      3375         
      4390  -55.377798      0.41451811    -54.96328       0.029520714    356.31685      444.62542      3375         
      4400  -55.369758      0.43994542    -54.929812      0.029520714    378.17399      188.26553      3375         
      4410  -55.402296      0.418179      -54.984117      0.029520714    359.46373     -461.76945      3375         
      4420  -55.329464      0.29419389    -55.03527       0.029520714    252.88699     -1269.9549      3375         
      4430  -55.448776      0.36926269    -55.079513      0.029520714    317.41561      173.08625      3375         
      4440  -55.351583      0.25059788    -55.100985      0.029520714    215.41218      1640.795       3375         
      4450  -55.409407      0.33276242    -55.076644      0.029520714    286.04023      801.74908      3375         
      4460  -55.423041      0.31728308    -55.105757      0.029520714    272.7343      -733.65584      3375         
      4470  -55.304308      0.17901824    -55.12529       0.029520714    153.88282     -1520.2546      3375         
      4480  -55.44944       0.29662134    -55.152818      0.029520714    254.97362     -687.02283      3375         
      4490  -55.455448      0.31179051    -55.143657      0.029520714    268.01293      1196.5717      3375         
      4500  -55.482886      0.36847008    -55.114416      0.029520714    316.73429      1446.4899      3375         
      4510  -55.456503      0.32312037    -55.133382      0.029520714    277.752       -554.58539      3375         
      4520  -55.378122      0.23267237    -55.14545       0.029520714    200.00353     -1089.5761      3375         
      4530  -55.435766      0.26903135    -55.166734      0.029520714    231.25745      92.962182      3375         
      4540  -55.372356      0.22418101    -55.148175      0.029520714    192.70442      612.40378      3375         
      4550  -55.456667      0.34561315    -55.111054      0.029520714    297.08663      383.73184      3375         
      4560  -55.489515      0.35829781    -55.131218      0.029520714    307.99028     -707.31701      3375         
      4570  -55.461757      0.32410564    -55.137652      0.029520714    278.59893     -1074.3783      3375         
      4580  -55.463745      0.31273245    -55.151012      0.029520714    268.82261      673.52902      3375         
      4590  -55.370167      0.24236023    -55.127807      0.029520714    208.33115      1720.7692      3375         
      4600  -55.483294      0.38923082    -55.094063      0.029520714    334.58008      45.648048      3375         
      4610  -55.338269      0.22816178    -55.110107      0.029520714    196.12626     -1491.2013      3375         
      4620  -55.323414      0.21278795    -55.110626      0.029520714    182.91103     -1020.6002      3375         
      4630  -55.488789      0.35482209    -55.133967      0.029520714    305.00258      256.9022       3375         
      4640  -55.38131       0.2834993     -55.09781       0.029520714    243.69401      1321.9643      3375         
      4650  -55.375265      0.32670282    -55.048562      0.029520714    280.83145      728.30146      3375         
      4660  -55.398363      0.33932272    -55.059041      0.029520714    291.67942     -821.77598      3375         
      4670  -55.401567      0.34523681    -55.056331      0.029520714    296.76313     -605.68028      3375         
      4680  -55.38669       0.33068526    -55.056005      0.029520714    284.25472      408.42603      3375         
      4690  -55.288246      0.25446033    -55.033786      0.029520714    218.73231      399.40773      3375         
      4700  -55.373687      0.3796351     -54.994052      0.029520714    326.33166     -274.63304      3375         
      4710  -55.384421      0.39296334    -54.991458      0.029520714    337.78852     -920.18032      3375         
      4720  -55.443132      0.4573111     -54.985821      0.029520714    393.1014      -379.83935      3375         
      4730  -55.444119      0.45642357    -54.987696      0.029520714    392.33849      1162.9058      3375         
      4740  -55.275094      0.33859905    -54.936495      0.029520714    291.05736      1262.65        3375         
      4750  -55.337438      0.43504179    -54.902396      0.029520714    373.95886     -234.13668      3375         
      4760  -55.284636      0.37217498    -54.912461      0.029520714    319.91899     -1327.463       3375         
      4770  -55.396849      0.48132679    -54.915522      0.029520714    413.74512     -1139.8726      3375         
      4780  -55.247507      0.33011265    -54.917394      0.029520714    283.76251      528.13639      3375         
      4790  -55.139937      0.275283      -54.864654      0.029520714    236.63133      1742.7966      3375         
      4800  -55.423879      0.55950805    -54.864371      0.029520714    480.94919      460.75432      3375         
      4810  -55.345691      0.48173877    -54.863952      0.029520714    414.09926     -1317.5054      3375         
      4820  -55.351505      0.4787953     -54.87271       0.029520714    411.56907     -970.21769      3375         
      4830  -55.189452      0.28758521    -54.901866      0.029520714    247.20622      235.01565      3375         
      4840  -55.055479      0.23984043    -54.815638      0.029520714    206.16515      855.85074      3375         
      4850  -55.325634      0.51158345    -54.81405       0.029520714    439.75353      280.1632       3375         
      4860  -55.317806      0.48331363    -54.834493      0.029520714    415.453       -676.4622       3375         
      4870  -55.385834      0.54573239    -54.840101      0.029520714    469.10773      29.756357      3375         
      4880  -55.284063      0.43290368    -54.851159      0.029520714    372.12096      1175.0494      3375         
      4890  -55.255132      0.45214533    -54.802987      0.029520714    388.66094      521.67364      3375         
      4900  -55.328376      0.50913866    -54.819238      0.029520714    437.65201     -1532.0175      3375         
      4910  -55.263235      0.42183647    -54.841398      0.029520714    362.60766     -2107.9052      3375         
      4920  -55.458826      0.57877996    -54.880046      0.029520714    497.51518      220.87044      3375         
      4930  -55.182956      0.282779      -54.900177      0.029520714    243.07484      2609.0659      3375         
      4940  -55.293037      0.42835038    -54.864686      0.029520714    368.20697      1502.8215      3375         
      4950  -55.395498      0.47768562    -54.917813      0.029520714    410.6152      -1054.7241      3375         
      4960  -55.239734      0.28284923    -54.956885      0.029520714    243.13521     -1794.4123      3375         
      4970  -55.407487      0.39966953    -55.007818      0.029520714    343.55312     -614.34719      3375         
      4980  -55.39264       0.38014942    -55.01249       0.029520714    326.77377      926.8697       3375         
      4990  -55.34053       0.31722303    -55.023306      0.029520714    272.68269      913.27302      3375         
      5000  -55.303109      0.24342068    -55.059688      0.029520714    209.2427      -521.31485      3375         
      5010  -55.376547      0.29735951    -55.079188      0.029520714    255.60814     -548.85306      3375         
      5020  -55.419531      0.29927724    -55.120254      0.029520714    257.25661      742.64292      3375         
      5030  -55.471338      0.35044746    -55.120891      0.029520714    301.24217      546.94426      3375         
      5040  -55.468875      0.37423805    -55.094637      0.029520714    321.6924      -307.9737       3375         
      5050  -55.339422      0.2048038     -55.134618      0.029520714    176.04791     -1016.4255      3375         
      5060  -55.466375      0.31270836    -55.153667      0.029520714    268.80191     -812.83743      3375         
      5070  -55.549081      0.3623073     -55.186773      0.029520714    311.4368       983.78991      3375         
      5080  -55.381805      0.21023648    -55.171569      0.029520714    180.7178       1539.7849      3375         
      5090  -55.483874      0.33991167    -55.143962      0.029520714    292.18568     -125.32862      3375         
      5100  -55.41193       0.2374726     -55.174457      0.029520714    204.12978     -1112.7612      3375         
      5110  -55.425665      0.2389737     -55.186691      0.029520714    205.42011     -761.73636      3375         
      5120  -55.587988      0.37327791    -55.21471       0.029520714    320.86706      50.829822      3375         
      5130  -55.423622      0.24202237    -55.1816        0.029520714    208.04073      1008.419       3375         
      5140  -55.389946      0.22155285    -55.168393      0.029520714    190.44527      522.52015      3375         
      5150  -55.345044      0.1587413     -55.186303      0.029520714    136.4529      -906.10492      3375         
      5160  -55.503283      0.30904028    -55.194242      0.029520714    265.64885     -415.35494      3375         
      5170  -55.533242      0.32254203    -55.2107        0.029520714    277.25486      615.55828      3375         
      5180  -55.33297       0.17127535    -55.161695      0.029520714    147.22708      514.54294      3375         
      5190  -55.382268      0.23850659    -55.143761      0.029520714    205.01859      67.606845      3375         
      5200  -55.450764      0.29324606    -55.157518      0.029520714    252.07225     -1085.4145      3375         
      5210  -55.54816       0.39157948    -55.156581      0.029520714    336.59897     -883.79248      3375         
      5220  -55.459753      0.31234835    -55.147404      0.029520714    268.49244      1287.0498      3375         
      5230  -55.383476      0.28842714    -55.095048      0.029520714    247.92994      1578.6903      3375         
      5240  -55.399389      0.31995248    -55.079437      0.029520714    275.0289      -591.7952       3375         
      5250  -55.338299      0.26019218    -55.078107      0.029520714    223.65936     -1624.2283      3375         
      5260  -55.544779      0.46296266    -55.081816      0.029520714    397.95944     -802.38608      3375         
      5270  -55.444168      0.3777415     -55.066426      0.029520714    324.70393      694.06219      3375         
      5280  -55.30704       0.33744291    -54.969597      0.029520714    290.06355      1860.6419      3375         
      5290  -55.406356      0.43257091    -54.973785      0.029520714    371.83491      248.44449      3375         
      5300  -55.202711      0.2270033     -54.975708      0.029520714    195.13044     -1629.886       3375         
      5310  -55.358919      0.3893908     -54.969528      0.029520714    334.71759     -384.57849      3375         
      5320  -55.315993      0.34505192    -54.970941      0.029520714    296.6042       1022.6488      3375         
      5330  -55.262499      0.35966959    -54.902829      0.029520714    309.16945      317.22564      3375         
      5340  -55.31547       0.4210835     -54.894386      0.029520714    361.96042     -953.94776      3375         
      5350  -55.285835      0.38881284    -54.897022      0.029520714    334.22078     -1227.8934      3375         
      5360  -55.389205      0.47714982    -54.912055      0.029520714    410.15463      719.63562      3375         
      5370  -55.221017      0.32708037    -54.893937      0.029520714    281.15599      2325.109       3375         
      5380  -55.310721      0.47439451    -54.836327      0.029520714    407.78618      712.15302      3375         
      5390  -55.273289      0.42387633    -54.849413      0.029520714    364.36111     -1867.0132      3375         
      5400  -55.277129      0.415251      -54.861878      0.029520714    356.94684     -2063.5047      3375         
      5410  -55.462472      0.58009206    -54.88238       0.029520714    498.64305      72.332695      3375         
      5420  -55.33017       0.4506704     -54.8795        0.029520714    387.39311      1823.395       3375         
      5430  -55.337966      0.48983033    -54.848135      0.029520714    421.0547       1304.1496      3375         
      5440  -55.231711      0.35009085    -54.88162       0.029520714    300.93563     -1014.7099      3375         
      5450  -55.21811       0.3211342     -54.896976      0.029520714    276.0447      -1203.7094      3375         
      5460  -55.486797      0.54777874    -54.939019      0.029520714    470.86675      319.21507      3375         
      5470  -55.281323      0.37587454    -54.905448      0.029520714    323.09911      607.42861      3375         
      5480  -55.237578      0.35737989    -54.880198      0.029520714    307.20124      112.58024      3375         
      5490  -55.163564      0.23667771    -54.926886      0.029520714    203.44649     -598.63246      3375         
      5500  -55.323015      0.39162716    -54.931388      0.029520714    336.63995     -344.21931      3375         
      5510  -55.536858      0.56157568    -54.975282      0.029520714    482.72651      939.42057      3375         
      5520  -55.341775      0.40457791    -54.937197      0.029520714    347.77232      951.64658      3375         
      5530  -55.225535      0.295412      -54.930123      0.029520714    253.93407     -646.54898      3375         
      5540  -55.171502      0.21188055    -54.959622      0.029520714    182.13103     -1500.7406      3375         
      5550  -55.459251      0.48876317    -54.970488      0.029520714    420.13738     -529.57778      3375         
      5560  -55.519648      0.51642485    -55.003223      0.029520714    443.91517      1100.6074      3375         
      5570  -55.37315       0.39856623    -54.974584      0.029520714    342.60473      1439.5572      3375         
      5580  -55.334756      0.36846153    -54.966295      0.029520714    316.72694      60.096708      3375         
      5590  -55.228672      0.2337822     -54.99489       0.029520714    200.95753     -1202.3618      3375         
      5600  -55.444952      0.43037586    -55.014576      0.029520714    369.94806     -950.2021       3375         
      5610  -55.42703       0.39659528    -55.030434      0.029520714    340.91051      274.54147      3375         
      5620  -55.303965      0.30707337    -54.996891      0.029520714    263.95811      1184.847       3375         
      5630  -55.380031      0.37185862    -55.008172      0.029520714    319.64706      222.03367      3375         
      5640  -55.25404       0.2287317     -55.025309      0.029520714    196.61616     -1157.5431      3375         
      5650  -55.352296      0.30994056    -55.042355      0.029520714    266.42272     -143.95177      3375         
      5660  -55.486581      0.43488121    -55.0517        0.029520714    373.82083      1025.0918      3375         
      5670  -55.361545      0.35762777    -55.003917      0.029520714    307.41432      413.81697      3375         
      5680  -55.253278      0.22585178    -55.027426      0.029520714    194.1406      -548.33979      3375         
      5690  -55.342688      0.30283523    -55.039852      0.029520714    260.31503     -1082.9548      3375         
      5700  -55.483279      0.41594079    -55.067338      0.029520714    357.53978     -432.4014       3375         
      5710  -55.386686      0.34432491    -55.042361      0.029520714    295.97927      1455.4414      3375         
      5720  -55.438905      0.42620908    -55.012696      0.029520714    366.36633      1211.3708      3375         
      5730  -55.344029      0.31098997    -55.033039      0.029520714    267.32479     -954.08542      3375         
      5740  -55.330052      0.28513806    -55.044914      0.029520714    245.10267     -984.17369      3375         
      5750  -55.47757       0.41058296    -55.066987      0.029520714    352.93422      117.64488      3375         
      5760  -55.396508      0.3402754     -55.056233      0.029520714    292.49834      342.7707       3375         
      5770  -55.49973       0.47325311    -55.026477      0.029520714    406.80504      308.75632      3375         
      5780  -55.338444      0.28852126    -55.049922      0.029520714    248.01085     -699.30158      3375         
      5790  -55.23139       0.16763456    -55.063756      0.029520714    144.09749     -661.08816      3375         
      5800  -55.425711      0.35335508    -55.072356      0.029520714    303.74154      1378.9198      3375         
      5810  -55.479559      0.43033904    -55.04922       0.029520714    369.91641      1450.1329      3375         
      5820  -55.402282      0.36575025    -55.036532      0.029520714    314.39634     -835.95387      3375         
      5830  -55.307024      0.25180173    -55.055222      0.029520714    216.447       -1601.3844      3375         
      5840  -55.324825      0.25759223    -55.067233      0.029520714    221.42447     -797.26219      3375         
      5850  -55.334492      0.25921244    -55.07528       0.029520714    222.81719      677.98396      3375         
      5860  -55.488869      0.45700657    -55.031862      0.029520714    392.83963      1826.6405      3375         
      5870  -55.496515      0.46674494    -55.02977       0.029520714    401.21067      256.55305      3375         
      5880  -55.266845      0.22857104    -55.038274      0.029520714    196.47805     -1476.1041      3375         
      5890  -55.406992      0.35306086    -55.053931      0.029520714    303.48863     -402.23587      3375         
      5900  -55.393185      0.33406062    -55.059124      0.029520714    287.15616      518.04829      3375         
      5910  -55.386172      0.41335064    -54.972821      0.029520714    355.3133       299.84353      3375         
      5920  -55.527787      0.55018683    -54.9776        0.029520714    472.93672     -88.997686      3375         
      5930  -55.294779      0.31164275    -54.983136      0.029520714    267.88591     -672.29355      3375         
      5940  -55.290809      0.30335183    -54.987457      0.029520714    260.7591       296.47548      3375         
      5950  -55.331001      0.34520814    -54.985793      0.029520714    296.73849      1298.1427      3375         
      5960  -55.357498      0.43298631    -54.924512      0.029520714    372.19198     -6.6571121      3375         
      5970  -55.340392      0.43105821    -54.909334      0.029520714    370.5346      -1598.8003      3375         
      5980  -55.254291      0.34148442    -54.912807      0.029520714    293.53761     -1147.3147      3375         
      5990  -55.308267      0.38743238    -54.920835      0.029520714    333.03414      728.20539      3375         
      6000  -55.228063      0.32495554    -54.903108      0.029520714    279.32949      2013.5124      3375         
      6010  -55.338199      0.50116624    -54.837033      0.029520714    430.79897      1124.2461      3375         
      6020  -55.240902      0.39617718    -54.844725      0.029520714    340.55112     -1456.6705      3375         
      6030  -55.243704      0.39955635    -54.844147      0.029520714    343.45582     -1982.0631      3375         
      6040  -55.391241      0.53527183    -54.85597       0.029520714    460.1159      -103.56806      3375         
      6050  -55.231229      0.41034871    -54.82088       0.029520714    352.73286      1242.8054      3375         
      6060  -55.372731      0.58791928    -54.784812      0.029520714    505.37127      1124.3666      3375         
      6070  -55.333713      0.52448099    -54.809232      0.029520714    450.84017     -554.67509      3375         
      6080  -55.235941      0.41547957    -54.820461      0.029520714    357.14332     -994.31675      3375         
      6090  -55.319765      0.45405585    -54.865709      0.029520714    390.30321      486.1698       3375         
      6100  -55.208935      0.39587712    -54.813058      0.029520714    340.29319      814.03136      3375         
      6110  -55.34715       0.54279993    -54.80435       0.029520714    466.587       -324.19581      3375         
      6120  -55.305338      0.44433545    -54.861003      0.029520714    381.94762     -1159.8262      3375         
      6130  -55.267158      0.38818459    -54.878974      0.029520714    333.68074     -520.37669      3375         
      6140  -55.192199      0.26965794    -54.922541      0.029520714    231.79607      967.96988      3375         
      6150  -55.169004      0.27226706    -54.896737      0.029520714    234.03885      1761.2774      3375         
      6160  -55.423386      0.53219456    -54.891191      0.029520714    457.4707       48.64618       3375         
      6170  -55.352307      0.40589383    -54.946413      0.029520714    348.90348     -1921.454       3375         
      6180  -55.304467      0.33694954    -54.967518      0.029520714    289.63946     -1146.5314      3375         
      6190  -55.344099      0.31924418    -55.024855      0.029520714    274.42005      665.828        3375         
      6200  -55.31463       0.32069644    -54.993934      0.029520714    275.6684       1581.0714      3375         
      6210  -55.481865      0.48788744    -54.993978      0.029520714    419.38461      524.22056      3375         
      6220  -55.350708      0.30542952    -55.045279      0.029520714    262.54507     -1399.9964      3375         
      6230  -55.508801      0.42876804    -55.080033      0.029520714    368.56599     -840.84719      3375         
      6240  -55.421561      0.30303941    -55.118521      0.029520714    260.49054      970.75162      3375         
      6250  -55.292013      0.21883131    -55.073182      0.029520714    188.10585      1126.1837      3375         
      6260  -55.551046      0.45099524    -55.100051      0.029520714    387.67234     -355.87599      3375         
      6270  -55.363737      0.23470776    -55.12903       0.029520714    201.75314     -1677.0933      3375         
      6280  -55.438124      0.28504409    -55.15308       0.029520714    245.0219      -485.02579      3375         
      6290  -55.458863      0.28179118    -55.177072      0.029520714    242.22572      1651.3043      3375         
      6300  -55.419097      0.29463881    -55.124458      0.029520714    253.26945      1175.5831      3375         
      6310  -55.421774      0.28569405    -55.13608       0.029520714    245.58059     -757.34794      3375         
      6320  -55.334622      0.17625475    -55.158367      0.029520714    151.50734     -1367.101       3375         
      6330  -55.470061      0.28890253    -55.181159      0.029520714    248.33858     -417.33544      3375         
      6340  -55.4371        0.25530952    -55.181791      0.029520714    219.46226      1043.7092      3375         
      6350  -55.442671      0.31843351    -55.124237      0.029520714    273.72321      1389.4847      3375         
      6360  -55.446801      0.30792192    -55.138879      0.029520714    264.68751     -578.56048      3375         
[...]
     48420  -55.511144      0.4278534     -55.083291      0.029520714    367.77977     -250.98779      3375         
     48430  -55.432661      0.35895355    -55.073708      0.029520714    308.55395      371.14908      3375         
     48440  -55.378334      0.31353172    -55.064802      0.029520714    269.50966     -119.37021      3375         
     48450  -55.376473      0.32670197    -55.049771      0.029520714    280.83071     -678.01871      3375         
     48460  -55.35327       0.30620581    -55.047064      0.029520714    263.21236      42.069056      3375         
     48470  -55.345115      0.29769104    -55.047424      0.029520714    255.89313      289.86345      3375         
     48480  -55.303799      0.26481389    -55.038985      0.029520714    227.63216      403.8727       3375         
     48490  -55.354607      0.32185566    -55.032751      0.029520714    276.66486      506.13759      3375         
     48500  -55.338035      0.31044808    -55.027586      0.029520714    266.85898     -608.81122      3375         
     48510  -55.290766      0.28215999    -55.008606      0.029520714    242.54275     -821.3301       3375         
     48520  -55.412167      0.41399356    -54.998173      0.029520714    355.86595      392.72814      3375         
     48530  -55.477484      0.48636617    -54.991118      0.029520714    418.07694      358.85954      3375         
     48540  -55.288722      0.30980928    -54.978912      0.029520714    266.30988      10.151871      3375         
     48550  -55.223973      0.24620238    -54.97777       0.029520714    211.63383      318.12026      3375         
     48560  -55.433483      0.45211291    -54.98137       0.029520714    388.63308     -234.38561      3375         
     48570  -55.539435      0.57646568    -54.962969      0.029520714    495.52584     -367.66789      3375         
     48580  -55.373562      0.42079811    -54.952764      0.029520714    361.71509      156.18092      3375         
     48590  -55.187419      0.23176344    -54.955656      0.029520714    199.22222     -397.95726      3375         
     48600  -55.314341      0.35938163    -54.954959      0.029520714    308.92192     -124.28503      3375         
     48610  -55.511295      0.55152439    -54.95977       0.029520714    474.08649      936.94854      3375         
     48620  -55.399371      0.42724768    -54.972123      0.029520714    367.2591       110.0971       3375         
     48630  -55.160447      0.20641298    -54.954034      0.029520714    177.43115     -476.80008      3375         
     48640  -55.249763      0.29982666    -54.949936      0.029520714    257.72889      105.47402      3375         
     48650  -55.383966      0.42360761    -54.960359      0.029520714    364.13012     -336.10925      3375         
     48660  -55.347541      0.38361531    -54.963926      0.029520714    329.75302     -253.41076      3375         
     48670  -55.266406      0.29802781    -54.968378      0.029520714    256.18261      645.04689      3375         
     48680  -55.336484      0.3632392     -54.973245      0.029520714    312.23786     -77.428442      3375         
     48690  -55.370184      0.40438312    -54.9658        0.029520714    347.60488     -241.70072      3375         
     48700  -55.336201      0.36411518    -54.972086      0.029520714    312.99085      381.54335      3375         
     48710  -55.405527      0.42023696    -54.98529       0.029520714    361.23273     -197.68881      3375         
     48720  -55.40977       0.4232633     -54.986506      0.029520714    363.83415     -212.71069      3375         
     48730  -55.351652      0.3459311     -55.005721      0.029520714    297.35994      428.0956       3375         
     48740  -55.370437      0.33681521    -55.033622      0.029520714    289.52398     -188.32523      3375         
     48750  -55.469146      0.40930394    -55.059842      0.029520714    351.83478     -431.67496      3375         
     48760  -55.494151      0.40618732    -55.087964      0.029520714    349.15576      230.99127      3375         
     48770  -55.431111      0.31114535    -55.119965      0.029520714    267.45835      123.56578      3375         
     48780  -55.283661      0.14828512    -55.135376      0.029520714    127.46485      172.71346      3375         
     48790  -55.442637      0.28480056    -55.157836      0.029520714    244.81255      212.8694       3375         
     48800  -55.57914       0.38548507    -55.193654      0.029520714    331.36026     -513.87225      3375         
     48810  -55.403038      0.19504564    -55.207992      0.029520714    167.65986     -358.32577      3375         
     48820  -55.330785      0.12412605    -55.206659      0.029520714    106.69788      544.7919       3375         
     48830  -55.469338      0.25274247    -55.216595      0.029520714    217.25565      101.51532      3375         
     48840  -55.53591       0.3118962     -55.224014      0.029520714    268.10378     -360.53375      3375         
     48850  -55.453574      0.21842853    -55.235146      0.029520714    187.75963      202.17496      3375         
     48860  -55.46495       0.2175058     -55.247444      0.029520714    186.96645      228.22085      3375         
     48870  -55.480577      0.23694807    -55.243629      0.029520714    203.67889     -40.919775      3375         
     48880  -55.520998      0.28151494    -55.239483      0.029520714    241.98826     -186.71783      3375         
     48890  -55.5002        0.25326365    -55.246937      0.029520714    217.70365     -470.84208      3375         
     48900  -55.502857      0.25752286    -55.245334      0.029520714    221.36484     -87.548437      3375         
     48910  -55.539848      0.30008012    -55.239768      0.029520714    257.94676      869.9103       3375         
     48920  -55.521099      0.28045913    -55.24064       0.029520714    241.0807       518.13876      3375         
     48930  -55.423702      0.19005437    -55.233648      0.029520714    163.36939     -704.74655      3375         
     48940  -55.467421      0.23834468    -55.229076      0.029520714    204.87941     -723.0147       3375         
     48950  -55.516417      0.28697652    -55.22944       0.029520714    246.683        102.02809      3375         
     48960  -55.417267      0.20793853    -55.209328      0.029520714    178.7425       430.14325      3375         
     48970  -55.423549      0.23438167    -55.189167      0.029520714    201.47284      416.54553      3375         
     48980  -55.456814      0.26977088    -55.187043      0.029520714    231.89315      6.1945093      3375         
     48990  -55.452688      0.27738378    -55.175304      0.029520714    238.43714     -460.94872      3375         
     49000  -55.39739       0.23915749    -55.158233      0.029520714    205.5781       36.882082      3375         
     49010  -55.339466      0.19472734    -55.144739      0.029520714    167.38625      211.73173      3375         
     49020  -55.409381      0.29547866    -55.113903      0.029520714    253.99137     -467.77054      3375         
     49030  -55.518335      0.43354416    -55.08479       0.029520714    372.67151     -168.13376      3375         
     49040  -55.378458      0.30534625    -55.073112      0.029520714    262.47348      636.69844      3375         
     49050  -55.346923      0.28221393    -55.064709      0.029520714    242.58911      310.24444      3375         
     49060  -55.526979      0.49578213    -55.031197      0.029520714    426.17083     -1.2263399      3375         
     49070  -55.447944      0.44133275    -55.006611      0.029520714    379.36653     -165.92546      3375         
     49080  -55.21172       0.21639015    -54.99533       0.029520714    186.00745     -794.90076      3375         
     49090  -55.324681      0.33416136    -54.990519      0.029520714    287.24275     -222.89721      3375         
     49100  -55.509046      0.52427966    -54.984767      0.029520714    450.66711      653.54506      3375         
     49110  -55.374336      0.40534038    -54.968996      0.029520714    348.42774      280.87227      3375         
     49120  -55.302218      0.34894583    -54.953272      0.029520714    299.95138      143.11863      3375         
     49130  -55.195267      0.23647021    -54.958797      0.029520714    203.26813      1.7476577      3375         
     49140  -55.3222        0.36262005    -54.95958       0.029520714    311.70564     -727.19699      3375         
     49150  -55.401021      0.45955704    -54.941464      0.029520714    395.032       -150.1717       3375         
     49160  -55.322508      0.38931016    -54.933198      0.029520714    334.64827      648.30241      3375         
     49170  -55.211421      0.28213076    -54.92929       0.029520714    242.51762      97.678111      3375         
     49180  -55.376178      0.44583862    -54.930339      0.029520714    383.23974     -110.89141      3375         
     49190  -55.350187      0.41126567    -54.938921      0.029520714    353.52107     -146.74043      3375         
     49200  -55.293766      0.35706431    -54.936702      0.029520714    306.92997     -319.71691      3375         
     49210  -55.435836      0.52530987    -54.910526      0.029520714    451.55267      489.1611       3375         
     49220  -55.422215      0.50051782    -54.921697      0.029520714    430.24159      390.79447      3375         
     49230  -55.199864      0.26637447    -54.93349       0.029520714    228.97362     -894.11687      3375         
     49240  -55.311434      0.3678782     -54.943556      0.029520714    316.22552     -329.93962      3375         
     49250  -55.549129      0.58818941    -54.960939      0.029520714    505.60348      886.03802      3375         
     49260  -55.335888      0.38706559    -54.948823      0.029520714    332.71885      402.77998      3375         
     49270  -55.266588      0.31307253    -54.953515      0.029520714    269.11495     -310.55638      3375         
     49280  -55.219232      0.24322585    -54.976006      0.029520714    209.07523     -632.79002      3375         
     49290  -55.442499      0.44829406    -54.994205      0.029520714    385.35042     -510.75923      3375         
     49300  -55.452759      0.44324215    -55.009516      0.029520714    381.00783      907.01059      3375         
     49310  -55.25053       0.23162798    -55.018902      0.029520714    199.10579      866.24512      3375         
     49320  -55.190742      0.16771314    -55.023029      0.029520714    144.16504     -865.37243      3375         
     49330  -55.406197      0.37131381    -55.034884      0.029520714    319.17874     -699.19818      3375         
     49340  -55.503398      0.44082545    -55.062572      0.029520714    378.93045      495.08195      3375         
     49350  -55.383278      0.29670643    -55.086571      0.029520714    255.04676      407.45878      3375         
     49360  -55.391991      0.29685702    -55.095134      0.029520714    255.17621      228.71204      3375         
     49370  -55.442988      0.32533721    -55.11765       0.029520714    279.65758     -310.13337      3375         
     49380  -55.460326      0.31537288    -55.144953      0.029520714    271.09231     -792.21368      3375         
     49390  -55.437536      0.26622156    -55.171315      0.029520714    228.84218      250.75821      3375         
     49400  -55.526097      0.32727031    -55.198827      0.029520714    281.31925      709.25026      3375         
     49410  -55.490861      0.28355245    -55.207308      0.029520714    243.73969     -115.70732      3375         
     49420  -55.50818       0.28175617    -55.226423      0.029520714    242.19562     -186.01089      3375         
     49430  -55.453322      0.19936265    -55.253959      0.029520714    171.37073     -43.61105       3375         
     49440  -55.520864      0.24322854    -55.277635      0.029520714    209.07754     -292.40497      3375         
     49450  -55.479098      0.20474023    -55.274358      0.029520714    175.99326      178.87026      3375         
     49460  -55.434117      0.16374477    -55.270372      0.029520714    140.75385      259.11342      3375         
     49470  -55.463259      0.18497634    -55.278282      0.029520714    159.00436     -221.75393      3375         
     49480  -55.534979      0.24780349    -55.287175      0.029520714    213.01014      119.07728      3375         
     49490  -55.555348      0.25538351    -55.299965      0.029520714    219.52587      191.25667      3375         
     49500  -55.428877      0.13957299    -55.289304      0.029520714    119.97596     -270.75522      3375         
     49510  -55.474364      0.20603117    -55.268332      0.029520714    177.10294      43.730513      3375         
     49520  -55.54445       0.26882756    -55.275623      0.029520714    231.08228      26.50926       3375         
     49530  -55.542458      0.26401463    -55.278444      0.029520714    226.94512     -443.17014      3375         
     49540  -55.439746      0.16467212    -55.275074      0.029520714    141.551        247.32778      3375         
     49550  -55.553174      0.29032323    -55.262851      0.029520714    249.5598       631.86598      3375         
     49560  -55.589473      0.34650687    -55.242966      0.029520714    297.85487     -41.439099      3375         
     49570  -55.482316      0.24500489    -55.237311      0.029520714    210.60448     -498.6807       3375         
     49580  -55.4028        0.15976268    -55.243037      0.029520714    137.33087     -497.61035      3375         
     49590  -55.474544      0.23433555    -55.240209      0.029520714    201.43319     -31.510259      3375         
     49600  -55.463459      0.25268854    -55.210771      0.029520714    217.20929      945.68914      3375         
     49610  -55.456528      0.24897627    -55.207552      0.029520714    214.01825      563.35711      3375         
     49620  -55.454007      0.24811136    -55.205896      0.029520714    213.27478     -883.95873      3375         
     49630  -55.429479      0.23017725    -55.199302      0.029520714    197.85874     -659.8566       3375         
     49640  -55.448387      0.2576047     -55.190782      0.029520714    221.43519      384.1959       3375         
     49650  -55.382929      0.20786841    -55.175061      0.029520714    178.68222      474.26944      3375         
     49660  -55.438727      0.28032309    -55.158404      0.029520714    240.96375      71.333099      3375         
     49670  -55.424029      0.26772342    -55.156305      0.029520714    230.13317     -339.74688      3375         
     49680  -55.481911      0.32677326    -55.155138      0.029520714    280.89199     -374.46146      3375         
     49690  -55.388997      0.247955      -55.141042      0.029520714    213.14037      553.43475      3375         
     49700  -55.476635      0.35426158    -55.122373      0.029520714    304.52077      673.82844      3375         
     49710  -55.535299      0.43051107    -55.104788      0.029520714    370.06429     -735.31393      3375         
     49720  -55.360854      0.26273785    -55.098116      0.029520714    225.84761     -1040.3376      3375         
     49730  -55.346748      0.24534057    -55.101408      0.029520714    210.89302      377.89732      3375         
     49740  -55.456885      0.34843831    -55.108447      0.029520714    299.51512      1054.0151      3375         
     49750  -55.517408      0.451264      -55.066144      0.029520714    387.90336      261.02379      3375         
     49760  -55.36072       0.30854516    -55.052174      0.029520714    265.22325     -445.02593      3375         
     49770  -55.258529      0.19807796    -55.060451      0.029520714    170.26642     -738.36455      3375         
     49780  -55.318731      0.25878123    -55.059949      0.029520714    222.44652     -39.829769      3375         
     49790  -55.554162      0.50407977    -55.050082      0.029520714    433.30342      753.37524      3375         
     49800  -55.339374      0.3127702     -55.026604      0.029520714    268.85507      91.785954      3375         
     49810  -55.231927      0.22008005    -55.011847      0.029520714    189.17926     -503.06617      3375         
     49820  -55.337058      0.32175012    -55.015308      0.029520714    276.57414      31.820216      3375         
     49830  -55.472611      0.45165797    -55.020953      0.029520714    388.24201      71.579501      3375         
     49840  -55.309456      0.31736347    -54.992093      0.029520714    272.80341      13.936061      3375         
     49850  -55.322717      0.35537351    -54.967344      0.029520714    305.47657      393.51972      3375         
     49860  -55.414049      0.44753018    -54.966519      0.029520714    384.6938      -176.87518      3375         
     49870  -55.327024      0.36586514    -54.961158      0.029520714    314.4951      -563.63976      3375         
     49880  -55.386477      0.4236048     -54.962872      0.029520714    364.12771      122.20354      3375         
     49890  -55.371112      0.4115298     -54.959582      0.029520714    353.74812      244.89322      3375         
     49900  -55.37093       0.45363525    -54.917295      0.029520714    389.94167      169.9445       3375         
     49910  -55.310528      0.38295652    -54.927571      0.029520714    329.18673      371.75616      3375         
     49920  -55.324565      0.38598768    -54.938577      0.029520714    331.7923      -603.96328      3375         
     49930  -55.325686      0.38041605    -54.94527       0.029520714    327.00296     -707.5143       3375         
     49940  -55.410445      0.4799732     -54.930472      0.029520714    412.58159      744.80679      3375         
     49950  -55.26704       0.34863524    -54.918404      0.029520714    299.6844       676.37246      3375         
     49960  -55.156976      0.23986223    -54.917114      0.029520714    206.18389     -612.65517      3375         
     49970  -55.343146      0.41555162    -54.927595      0.029520714    357.20525     -414.72888      3375         
     49980  -55.480429      0.53876318    -54.941666      0.029520714    463.11704      88.433529      3375         
     49990  -55.234578      0.30224241    -54.932336      0.029520714    259.80545      472.11997      3375         
     50000  -55.148515      0.22236825    -54.926147      0.029520714    191.14618      640.44323      3375         
Loop time of 81.9199 on 3 procs for 50000 steps with 10 atoms

Performance: 26.367 ns/day, 0.910 hours/ns, 610.352 timesteps/s, 6.104 katom-step/s
168.6% CPU use with 3 MPI tasks x no OpenMP threads

MPI task timing breakdown:
Section |  min time  |  avg time  |  max time  |%varavg| %total
---------------------------------------------------------------
Pair    | 26.988     | 44.211     | 78.144     | 360.9 | 53.97
Neigh   | 0.00039959 | 0.00052394 | 0.00073211 |   0.0 |  0.00
Comm    | 1.1073     | 34.962     | 52.178     | 404.9 | 42.68
Output  | 0.50622    | 0.51903    | 0.54046    |   2.1 |  0.63
Modify  | 1.9032     | 1.9871     | 2.0902     |   5.5 |  2.43
Other   |            | 0.2407     |            |       |  0.29

Nlocal:        3.33333 ave          10 max           0 min
Histogram: 2 0 0 0 0 0 0 0 0 1
Nghost:             70 ave          89 max          41 min
Histogram: 1 0 0 0 0 0 0 0 1 1
Neighs:              0 ave           0 max           0 min
Histogram: 3 0 0 0 0 0 0 0 0 0
FullNghs:           30 ave          90 max           0 min
Histogram: 2 0 0 0 0 0 0 0 0 1

Total # of neighbors = 90
Ave neighs/atom = 9
Neighbor list builds = 78
Dangerous builds = 0

write_data	restart.data
System init for write_data ...
Generated 0 of 1 mixed pair_coeff terms from geometric mixing rule
#
Total wall time: 0:01:23
