LAMMPS data file via write_data, version 2 Aug 2023, timestep = 50000, units = metal

10 atoms
2 atom types

0 15 xlo xhi
0 15 ylo yhi
0 15 zlo zhi

Masses

1 12
2 2

Atoms # atomic

10 2 8.649531942868524 7.4737673943922305 9.181043755853185 0 0 0
4 1 7.928097932782731 7.97397401115043 8.536479053595587 0 0 0
7 2 6.359125977803415 6.506154214624953 5.984065119462208 0 0 0
8 2 6.035817657221563 6.68683569365611 8.830887284742058 0 0 0
9 2 7.823756179770807 9.101181466636682 8.633122135673702 0 0 0
1 1 8.236748263830885 7.7922436521295975 6.548781430294766 0 0 0
3 1 6.753557980974293 7.103791104079358 8.123062219352576 0 0 0
2 1 6.8870330179178945 7.056652957687437 6.777590714445573 0 0 0
6 2 9.127792784593309 7.172571134370608 6.335114956315396 0 0 0
5 2 8.295352285399165 8.719519747502055 6.009286240342864 0 0 0

Velocities

10 1.5867367568485509 20.454986087211857 -1.5203435740602917
4 4.235843861983553 1.0951781699415197 5.434179938456906
7 -13.619244762508709 11.443672202728346 -3.5113849781091138
8 13.919639461065051 -7.281548623170692 -3.992322291228305
9 -16.78094996622745 -9.758814838756045 24.364285132652764
1 0.9985196616161088 0.23794996894167403 -7.807635043197997
3 -0.4668174945930077 3.9596576090913294 -2.996356965306262
2 -2.341696623119897 -3.8391469717128133 3.045886242114963
6 -6.645415693978128 -15.804210459699599 1.8495676060357826
5 6.9841377694800455 -7.775917025882551 -3.2462469276966983
