ITEM: TIMESTEP
0
ITEM: NUMBER OF ATOMS
10
ITEM: BOX BOUNDS pp pp pp
0.0000000000000000e+00 1.5000000000000000e+01
0.0000000000000000e+00 1.5000000000000000e+01
0.0000000000000000e+00 1.5000000000000000e+01
ITEM: ATOMS id type x y z
10 2 7.80745 5.1518 8.17856
4 1 7.50721 6.23533 8.11388
7 2 6.54612 8.79528 6.25192
8 2 7.47336 6.09062 6.04045
9 2 7.31537 6.68334 9.06668
1 1 7.907 8.83878 7.86049
3 1 7.2885 6.72056 6.92143
2 1 7.24158 8.21403 6.92028
6 2 8.65684 8.47614 8.49587
5 2 7.65912 9.97058 7.95907
ITEM: TIMESTEP
100
ITEM: NUMBER OF ATOMS
10
ITEM: BOX BOUNDS pp pp pp
0.0000000000000000e+00 1.5000000000000000e+01
0.0000000000000000e+00 1.5000000000000000e+01
0.0000000000000000e+00 1.5000000000000000e+01
ITEM: ATOMS id type x y z
10 2 7.56467 5.1212 8.06431
4 1 7.47372 6.2245 8.06109
7 2 6.99518 8.8689 6.11008
8 2 7.60247 6.07399 6.01876
9 2 7.14922 6.73965 8.95955
1 1 7.73067 8.81473 8.00865
3 1 7.38792 6.75529 6.86141
2 1 7.42716 8.23813 6.86246
6 2 8.32948 8.40281 8.84404
5 2 7.36615 9.81756 8.1306
ITEM: TIMESTEP
200
ITEM: NUMBER OF ATOMS
10
ITEM: BOX BOUNDS pp pp pp
0.0000000000000000e+00 1.5000000000000000e+01
0.0000000000000000e+00 1.5000000000000000e+01
0.0000000000000000e+00 1.5000000000000000e+01
ITEM: ATOMS id type x y z
10 2 7.57568 5.20101 8.17525
4 1 7.30373 6.23995 8.03166
7 2 6.95589 8.93072 6.09836
8 2 8.25404 6.29862 6.13326
9 2 6.57135 6.57139 8.76528
1 1 7.72374 8.74629 8.07998
3 1 7.5823 6.80306 6.81499
2 1 7.40901 8.24513 6.84086
6 2 8.31752 8.24641 8.82342
5 2 7.33688 9.76532 8.2885
ITEM: TIMESTEP
300
ITEM: NUMBER OF ATOMS
10
ITEM: BOX BOUNDS pp pp pp
0.0000000000000000e+00 1.5000000000000000e+01
0.0000000000000000e+00 1.5000000000000000e+01
0.0000000000000000e+00 1.5000000000000000e+01
ITEM: ATOMS id type x y z
10 2 7.4806 5.1258 8.00134
4 1 7.27119 6.22768 7.95943
7 2 7.42504 8.92398 6.02665
8 2 8.1928 6.29592 6.04273
9 2 6.71029 6.66198 8.78999
1 1 7.56057 8.70648 8.13256
3 1 7.64131 6.84652 6.82058
2 1 7.57007 8.26116 6.87323
6 2 7.83325 8.21988 9.09009
5 2 7.22317 9.74134 8.22339
ITEM: TIMESTEP
400
ITEM: NUMBER OF ATOMS
10
ITEM: BOX BOUNDS pp pp pp
0.0000000000000000e+00 1.5000000000000000e+01
0.0000000000000000e+00 1.5000000000000000e+01
0.0000000000000000e+00 1.5000000000000000e+01
ITEM: ATOMS id type x y z
10 2 7.34349 5.16626 7.97859
4 1 7.16649 6.21578 7.82643
7 2 7.53581 8.92637 6.10703
8 2 8.48321 6.33294 6.143
9 2 6.54064 6.67867 8.60201
1 1 7.47137 8.73176 8.18901
3 1 7.81001 6.85029 6.81219
2 1 7.63373 8.22144 6.94568
6 2 7.55787 8.2497 9.15336
5 2 7.17344 9.75045 8.26518
ITEM: TIMESTEP
500
ITEM: NUMBER OF ATOMS
10
ITEM: BOX BOUNDS pp pp pp
0.0000000000000000e+00 1.5000000000000000e+01
0.0000000000000000e+00 1.5000000000000000e+01
0.0000000000000000e+00 1.5000000000000000e+01
ITEM: ATOMS id type x y z
10 2 7.2407 5.17551 8.02646
4 1 7.09109 6.21383 7.65332
7 2 7.6657 8.93617 6.1307
8 2 8.86106 6.42827 6.55105
9 2 6.27486 6.68562 8.15759
1 1 7.3891 8.68055 8.20981
3 1 7.91845 6.87112 6.89738
2 1 7.69455 8.26393 6.99538
6 2 7.43214 8.05313 9.11059
5 2 7.09042 9.76474 8.37724
ITEM: TIMESTEP
600
ITEM: NUMBER OF ATOMS
10
ITEM: BOX BOUNDS pp pp pp
0.0000000000000000e+00 1.5000000000000000e+01
0.0000000000000000e+00 1.5000000000000000e+01
0.0000000000000000e+00 1.5000000000000000e+01
ITEM: ATOMS id type x y z
10 2 7.08364 5.08082 7.737
4 1 7.04325 6.15037 7.57765
7 2 8.27829 9.10436 6.40946
8 2 8.81628 6.41417 6.44546
9 2 6.24283 6.58265 8.20236
1 1 7.18916 8.68807 8.16274
3 1 7.98227 6.86893 6.93893
2 1 7.94685 8.35841 7.11562
6 2 6.96094 7.95904 8.94145
5 2 6.77278 9.68424 8.3836
ITEM: TIMESTEP
700
ITEM: NUMBER OF ATOMS
10
ITEM: BOX BOUNDS pp pp pp
0.0000000000000000e+00 1.5000000000000000e+01
0.0000000000000000e+00 1.5000000000000000e+01
0.0000000000000000e+00 1.5000000000000000e+01
ITEM: ATOMS id type x y z
10 2 6.92505 5.15034 7.61818
4 1 6.97449 6.21758 7.36002
7 2 8.34148 9.18887 6.50644
8 2 9.14817 6.3318 7.01865
9 2 6.16184 6.8842 7.50366
1 1 7.07828 8.61202 8.18501
3 1 8.13514 6.85965 7.06424
2 1 7.97172 8.35651 7.2273
6 2 6.88167 7.79637 8.84763
5 2 6.70801 9.59382 8.37501
ITEM: TIMESTEP
800
ITEM: NUMBER OF ATOMS
10
ITEM: BOX BOUNDS pp pp pp
0.0000000000000000e+00 1.5000000000000000e+01
0.0000000000000000e+00 1.5000000000000000e+01
0.0000000000000000e+00 1.5000000000000000e+01
ITEM: ATOMS id type x y z
10 2 6.78673 5.18544 7.1738
4 1 7.01013 6.26918 7.20184
7 2 8.60703 9.05494 6.86961
8 2 9.16041 6.30748 7.1516
9 2 6.08771 6.86252 7.28795
1 1 6.95351 8.60626 8.14017
3 1 8.23979 6.8402 7.17253
2 1 8.03406 8.33166 7.36381
6 2 6.38886 7.8761 8.7105
5 2 6.66835 9.64974 8.42544
ITEM: TIMESTEP
900
ITEM: NUMBER OF ATOMS
10
ITEM: BOX BOUNDS pp pp pp
0.0000000000000000e+00 1.5000000000000000e+01
0.0000000000000000e+00 1.5000000000000000e+01
0.0000000000000000e+00 1.5000000000000000e+01
ITEM: ATOMS id type x y z
10 2 6.94055 5.26457 6.83997
4 1 7.03094 6.29328 7.09252
7 2 8.7936 9.0594 7.23375
8 2 9.16741 6.31349 7.24321
9 2 6.12959 6.89071 7.16358
1 1 6.90415 8.61076 8.07743
3 1 8.20607 6.87485 7.26578
2 1 8.06858 8.25459 7.51078
6 2 6.16691 7.8445 8.4089
5 2 6.66755 9.6465 8.3206
ITEM: TIMESTEP
1000
ITEM: NUMBER OF ATOMS
10
ITEM: BOX BOUNDS pp pp pp
0.0000000000000000e+00 1.5000000000000000e+01
0.0000000000000000e+00 1.5000000000000000e+01
0.0000000000000000e+00 1.5000000000000000e+01
ITEM: ATOMS id type x y z
10 2 6.82065 5.26886 6.74241
4 1 7.04579 6.32091 6.92495
7 2 8.88955 9.02464 7.41659
8 2 9.03034 6.28593 7.71946
9 2 6.21311 6.9043 6.59488
1 1 6.90242 8.56381 8.09548
3 1 8.20026 6.89243 7.37734
2 1 8.1047 8.29054 7.56702
6 2 6.19387 7.81674 8.31677
5 2 6.45745 9.51344 8.31013
ITEM: TIMESTEP
1100
ITEM: NUMBER OF ATOMS
10
ITEM: BOX BOUNDS pp pp pp
0.0000000000000000e+00 1.5000000000000000e+01
0.0000000000000000e+00 1.5000000000000000e+01
0.0000000000000000e+00 1.5000000000000000e+01
ITEM: ATOMS id type x y z
10 2 7.01552 5.31563 6.47126
4 1 7.09003 6.37095 6.83104
7 2 8.96421 8.87629 7.88363
8 2 9.08798 6.29484 7.60595
9 2 6.2833 7.07403 6.53271
1 1 6.84376 8.59118 8.02076
3 1 8.16872 6.85961 7.40891
2 1 8.09713 8.23088 7.79961
6 2 6.13056 7.73425 8.04969
5 2 6.44465 9.60925 7.98386
ITEM: TIMESTEP
1200
ITEM: NUMBER OF ATOMS
10
ITEM: BOX BOUNDS pp pp pp
0.0000000000000000e+00 1.5000000000000000e+01
0.0000000000000000e+00 1.5000000000000000e+01
0.0000000000000000e+00 1.5000000000000000e+01
ITEM: ATOMS id type x y z
10 2 6.99785 5.45142 6.26243
4 1 7.20973 6.42688 6.65124
7 2 8.89101 8.72726 8.26644
8 2 9.01553 6.14734 7.92635
9 2 6.64134 7.2064 6.21566
1 1 6.72951 8.63526 7.98356
3 1 8.23033 6.74819 7.47711
2 1 8.03313 8.18034 7.93447
6 2 5.86483 8.01455 7.83101
5 2 6.49725 9.72896 8.10881
ITEM: TIMESTEP
1300
ITEM: NUMBER OF ATOMS
10
ITEM: BOX BOUNDS pp pp pp
0.0000000000000000e+00 1.5000000000000000e+01
0.0000000000000000e+00 1.5000000000000000e+01
0.0000000000000000e+00 1.5000000000000000e+01
ITEM: ATOMS id type x y z
10 2 7.37715 5.48069 6.03579
4 1 7.35358 6.52935 6.48887
7 2 8.82952 8.6622 8.54139
8 2 8.64745 5.93361 8.12416
9 2 7.04205 7.41728 5.95262
1 1 6.73182 8.61075 7.93753
3 1 8.10623 6.72546 7.54342
2 1 7.93173 8.14654 8.07629
6 2 5.88519 7.99035 7.69191
5 2 6.60252 9.66326 8.26643
ITEM: TIMESTEP
1400
ITEM: NUMBER OF ATOMS
10
ITEM: BOX BOUNDS pp pp pp
0.0000000000000000e+00 1.5000000000000000e+01
0.0000000000000000e+00 1.5000000000000000e+01
0.0000000000000000e+00 1.5000000000000000e+01
ITEM: ATOMS id type x y z
10 2 7.66369 5.65643 5.85355
4 1 7.4849 6.60947 6.37758
7 2 8.54074 8.50668 8.96414
8 2 8.56484 5.89036 8.05322
9 2 7.05274 7.38273 5.71528
1 1 6.75382 8.64081 7.86604
3 1 8.03604 6.71061 7.58642
2 1 7.87056 8.03718 8.28093
6 2 5.89417 8.13711 7.43871
5 2 6.53596 9.65824 8.19831
ITEM: TIMESTEP
1500
ITEM: NUMBER OF ATOMS
10
ITEM: BOX BOUNDS pp pp pp
0.0000000000000000e+00 1.5000000000000000e+01
0.0000000000000000e+00 1.5000000000000000e+01
0.0000000000000000e+00 1.5000000000000000e+01
ITEM: ATOMS id type x y z
10 2 7.58512 5.78851 5.77448
4 1 7.64711 6.73487 6.34065
7 2 8.28092 8.2863 9.23534
8 2 8.35262 5.79557 8.02296
9 2 7.47264 7.62169 5.75479
1 1 6.75108 8.6162 7.79682
3 1 7.99065 6.73188 7.63578
2 1 7.76202 7.92009 8.33337
6 2 5.97734 8.08835 7.23609
5 2 6.55025 9.62132 8.22562
ITEM: TIMESTEP
1600
ITEM: NUMBER OF ATOMS
10
ITEM: BOX BOUNDS pp pp pp
0.0000000000000000e+00 1.5000000000000000e+01
0.0000000000000000e+00 1.5000000000000000e+01
0.0000000000000000e+00 1.5000000000000000e+01
ITEM: ATOMS id type x y z
10 2 7.68977 6.01239 5.65941
4 1 7.81671 6.85591 6.33759
7 2 8.11329 8.12043 9.2926
8 2 8.17902 5.68215 8.09047
9 2 7.84752 7.82071 5.82044
1 1 6.74992 8.61926 7.76452
3 1 7.9318 6.65765 7.66738
2 1 7.65042 7.80849 8.3578
6 2 5.89544 8.31774 7.17048
5 2 6.50589 9.61871 8.09186
ITEM: TIMESTEP
1700
ITEM: NUMBER OF ATOMS
10
ITEM: BOX BOUNDS pp pp pp
0.0000000000000000e+00 1.5000000000000000e+01
0.0000000000000000e+00 1.5000000000000000e+01
0.0000000000000000e+00 1.5000000000000000e+01
ITEM: ATOMS id type x y z
10 2 8.03186 6.06032 5.63862
4 1 7.92454 6.89581 6.3274
7 2 7.82439 7.84228 9.43026
8 2 8.15053 5.65743 8.06997
9 2 7.84923 7.89358 5.87604
1 1 6.78492 8.68749 7.72819
3 1 7.88834 6.64326 7.65378
2 1 7.49722 7.72562 8.39873
6 2 6.11006 8.50456 6.87302
5 2 6.58775 9.54873 8.35255
ITEM: TIMESTEP
1800
ITEM: NUMBER OF ATOMS
10
ITEM: BOX BOUNDS pp pp pp
0.0000000000000000e+00 1.5000000000000000e+01
0.0000000000000000e+00 1.5000000000000000e+01
0.0000000000000000e+00 1.5000000000000000e+01
ITEM: ATOMS id type x y z
10 2 8.34431 6.14899 5.68004
4 1 8.07829 6.99355 6.3321
7 2 7.67903 7.76442 9.52353
8 2 7.67838 5.62365 7.97231
9 2 8.29222 7.95921 5.93182
1 1 6.77809 8.64112 7.75478
3 1 7.7939 6.60489 7.57725
2 1 7.42961 7.70617 8.43812
6 2 6.22399 8.53262 6.83146
5 2 6.42671 9.51672 8.3363
ITEM: TIMESTEP
1900
ITEM: NUMBER OF ATOMS
10
ITEM: BOX BOUNDS pp pp pp
0.0000000000000000e+00 1.5000000000000000e+01
0.0000000000000000e+00 1.5000000000000000e+01
0.0000000000000000e+00 1.5000000000000000e+01
ITEM: ATOMS id type x y z
10 2 8.62542 6.30534 5.60111
4 1 8.21765 7.02323 6.3468
7 2 7.26431 7.50361 9.50208
8 2 7.58868 5.50668 7.78907
9 2 8.52809 8.08586 6.25248
1 1 6.75834 8.67612 7.77958
3 1 7.76378 6.60805 7.53939
2 1 7.28771 7.64068 8.44158
6 2 6.47399 8.58512 6.73841
5 2 6.47864 9.54496 8.36173
ITEM: TIMESTEP
2000
ITEM: NUMBER OF ATOMS
10
ITEM: BOX BOUNDS pp pp pp
0.0000000000000000e+00 1.5000000000000000e+01
0.0000000000000000e+00 1.5000000000000000e+01
0.0000000000000000e+00 1.5000000000000000e+01
ITEM: ATOMS id type x y z
10 2 8.89468 6.60517 5.63779
4 1 8.33821 7.10408 6.46107
7 2 6.68918 7.29088 9.35741
8 2 7.67278 5.46497 7.66198
9 2 8.59576 8.13558 6.59733
1 1 6.79673 8.70343 7.80775
3 1 7.76514 6.5126 7.47631
2 1 7.10023 7.55184 8.35414
6 2 6.73639 8.81947 6.72205
5 2 6.53332 9.67224 8.31683
ITEM: TIMESTEP
2100
ITEM: NUMBER OF ATOMS
10
ITEM: BOX BOUNDS pp pp pp
0.0000000000000000e+00 1.5000000000000000e+01
0.0000000000000000e+00 1.5000000000000000e+01
0.0000000000000000e+00 1.5000000000000000e+01
ITEM: ATOMS id type x y z
10 2 9.1238 6.78956 5.76895
4 1 8.50831 7.1911 6.60554
7 2 6.62835 7.16996 9.27096
8 2 7.35102 5.49194 7.24299
9 2 8.84313 8.13459 7.02232
1 1 6.79343 8.68453 7.77081
3 1 7.64242 6.54005 7.38525
2 1 7.02584 7.46762 8.3259
6 2 6.87115 8.75708 6.71415
5 2 6.48652 9.57707 8.34464
ITEM: TIMESTEP
2200
ITEM: NUMBER OF ATOMS
10
ITEM: BOX BOUNDS pp pp pp
0.0000000000000000e+00 1.5000000000000000e+01
0.0000000000000000e+00 1.5000000000000000e+01
0.0000000000000000e+00 1.5000000000000000e+01
ITEM: ATOMS id type x y z
10 2 9.33506 6.76959 6.03417
4 1 8.5908 7.2391 6.66299
7 2 6.26291 7.00935 9.07313
8 2 7.35573 5.47488 7.25332
9 2 8.87063 8.2506 6.95405
1 1 6.86596 8.6824 7.82792
3 1 7.61279 6.55926 7.32655
2 1 6.88691 7.39496 8.24321
6 2 7.23126 9.03339 6.83936
5 2 6.32971 9.42787 8.37096
ITEM: TIMESTEP
2300
ITEM: NUMBER OF ATOMS
10
ITEM: BOX BOUNDS pp pp pp
0.0000000000000000e+00 1.5000000000000000e+01
0.0000000000000000e+00 1.5000000000000000e+01
0.0000000000000000e+00 1.5000000000000000e+01
ITEM: ATOMS id type x y z
10 2 9.41681 6.7929 6.1879
4 1 8.67119 7.2631 6.82255
7 2 6.20397 6.89844 8.92229
8 2 7.27523 5.60218 6.97611
9 2 8.94351 8.22684 7.25351
1 1 6.89524 8.66486 7.84697
3 1 7.56749 6.59666 7.21643
2 1 6.81865 7.35448 8.16002
6 2 7.28483 8.99927 6.9089
5 2 6.28426 9.42581 8.36446
ITEM: TIMESTEP
2400
ITEM: NUMBER OF ATOMS
10
ITEM: BOX BOUNDS pp pp pp
0.0000000000000000e+00 1.5000000000000000e+01
0.0000000000000000e+00 1.5000000000000000e+01
0.0000000000000000e+00 1.5000000000000000e+01
ITEM: ATOMS id type x y z
10 2 9.56095 6.97129 6.25145
4 1 8.75334 7.23529 6.96742
7 2 6.02863 6.76281 8.67639
8 2 7.30333 5.6292 6.65576
9 2 8.98551 8.09451 7.60333
1 1 6.87736 8.68919 7.90927
3 1 7.564 6.62821 7.13131
2 1 6.73269 7.32829 8.04735
6 2 7.32013 8.98593 6.94103
5 2 6.36112 9.49031 8.42892
ITEM: TIMESTEP
2500
ITEM: NUMBER OF ATOMS
10
ITEM: BOX BOUNDS pp pp pp
0.0000000000000000e+00 1.5000000000000000e+01
0.0000000000000000e+00 1.5000000000000000e+01
0.0000000000000000e+00 1.5000000000000000e+01
ITEM: ATOMS id type x y z
10 2 9.64274 6.97498 6.41233
4 1 8.82243 7.23339 7.04958
7 2 5.67561 6.87425 8.12646
8 2 7.42722 5.68529 6.70234
9 2 8.94733 8.05143 7.71624
1 1 6.86746 8.63092 8.0354
3 1 7.64026 6.629 7.07903
2 1 6.60507 7.36839 7.84124
6 2 7.52608 9.057 7.33087
5 2 6.29368 9.40689 8.56923
ITEM: TIMESTEP
2600
ITEM: NUMBER OF ATOMS
10
ITEM: BOX BOUNDS pp pp pp
0.0000000000000000e+00 1.5000000000000000e+01
0.0000000000000000e+00 1.5000000000000000e+01
0.0000000000000000e+00 1.5000000000000000e+01
ITEM: ATOMS id type x y z
10 2 9.87714 6.98779 6.70029
4 1 8.86256 7.16756 7.26257
7 2 5.69624 6.78877 8.13104
8 2 7.41206 5.96965 6.11175
9 2 8.9604 7.71833 8.20794
1 1 6.84136 8.62789 8.02043
3 1 7.65578 6.74609 6.91372
2 1 6.56081 7.34758 7.76543
6 2 7.50729 9.16439 7.30069
5 2 6.1478 9.25635 8.66436
ITEM: TIMESTEP
2700
ITEM: NUMBER OF ATOMS
10
ITEM: BOX BOUNDS pp pp pp
0.0000000000000000e+00 1.5000000000000000e+01
0.0000000000000000e+00 1.5000000000000000e+01
0.0000000000000000e+00 1.5000000000000000e+01
ITEM: ATOMS id type x y z
10 2 9.71996 6.77789 6.87497
4 1 8.87088 7.18535 7.35181
7 2 5.57558 6.85792 7.73262
8 2 7.5541 6.09453 6.05971
9 2 8.98385 7.73138 8.27597
1 1 6.82177 8.58603 8.09299
3 1 7.69957 6.76735 6.87215
2 1 6.54623 7.37143 7.60919
6 2 7.63863 9.20441 7.77811
5 2 6.02124 9.09293 8.61074
ITEM: TIMESTEP
2800
ITEM: NUMBER OF ATOMS
10
ITEM: BOX BOUNDS pp pp pp
0.0000000000000000e+00 1.5000000000000000e+01
0.0000000000000000e+00 1.5000000000000000e+01
0.0000000000000000e+00 1.5000000000000000e+01
ITEM: ATOMS id type x y z
10 2 9.79829 6.7692 6.99004
4 1 8.84993 7.17981 7.4285
7 2 5.56648 6.90837 7.41682
8 2 7.66947 6.18268 5.93903
9 2 8.99717 7.64146 8.39264
1 1 6.80702 8.54151 8.11956
3 1 7.68971 6.81645 6.8651
2 1 6.55367 7.38611 7.50052
6 2 7.7066 9.13651 7.98159
5 2 5.98399 9.0385 8.68681
ITEM: TIMESTEP
2900
ITEM: NUMBER OF ATOMS
10
ITEM: BOX BOUNDS pp pp pp
0.0000000000000000e+00 1.5000000000000000e+01
0.0000000000000000e+00 1.5000000000000000e+01
0.0000000000000000e+00 1.5000000000000000e+01
ITEM: ATOMS id type x y z
10 2 9.83529 6.91206 7.20387
4 1 8.82283 7.1215 7.54983
7 2 5.59744 6.93559 7.38268
8 2 7.76968 6.55388 5.81284
9 2 8.75808 7.25806 8.65617
1 1 6.79208 8.51207 8.09527
3 1 7.71006 6.91027 6.80644
2 1 6.57299 7.36375 7.3957
6 2 7.64143 9.17316 7.92246
5 2 6.13427 8.94173 8.82752
ITEM: TIMESTEP
3000
ITEM: NUMBER OF ATOMS
10
ITEM: BOX BOUNDS pp pp pp
0.0000000000000000e+00 1.5000000000000000e+01
0.0000000000000000e+00 1.5000000000000000e+01
0.0000000000000000e+00 1.5000000000000000e+01
ITEM: ATOMS id type x y z
10 2 9.84111 6.91684 7.38675
4 1 8.81256 7.11323 7.6112
7 2 5.55052 7.28598 6.84622
8 2 7.88914 6.45337 5.7744
9 2 8.728 7.27387 8.68029
1 1 6.75338 8.41575 8.18126
3 1 7.76756 6.9336 6.79707
2 1 6.58603 7.48253 7.24606
6 2 7.69808 8.90727 8.41535
5 2 5.89993 8.71205 8.77246
ITEM: TIMESTEP
3100
ITEM: NUMBER OF ATOMS
10
ITEM: BOX BOUNDS pp pp pp
0.0000000000000000e+00 1.5000000000000000e+01
0.0000000000000000e+00 1.5000000000000000e+01
0.0000000000000000e+00 1.5000000000000000e+01
ITEM: ATOMS id type x y z
10 2 9.80346 6.65219 7.50244
4 1 8.77861 7.00312 7.73929
7 2 5.71372 7.24362 6.73732
8 2 8.13981 6.89197 5.66852
9 2 8.44329 6.99403 8.7613
1 1 6.67393 8.36472 8.22498
3 1 7.89935 7.07992 6.69327
2 1 6.60894 7.53408 7.15247
6 2 7.54207 8.88773 8.61268
5 2 5.71666 8.65942 8.74667
ITEM: TIMESTEP
3200
ITEM: NUMBER OF ATOMS
10
ITEM: BOX BOUNDS pp pp pp
0.0000000000000000e+00 1.5000000000000000e+01
0.0000000000000000e+00 1.5000000000000000e+01
0.0000000000000000e+00 1.5000000000000000e+01
ITEM: ATOMS id type x y z
10 2 9.76742 6.63731 7.63457
4 1 8.71574 6.88792 7.77479
7 2 5.7429 7.2755 6.48017
8 2 8.49055 7.32838 5.70991
9 2 8.28484 6.73181 8.7862
1 1 6.5842 8.29303 8.23539
3 1 8.03394 7.20007 6.71463
2 1 6.62444 7.6184 7.10589
6 2 7.49448 8.66092 8.72199
5 2 5.59388 8.58961 8.57197
ITEM: TIMESTEP
3300
ITEM: NUMBER OF ATOMS
10
ITEM: BOX BOUNDS pp pp pp
0.0000000000000000e+00 1.5000000000000000e+01
0.0000000000000000e+00 1.5000000000000000e+01
0.0000000000000000e+00 1.5000000000000000e+01
ITEM: ATOMS id type x y z
10 2 9.83024 6.62906 7.75555
4 1 8.73251 6.83964 7.83416
7 2 5.87249 7.70611 6.27164
8 2 8.55364 7.31779 5.75119
9 2 8.25626 6.72526 8.76122
1 1 6.48713 8.16791 8.2404
3 1 8.07419 7.23621 6.7489
2 1 6.68127 7.75357 6.98865
6 2 7.29332 8.39047 8.89218
5 2 5.46743 8.46733 8.58452
ITEM: TIMESTEP
3400
ITEM: NUMBER OF ATOMS
10
ITEM: BOX BOUNDS pp pp pp
0.0000000000000000e+00 1.5000000000000000e+01
0.0000000000000000e+00 1.5000000000000000e+01
0.0000000000000000e+00 1.5000000000000000e+01
ITEM: ATOMS id type x y z
10 2 9.7429 6.66875 8.00171
4 1 8.65767 6.7763 7.84953
7 2 5.93639 7.70923 6.19554
8 2 8.70491 7.55329 5.87955
9 2 8.02238 6.44821 8.70262
1 1 6.48444 8.11594 8.2061
3 1 8.1247 7.34154 6.76192
2 1 6.72897 7.80231 6.95814
6 2 7.31587 8.41944 8.86027
5 2 5.42688 8.20454 8.59521
ITEM: TIMESTEP
3500
ITEM: NUMBER OF ATOMS
10
ITEM: BOX BOUNDS pp pp pp
0.0000000000000000e+00 1.5000000000000000e+01
0.0000000000000000e+00 1.5000000000000000e+01
0.0000000000000000e+00 1.5000000000000000e+01
ITEM: ATOMS id type x y z
10 2 9.66587 6.6349 8.04786
4 1 8.59764 6.73683 7.86703
7 2 6.07777 7.87864 6.09039
8 2 8.88806 7.74262 6.00731
9 2 7.95594 6.36202 8.63203
1 1 6.43225 8.03701 8.20614
3 1 8.17313 7.42197 6.79149
2 1 6.79491 7.84296 6.90766
6 2 7.12088 8.20071 9.00948
5 2 5.42791 8.16843 8.46803
ITEM: TIMESTEP
3600
ITEM: NUMBER OF ATOMS
10
ITEM: BOX BOUNDS pp pp pp
0.0000000000000000e+00 1.5000000000000000e+01
0.0000000000000000e+00 1.5000000000000000e+01
0.0000000000000000e+00 1.5000000000000000e+01
ITEM: ATOMS id type x y z
10 2 9.59459 6.42665 7.95663
4 1 8.54649 6.73034 7.87945
7 2 6.22873 8.07599 6.05542
8 2 9.00415 7.84442 6.16027
9 2 7.90974 6.35076 8.69413
1 1 6.35831 7.92012 8.15114
3 1 8.2373 7.51927 6.83433
2 1 6.90567 7.92223 6.91642
6 2 6.85087 7.80887 9.11746
5 2 5.24925 8.16161 8.21706
ITEM: TIMESTEP
3700
ITEM: NUMBER OF ATOMS
10
ITEM: BOX BOUNDS pp pp pp
0.0000000000000000e+00 1.5000000000000000e+01
0.0000000000000000e+00 1.5000000000000000e+01
0.0000000000000000e+00 1.5000000000000000e+01
ITEM: ATOMS id type x y z
10 2 9.51213 6.3117 8.10489
4 1 8.52235 6.66498 7.87036
7 2 6.32557 8.11411 6.01472
8 2 9.15005 8.23469 6.615
9 2 7.71273 6.06661 8.33504
1 1 6.32853 7.87 8.07032
3 1 8.28546 7.62108 6.94922
2 1 6.92811 7.97292 6.87991
6 2 6.7735 7.67621 9.08383
5 2 5.26334 8.04286 8.11663
ITEM: TIMESTEP
3800
ITEM: NUMBER OF ATOMS
10
ITEM: BOX BOUNDS pp pp pp
0.0000000000000000e+00 1.5000000000000000e+01
0.0000000000000000e+00 1.5000000000000000e+01
0.0000000000000000e+00 1.5000000000000000e+01
ITEM: ATOMS id type x y z
10 2 9.44172 6.25599 8.2687
4 1 8.48397 6.60824 7.88949
7 2 6.43709 8.5057 6.00535
8 2 9.19618 8.30276 6.82744
9 2 7.65682 5.9842 8.15684
1 1 6.24839 7.7779 7.97531
3 1 8.36046 7.66551 7.04685
2 1 6.99622 8.12441 6.89903
6 2 6.68026 7.40808 8.84375
5 2 5.17771 7.70687 7.92284
ITEM: TIMESTEP
3900
ITEM: NUMBER OF ATOMS
10
ITEM: BOX BOUNDS pp pp pp
0.0000000000000000e+00 1.5000000000000000e+01
0.0000000000000000e+00 1.5000000000000000e+01
0.0000000000000000e+00 1.5000000000000000e+01
ITEM: ATOMS id type x y z
10 2 9.4067 6.17502 8.28966
4 1 8.46396 6.59 7.85341
7 2 6.73303 8.82173 6.10721
8 2 9.35772 8.29503 7.05463
9 2 7.57614 5.96128 8.0487
1 1 6.16016 7.6789 7.82332
3 1 8.42946 7.71754 7.18511
2 1 7.01613 8.23822 6.98061
6 2 6.55685 7.07551 8.69865
5 2 5.0753 7.54345 7.63547
ITEM: TIMESTEP
4000
ITEM: NUMBER OF ATOMS
10
ITEM: BOX BOUNDS pp pp pp
0.0000000000000000e+00 1.5000000000000000e+01
0.0000000000000000e+00 1.5000000000000000e+01
0.0000000000000000e+00 1.5000000000000000e+01
ITEM: ATOMS id type x y z
10 2 9.29621 6.13529 8.33185
4 1 8.47304 6.52133 7.77166
7 2 6.84294 8.74604 6.05855
8 2 9.28581 8.51465 7.67362
9 2 7.58938 5.9482 7.58331
1 1 6.11354 7.64615 7.7341
3 1 8.47451 7.81903 7.39521
2 1 7.05934 8.21113 6.97323
6 2 6.34841 7.01377 8.55162
5 2 5.03871 7.67621 7.44487
ITEM: TIMESTEP
4100
ITEM: NUMBER OF ATOMS
10
ITEM: BOX BOUNDS pp pp pp
0.0000000000000000e+00 1.5000000000000000e+01
0.0000000000000000e+00 1.5000000000000000e+01
0.0000000000000000e+00 1.5000000000000000e+01
ITEM: ATOMS id type x y z
10 2 9.34484 6.04374 8.28235
4 1 8.45705 6.53392 7.77897
7 2 6.89137 9.04164 6.24902
8 2 9.28602 8.53015 7.68287
9 2 7.59394 5.90958 7.66757
1 1 6.09875 7.56164 7.56623
3 1 8.46486 7.81876 7.50415
2 1 7.09524 8.27413 7.07999
6 2 6.19084 6.75107 8.28004
5 2 5.12162 7.8131 7.15104
ITEM: TIMESTEP
4200
ITEM: NUMBER OF ATOMS
10
ITEM: BOX BOUNDS pp pp pp
0.0000000000000000e+00 1.5000000000000000e+01
0.0000000000000000e+00 1.5000000000000000e+01
0.0000000000000000e+00 1.5000000000000000e+01
ITEM: ATOMS id type x y z
10 2 9.24314 6.06576 8.34611
4 1 8.45038 6.50888 7.74925
7 2 6.997 9.12909 6.421
8 2 9.19469 8.46959 7.98077
9 2 7.64561 5.79624 7.4552
1 1 6.12589 7.52522 7.45083
3 1 8.41396 7.8435 7.61117
2 1 7.13273 8.35234 7.10611
6 2 6.16439 6.69769 8.16091
5 2 5.14144 7.68193 7.02085
ITEM: TIMESTEP
4300
ITEM: NUMBER OF ATOMS
10
ITEM: BOX BOUNDS pp pp pp
0.0000000000000000e+00 1.5000000000000000e+01
0.0000000000000000e+00 1.5000000000000000e+01
0.0000000000000000e+00 1.5000000000000000e+01
ITEM: ATOMS id type x y z
10 2 9.15959 6.04963 8.32882
4 1 8.42602 6.50159 7.68524
7 2 7.12266 9.22602 6.40663
8 2 9.05552 8.33074 8.48026
9 2 7.84127 5.83359 7.09941
1 1 6.16001 7.50215 7.32638
3 1 8.33724 7.86623 7.75352
2 1 7.17435 8.37541 7.17814
6 2 6.16094 6.79525 8.16882
5 2 5.19832 7.51248 6.74534
ITEM: TIMESTEP
4400
ITEM: NUMBER OF ATOMS
10
ITEM: BOX BOUNDS pp pp pp
0.0000000000000000e+00 1.5000000000000000e+01
0.0000000000000000e+00 1.5000000000000000e+01
0.0000000000000000e+00 1.5000000000000000e+01
ITEM: ATOMS id type x y z
10 2 9.19986 5.99916 8.32274
4 1 8.42383 6.5319 7.73972
7 2 6.99935 9.3675 6.98447
8 2 9.02879 8.29672 8.51435
9 2 7.87622 5.79923 7.13393
1 1 6.19201 7.49002 7.05849
3 1 8.32411 7.84202 7.8589
2 1 7.1539 8.39296 7.3448
6 2 6.09773 6.50255 7.45653
5 2 5.35896 7.71349 6.4655
ITEM: TIMESTEP
4500
ITEM: NUMBER OF ATOMS
10
ITEM: BOX BOUNDS pp pp pp
0.0000000000000000e+00 1.5000000000000000e+01
0.0000000000000000e+00 1.5000000000000000e+01
0.0000000000000000e+00 1.5000000000000000e+01
ITEM: ATOMS id type x y z
10 2 9.1739 5.87911 8.32554
4 1 8.49178 6.53087 7.70528
7 2 7.03573 9.43192 7.00753
8 2 8.65009 8.20675 9.00996
9 2 8.08892 6.14806 6.75169
1 1 6.21916 7.49654 6.92447
3 1 8.25036 7.79784 8.07935
2 1 7.1445 8.36725 7.34742
6 2 6.05304 6.42956 7.23155
5 2 5.48752 7.96964 6.22361
ITEM: TIMESTEP
4600
ITEM: NUMBER OF ATOMS
10
ITEM: BOX BOUNDS pp pp pp
0.0000000000000000e+00 1.5000000000000000e+01
0.0000000000000000e+00 1.5000000000000000e+01
0.0000000000000000e+00 1.5000000000000000e+01
ITEM: ATOMS id type x y z
10 2 9.19103 5.92005 8.23766
4 1 8.50935 6.53319 7.67403
7 2 7.0633 9.47399 7.21705
8 2 8.3757 8.10458 9.22638
9 2 8.29371 6.25203 6.68397
1 1 6.29446 7.53779 6.79896
3 1 8.15661 7.69229 8.22786
2 1 7.10421 8.40157 7.37396
6 2 6.14313 6.52809 7.09649
5 2 5.66938 7.95226 5.9786
ITEM: TIMESTEP
4700
ITEM: NUMBER OF ATOMS
10
ITEM: BOX BOUNDS pp pp pp
0.0000000000000000e+00 1.5000000000000000e+01
0.0000000000000000e+00 1.5000000000000000e+01
0.0000000000000000e+00 1.5000000000000000e+01
ITEM: ATOMS id type x y z
10 2 9.19709 5.8892 8.36217
4 1 8.50277 6.52227 7.72786
7 2 6.88241 9.48946 7.68224
8 2 8.35702 7.94788 9.25971
9 2 8.30931 6.18694 6.67407
1 1 6.38494 7.59934 6.62959
3 1 8.07668 7.66733 8.2336
2 1 7.06477 8.40589 7.45657
6 2 6.47248 6.50838 6.75017
5 2 5.73075 8.02916 5.87498
ITEM: TIMESTEP
4800
ITEM: NUMBER OF ATOMS
10
ITEM: BOX BOUNDS pp pp pp
0.0000000000000000e+00 1.5000000000000000e+01
0.0000000000000000e+00 1.5000000000000000e+01
0.0000000000000000e+00 1.5000000000000000e+01
ITEM: ATOMS id type x y z
10 2 9.12971 5.81267 8.17005
4 1 8.52659 6.59383 7.69341
7 2 6.95945 9.43825 7.56635
8 2 7.9946 7.72859 9.42841
9 2 8.53161 6.55146 6.6304
1 1 6.46749 7.63582 6.5643
3 1 7.94804 7.58349 8.37411
2 1 7.08844 8.37277 7.49232
6 2 6.38561 6.57872 6.68739
5 2 5.93964 7.99483 5.66151
ITEM: TIMESTEP
4900
ITEM: NUMBER OF ATOMS
10
ITEM: BOX BOUNDS pp pp pp
0.0000000000000000e+00 1.5000000000000000e+01
0.0000000000000000e+00 1.5000000000000000e+01
0.0000000000000000e+00 1.5000000000000000e+01
ITEM: ATOMS id type x y z
10 2 9.09858 5.74525 8.04852
4 1 8.50461 6.60242 7.74867
7 2 6.67108 9.30865 7.76864
8 2 7.82438 7.60521 9.51469
9 2 8.5801 6.76648 6.6793
1 1 6.68184 7.70324 6.43054
3 1 7.81019 7.53663 8.40256
2 1 7.03318 8.30631 7.57297
6 2 6.69518 6.62187 6.26273
5 2 6.07578 8.28096 5.68667
ITEM: TIMESTEP
5000
ITEM: NUMBER OF ATOMS
10
ITEM: BOX BOUNDS pp pp pp
0.0000000000000000e+00 1.5000000000000000e+01
0.0000000000000000e+00 1.5000000000000000e+01
0.0000000000000000e+00 1.5000000000000000e+01
ITEM: ATOMS id type x y z
10 2 9.14745 5.86117 8.23979
4 1 8.53806 6.63208 7.74121
7 2 6.43714 9.22209 7.89885
8 2 7.51166 7.33458 9.53196
9 2 8.79687 6.80453 6.68024
1 1 6.86359 7.85696 6.3302
3 1 7.63489 7.38675 8.45886
2 1 6.94357 8.25591 7.63419
6 2 7.03431 6.82947 5.9575
5 2 6.31588 8.3779 5.59387
ITEM: TIMESTEP
5100
ITEM: NUMBER OF ATOMS
10
ITEM: BOX BOUNDS pp pp pp
0.0000000000000000e+00 1.5000000000000000e+01
0.0000000000000000e+00 1.5000000000000000e+01
0.0000000000000000e+00 1.5000000000000000e+01
ITEM: ATOMS id type x y z
10 2 9.1395 5.96718 8.32936
4 1 8.56823 6.71086 7.79432
7 2 6.51927 9.16669 8.04642
8 2 7.17993 6.82755 9.40731
9 2 9.00477 7.13436 6.9036
1 1 6.97893 7.9178 6.29779
3 1 7.49361 7.21384 8.40994
2 1 6.89454 8.26577 7.60853
6 2 7.11088 6.89848 6.00261
5 2 6.55775 8.57612 5.53625
ITEM: TIMESTEP
5200
ITEM: NUMBER OF ATOMS
10
ITEM: BOX BOUNDS pp pp pp
0.0000000000000000e+00 1.5000000000000000e+01
0.0000000000000000e+00 1.5000000000000000e+01
0.0000000000000000e+00 1.5000000000000000e+01
ITEM: ATOMS id type x y z
10 2 9.11144 5.82929 8.31843
4 1 8.58227 6.66534 7.84368
7 2 6.08464 8.94749 8.04135
8 2 7.03156 6.82141 9.32121
9 2 9.10599 7.14911 7.0161
1 1 7.07138 8.06318 6.28521
3 1 7.45795 7.17187 8.40572
2 1 6.80928 8.20624 7.5981
6 2 7.56952 7.12114 5.94303
5 2 6.69564 8.7118 5.45265
ITEM: TIMESTEP
5300
ITEM: NUMBER OF ATOMS
10
ITEM: BOX BOUNDS pp pp pp
0.0000000000000000e+00 1.5000000000000000e+01
0.0000000000000000e+00 1.5000000000000000e+01
0.0000000000000000e+00 1.5000000000000000e+01
ITEM: ATOMS id type x y z
10 2 9.23981 5.86074 8.2787
4 1 8.57409 6.68912 7.93279
7 2 6.08668 8.84927 7.95131
8 2 6.81358 6.68192 9.21629
9 2 9.01511 7.40455 7.25067
1 1 7.15343 8.14073 6.29226
3 1 7.3867 7.04542 8.34329
2 1 6.77335 8.15037 7.54371
6 2 7.67348 7.32447 5.90592
5 2 6.96989 8.94525 5.6138
ITEM: TIMESTEP
5400
ITEM: NUMBER OF ATOMS
10
ITEM: BOX BOUNDS pp pp pp
0.0000000000000000e+00 1.5000000000000000e+01
0.0000000000000000e+00 1.5000000000000000e+01
0.0000000000000000e+00 1.5000000000000000e+01
ITEM: ATOMS id type x y z
10 2 9.27028 5.93975 8.35522
4 1 8.56165 6.73613 8.01468
7 2 5.9993 8.78312 7.98285
8 2 6.61023 6.3507 8.92708
9 2 9.02049 7.5954 7.57259
1 1 7.25763 8.23787 6.299
3 1 7.26937 6.90622 8.25871
2 1 6.78414 8.11112 7.51657
6 2 7.86635 7.4145 5.88029
5 2 7.1206 9.18847 5.63723
ITEM: TIMESTEP
5500
ITEM: NUMBER OF ATOMS
10
ITEM: BOX BOUNDS pp pp pp
0.0000000000000000e+00 1.5000000000000000e+01
0.0000000000000000e+00 1.5000000000000000e+01
0.0000000000000000e+00 1.5000000000000000e+01
ITEM: ATOMS id type x y z
10 2 8.99215 5.91913 8.54239
4 1 8.52451 6.72911 8.03933
7 2 5.6913 8.28966 7.63206
8 2 6.54833 6.14532 8.72176
9 2 9.121 7.57925 7.68711
1 1 7.47339 8.4506 6.42576
3 1 7.19963 6.81855 8.16892
2 1 6.67778 8.03151 7.43676
6 2 8.3604 7.90546 6.16315
5 2 7.15897 9.20254 5.7179
ITEM: TIMESTEP
5600
ITEM: NUMBER OF ATOMS
10
ITEM: BOX BOUNDS pp pp pp
0.0000000000000000e+00 1.5000000000000000e+01
0.0000000000000000e+00 1.5000000000000000e+01
0.0000000000000000e+00 1.5000000000000000e+01
ITEM: ATOMS id type x y z
10 2 8.99073 5.96822 8.75044
4 1 8.48811 6.81713 8.17946
7 2 5.54113 8.29894 7.53264
8 2 6.54106 5.83268 8.22854
9 2 9.05732 7.73932 8.16343
1 1 7.59595 8.52426 6.59587
3 1 7.16479 6.71376 7.88403
2 1 6.60635 7.95254 7.33531
6 2 8.40531 7.9059 6.2139
5 2 7.45728 9.42879 6.0321
ITEM: TIMESTEP
5700
ITEM: NUMBER OF ATOMS
10
ITEM: BOX BOUNDS pp pp pp
0.0000000000000000e+00 1.5000000000000000e+01
0.0000000000000000e+00 1.5000000000000000e+01
0.0000000000000000e+00 1.5000000000000000e+01
ITEM: ATOMS id type x y z
10 2 9.00038 6.01584 8.69037
4 1 8.42266 6.80933 8.28538
7 2 5.61865 8.20098 7.18139
8 2 6.57229 5.80244 7.83999
9 2 8.79977 7.79842 8.59571
1 1 7.63658 8.61373 6.7215
3 1 7.15539 6.67028 7.74292
2 1 6.63171 7.87404 7.24708
6 2 8.51674 8.04355 6.43486
5 2 7.53809 9.55446 6.16539
ITEM: TIMESTEP
5800
ITEM: NUMBER OF ATOMS
10
ITEM: BOX BOUNDS pp pp pp
0.0000000000000000e+00 1.5000000000000000e+01
0.0000000000000000e+00 1.5000000000000000e+01
0.0000000000000000e+00 1.5000000000000000e+01
ITEM: ATOMS id type x y z