10
 Atoms. Timestep: 0
C 7.907 8.83878 7.86049
C 7.24158 8.21403 6.92028
C 7.2885 6.72056 6.92143
C 7.50721 6.23533 8.11388
H 7.65912 9.97058 7.95907
H 8.65684 8.47614 8.49587
H 6.54612 8.79528 6.25192
H 7.47336 6.09062 6.04045
H 7.31537 6.68334 9.06668
H 7.80745 5.1518 8.17856
10
 Atoms. Timestep: 20
C 7.84355 8.77705 7.92574
C 7.22723 8.19844 6.85784
C 7.30528 6.78356 6.89328
C 7.58012 6.27976 8.13055
H 7.76023 9.83685 7.97748
H 8.50382 8.29155 8.65368
H 6.72152 8.80381 6.14952
H 7.47485 6.07826 6.11053
H 7.26707 6.76478 9.03744
H 7.65942 5.21189 8.11586
10
 Atoms. Timestep: 40
C 7.77723 8.7898 7.9421
C 7.23524 8.22651 6.84966
C 7.39405 6.7821 6.89898
C 7.54714 6.2461 8.11573
H 7.86211 9.8396 8.12655
H 8.32579 8.14606 8.67741
H 6.85198 8.77281 5.98851
H 7.33445 6.19217 5.95104
H 7.33699 6.83876 9.02711
H 7.69071 5.16354 8.27959
10
 Atoms. Timestep: 60
C 7.73545 8.8085 7.96112
C 7.29342 8.25467 6.86439
C 7.44327 6.75156 6.88404
C 7.47024 6.21035 8.09304
H 7.80776 9.91188 8.24054
H 8.23077 8.18127 8.64914
H 6.94246 8.7132 5.90563
H 7.28791 6.28769 5.90941
H 7.43075 6.79552 9.00214
H 7.77006 5.17995 8.36663
10
 Atoms. Timestep: 80
C 7.72614 8.75402 8.0297
C 7.36546 8.18898 6.82558
C 7.40243 6.80773 6.84256
C 7.47701 6.27846 8.09919
H 7.5707 9.82984 8.16095
H 8.29907 8.26487 8.79576
H 6.97419 8.76202 5.98925
H 7.43727 6.17172 5.9666
H 7.33747 6.80489 9.02313
H 7.6791 5.21151 8.17114
10
 Atoms. Timestep: 100
C 7.73067 8.81473 8.00865
C 7.42716 8.23813 6.86246
C 7.38792 6.75529 6.86141
C 7.47372 6.2245 8.06109
H 7.36615 9.81756 8.1306
H 8.32948 8.40281 8.84404
H 6.99518 8.8689 6.11008
H 7.60247 6.07399 6.01876
H 7.14922 6.73965 8.95955
H 7.56467 5.1212 8.06431
10
 Atoms. Timestep: 120
C 7.72362 8.80312 8.02394
C 7.41044 8.21883 6.86772
C 7.4832 6.77251 6.83398
C 7.4291 6.22217 8.05346
H 7.41435 9.87705 8.16683
H 8.28932 8.38646 8.86875
H 6.95091 8.86672 6.08795
H 7.65757 6.18059 5.92993
H 7.02738 6.67713 8.97833
H 7.50636 5.13225 8.18261
10
 Atoms. Timestep: 140
C 7.69068 8.7387 8.05998
C 7.35859 8.20528 6.86969
C 7.60261 6.813 6.82636
C 7.36275 6.26406 8.05002
H 7.63181 9.81863 8.20565
H 8.22589 8.22856 8.82037
H 6.92765 8.7178 5.99799
H 7.71514 6.31382 5.87387
H 6.98894 6.80029 8.91077
H 7.54677 5.21462 8.244
10
 Atoms. Timestep: 160
C 7.68853 8.79422 8.05126
C 7.34232 8.24445 6.88625
C 7.62286 6.79361 6.87325
C 7.32604 6.20501 8.00986
H 7.67313 9.85899 8.31977
H 8.20137 8.11774 8.71982
H 6.95505 8.71282 6.00969
H 7.90873 6.28497 5.93777
H 6.90415 6.86632 8.72189
H 7.60317 5.15542 8.2564
10
 Atoms. Timestep: 180
C 7.69512 8.74835 8.05145
C 7.36651 8.24023 6.86075
C 7.58536 6.80992 6.82617
C 7.34513 6.24481 8.02341
H 7.55026 9.77768 8.35858
H 8.2873 8.17005 8.8118
H 6.95123 8.85572 6.04451
H 8.17734 6.24844 6.08119
H 6.67481 6.71581 8.79141
H 7.53029 5.19251 8.23081
10
 Atoms. Timestep: 200
C 7.72374 8.74629 8.07998
C 7.40901 8.24513 6.84086
C 7.5823 6.80306 6.81499
C 7.30373 6.23995 8.03166
H 7.33688 9.76532 8.2885
H 8.31752 8.24641 8.82342
H 6.95589 8.93072 6.09836
H 8.25404 6.29862 6.13326
H 6.57135 6.57139 8.76528
H 7.57568 5.20101 8.17525
10
 Atoms. Timestep: 220
C 7.6927 8.76158 8.06541
C 7.4505 8.25379 6.89253
C 7.63023 6.81626 6.87316
C 7.24758 6.2018 7.97122
H 7.31645 9.77456 8.29062
H 8.28411 8.29456 8.80267
H 6.99011 8.8079 6.10351
H 8.16389 6.30425 6.06243
H 6.58483 6.66085 8.66443
H 7.65852 5.17729 8.15146
10
 Atoms. Timestep: 240
C 7.61718 8.73494 8.12601
C 7.44517 8.2134 6.86969
C 7.72223 6.84535 6.84748
C 7.25451 6.24581 7.95547
H 7.45687 9.7923 8.33719
H 8.23966 8.22157 8.91781
H 7.00629 8.72464 5.99778
H 8.07793 6.28111 5.97306
H 6.63164 6.77741 8.6914
H 7.47709 5.18597 8.17985
10
 Atoms. Timestep: 260
C 7.58399 8.7678 8.12171
C 7.45159 8.26738 6.90374
C 7.74547 6.77872 6.82126
C 7.29133 6.21809 7.95767
H 7.45131 9.8181 8.3901
H 8.0407 8.14808 8.89162
H 7.10802 8.80037 5.99499
H 8.11707 6.26941 5.93427
H 6.716 6.82163 8.6698
H 7.25663 5.1705 8.18194
10
 Atoms. Timestep: 280
C 7.58172 8.76739 8.11881
C 7.50668 8.24781 6.88261
C 7.68117 6.80141 6.83165
C 7.30981 6.20294 7.95494
H 7.31153 9.80639 8.36537
H 7.87166 8.16973 8.9268
H 7.25739 8.93396 6.08673
H 8.18577 6.29474 6.017
H 6.77589 6.78905 8.65812
H 7.24549 5.10883 8.10696
10
 Atoms. Timestep: 300
C 7.56057 8.70648 8.13256
C 7.57007 8.26116 6.87323
C 7.64131 6.84652 6.82058
C 7.27119 6.22768 7.95943
H 7.22317 9.74134 8.22339
H 7.83325 8.21988 9.09009
H 7.42504 8.92398 6.02665
H 8.1928 6.29592 6.04273
H 6.71029 6.66198 8.78999
H 7.4806 5.1258 8.00134
10
 Atoms. Timestep: 320
C 7.51993 8.77388 8.14159
C 7.61341 8.28646 6.90162
C 7.65138 6.8311 6.84192
C 7.23441 6.16669 7.91674
H 7.24551 9.84035 8.25741
H 7.81843 8.21668 9.05881
H 7.56906 8.87611 5.95958
H 8.09387 6.27998 6.00585
H 6.63678 6.49129 8.7771
H 7.6456 5.16677 8.01908
10
 Atoms. Timestep: 340
C 7.45564 8.74437 8.13147
C 7.61495 8.25286 6.90256
C 7.69749 6.85628 6.84313
C 7.26758 6.20492 7.92516
H 7.39513 9.7916 8.38617
H 7.71485 8.16353 8.97072
H 7.64663 8.88255 6.02258
H 8.0689 6.32513 5.98647
H 6.56928 6.55844 8.67332
H 7.5152 5.14824 8.03585
10
 Atoms. Timestep: 360
C 7.44057 8.71225 8.16069
C 7.5831 8.29072 6.88058
C 7.74728 6.83006 6.82932
C 7.28988 6.20603 7.94779
H 7.43044 9.80661 8.38942
H 7.57101 8.04606 9.00252
H 7.6703 8.94471 6.02976
H 8.22003 6.34899 5.95714
H 6.6006 6.75401 8.5665
H 7.26662 5.08521 8.03339
10
 Atoms. Timestep: 380
C 7.48103 8.74729 8.1572
C 7.57365 8.29523 6.93153
C 7.77264 6.8042 6.83853
C 7.25414 6.1718 7.86028
H 7.2873 9.81898 8.35949
H 7.47496 8.11922 9.06875
H 7.63364 8.97652 6.05639
H 8.38204 6.32963 6.05803
H 6.66359 6.76548 8.54335
H 7.19372 5.09899 8.07776
10
 Atoms. Timestep: 400
C 7.47137 8.73176 8.18901
C 7.63373 8.22144 6.94568
C 7.81001 6.85029 6.81219
C 7.16649 6.21578 7.82643
H 7.17344 9.75045 8.26518
H 7.55787 8.2497 9.15336
H 7.53581 8.92637 6.10703
H 8.48321 6.33294 6.143
H 6.54064 6.67867 8.60201
H 7.34349 5.16626 7.97859
10
 Atoms. Timestep: 420
C 7.43473 8.71831 8.20197
C 7.69671 8.27901 6.9632
C 7.82346 6.82217 6.86325
C 7.12643 6.21576 7.80502
H 7.09345 9.78312 8.20493
H 7.75187 8.24628 9.11477
H 7.49302 8.87124 6.09774
H 8.50032 6.34032 6.1533
H 6.34179 6.60522 8.44304
H 7.45557 5.16224 7.87456
10
 Atoms. Timestep: 440
C 7.4125 8.71736 8.17036
C 7.70571 8.30226 6.94942
C 7.86462 6.88409 6.9153
C 7.13984 6.17066 7.80109
H 7.05901 9.76556 8.41645
H 7.83522 8.16435 9.02626
H 7.53005 8.9177 6.04917
H 8.50014 6.31914 6.21372
H 6.2175 6.55839 8.20808
H 7.24608 5.04863 7.95834
10
 Atoms. Timestep: 460
C 7.4053 8.68036 8.18877
C 7.64736 8.2991 6.89952
C 7.92784 6.87581 6.93511
C 7.13792 6.21064 7.80894
H 7.07918 9.60356 8.55644
H 7.73741 8.03203 8.99966
H 7.66133 8.96994 6.00076
H 8.65488 6.40138 6.27804
H 6.17543 6.65076 8.10003
H 7.1052 5.16688 7.96
10
 Atoms. Timestep: 480
C 7.42158 8.70878 8.20872
C 7.61634 8.29997 6.9404
C 7.95329 6.83278 6.90978
C 7.08782 6.20332 7.74381
H 7.03159 9.69136 8.53842
H 7.58975 7.9421 8.94656
H 7.72475 8.91158 6.08687
H 8.84328 6.45754 6.40596
H 6.24895 6.81434 8.10954
H 7.21149 5.13404 7.98537
10
 Atoms. Timestep: 500
C 7.3891 8.68055 8.20981
C 7.69455 8.26393 6.99538
C 7.91845 6.87112 6.89738
C 7.09109 6.21383 7.65332
H 7.09042 9.76474 8.37724
H 7.43214 8.05313 9.11059
H 7.6657 8.93617 6.1307
H 8.86106 6.42827 6.55105
H 6.27486 6.68562 8.15759
H 7.2407 5.17551 8.02646
10
 Atoms. Timestep: 520
C 7.32255 8.66435 8.23266
C 7.78593 8.30194 7.00913
C 7.94703 6.88164 6.8881
C 7.06443 6.18518 7.67728
H 7.1621 9.71695 8.22629
H 7.33135 8.23302 9.22169
H 7.66182 9.03992 6.16021
H 8.82103 6.35013 6.47075
H 6.14422 6.558 8.10123
H 7.28382 5.12338 7.86583
10
 Atoms. Timestep: 540
C 7.2829 8.71528 8.20041
C 7.80288 8.32043 7.04562
C 7.95702 6.83729 6.9421
C 7.0968 6.16747 7.68386
H 7.03234 9.791 8.29956
H 7.31778 8.16457 9.1455
H 7.91279 9.02846 6.25222
H 8.69914 6.36549 6.3229
H 6.09017 6.53213 7.9735
H 7.23413 5.09554 7.66333
10
 Atoms. Timestep: 560
C 7.24069 8.69964 8.17897
C 7.81191 8.2713 7.04699
C 7.99678 6.90957 6.97081
C 7.10752 6.20356 7.68531
H 6.85683 9.71424 8.45415
H 7.22848 7.96278 8.97889
H 8.22851 8.90513 6.27541
H 8.65268 6.41178 6.2511
H 6.16312 6.62918 8.03703
H 7.05304 5.09246 7.59989
10
 Atoms. Timestep: 580
C 7.19663 8.65553 8.19272
C 7.86136 8.35485 7.0513
C 8.00887 6.8758 6.96854
C 7.06152 6.20273 7.64722
H 6.78303 9.61003 8.44181
H 7.05697 7.87411 8.91903
H 8.4217 8.92645 6.23196
H 8.7792 6.46265 6.271
H 6.31685 6.71409 8.18234
H 6.99595 5.09926 7.6842
10
 Atoms. Timestep: 600
C 7.18916 8.68807 8.16274
C 7.94685 8.35841 7.11562
C 7.98227 6.86893 6.93893
C 7.04325 6.15037 7.57765
H 6.77278 9.68424 8.3836
H 6.96094 7.95904 8.94145
H 8.27829 9.10436 6.40946
H 8.81628 6.41417 6.44546
H 6.24283 6.58265 8.20236
H 7.08364 5.08082 7.737
10
 Atoms. Timestep: 620
C 7.15681 8.6603 8.15871
C 7.97075 8.29654 7.16966
C 7.98639 6.90647 6.92877
C 7.05318 6.19831 7.57512
H 6.9554 9.74412 8.22919
H 6.85075 8.06944 9.02406
H 8.18465 9.12493 6.54593
H 8.81139 6.31396 6.54399
H 6.04472 6.47617 7.9759
H 7.27434 5.12165 7.57642
10
 Atoms. Timestep: 640
C 7.12967 8.684 8.21875
C 7.9003 8.29621 7.18416
C 8.03499 6.88724 6.98143
C 7.05111 6.19213 7.55121
H 7.05714 9.772 8.20283
H 6.7502 8.11255 9.04758
H 8.39785 9.02726 6.42505
H 8.89993 6.3435 6.49804
H 6.05744 6.5154 7.66955
H 7.26499 5.09176 7.43263
10
 Atoms. Timestep: 660
C 7.14656 8.68161 8.19444
C 7.85141 8.29443 7.15636
C 8.10738 6.88105 7.05616
C 7.05978 6.17625 7.47758
H 6.93248 9.7557 8.43976
H 6.71358 8.08748 8.99283
H 8.46734 8.906 6.52845
H 8.99308 6.54535 6.55519
H 6.08593 6.64032 7.5688
H 6.9408 5.08516 7.4967
10
 Atoms. Timestep: 680
C 7.09755 8.62517 8.18056
C 7.91274 8.29385 7.13781
C 8.14658 6.87603 7.09277
C 7.01549 6.21924 7.42128
H 6.83922 9.64138 8.48809
H 6.78363 7.83522 8.88092
H 8.40083 9.03806 6.57134
H 9.11584 6.56864 6.74939
H 6.11861 6.87941 7.61844
H 6.83168 5.17161 7.58626
10
 Atoms. Timestep: 700
C 7.07828 8.61202 8.18501
C 7.97172 8.35651 7.2273
C 8.13514 6.85965 7.06424
C 6.97449 6.21758 7.36002
H 6.70801 9.59382 8.37501
H 6.88167 7.79637 8.84763
H 8.34148 9.18887 6.50644
H 9.14817 6.3318 7.01865
H 6.16184 6.8842 7.50366
H 6.92505 5.15034 7.61818
10
 Atoms. Timestep: 720
C 7.09827 8.62484 8.20605
C 8.01989 8.34242 7.26951
C 8.12642 6.88886 7.07151
C 7.00167 6.23259 7.30468
H 6.5472 9.60437 8.29426
H 6.79738 7.96258 9.01723
H 8.32647 9.10436 6.54552
H 8.98766 6.23536 7.13645
H 6.00198 6.64311 7.27826
H 6.98583 5.13793 7.5068
10
 Atoms. Timestep: 740
C 7.08608 8.61706 8.22377
C 8.00491 8.30161 7.27904
C 8.15327 6.90879 7.14939
C 6.96265 6.25384 7.28917
H 6.64076 9.63261 8.17133
H 6.74323 8.0121 9.06507
H 8.41366 8.98335 6.60657
H 9.07804 6.38135 7.05987
H 5.89871 6.54248 7.06405
H 7.10811 5.18033 7.2739
10
 Atoms. Timestep: 760
C 7.04569 8.64997 8.19255
C 7.95923 8.29265 7.31631
C 8.13912 6.87013 7.23141
C 6.98965 6.22005 7.25046
H 6.77761 9.68121 8.22387
H 6.74027 7.93754 8.94677
H 8.53694 9.01542 6.63932
H 9.16942 6.50489 6.97337
H 6.05707 6.75349 7.06463
H 7.04051 5.13065 7.09663
10
 Atoms. Timestep: 780
C 6.98481 8.62053 8.1343
C 7.98523 8.28739 7.3243
C 8.18922 6.885 7.23965
C 7.02329 6.23469 7.22469
H 6.76888 9.68279 8.43607
H 6.57651 7.90991 8.85343
H 8.56023 9.03787 6.7452
H 9.15516 6.38837 7.0349
H 6.17654 6.86731 7.21274
H 6.79134 5.16803 7.069
10
 Atoms. Timestep: 800
C 6.95351 8.60626 8.14017
C 8.03406 8.33166 7.36381
C 8.23979 6.8402 7.17253
C 7.01013 6.26918 7.20184
H 6.66835 9.64974 8.42544
H 6.38886 7.8761 8.7105
H 8.60703 9.05494 6.86961
H 9.16041 6.30748 7.1516
H 6.08771 6.86252 7.28795
H 6.78673 5.18544 7.1738
10
 Atoms. Timestep: 820
C 6.97817 8.63968 8.16961
C 8.05335 8.3072 7.44272
C 8.172 6.86037 7.12315
C 7.00645 6.24077 7.17286
H 6.61279 9.63924 8.22758
H 6.33562 7.87975 8.57619
H 8.71071 9.12318 7.02306
H 9.14027 6.31981 7.18771
H 6.07344 6.8053 7.14368
H 6.99137 5.16454 7.28074
10
 Atoms. Timestep: 840
C 6.97601 8.59657 8.1286
C 8.083 8.2782 7.47803
C 8.14081 6.95118 7.15428
C 6.99203 6.24728 7.1796
H 6.68024 9.65542 8.1359
H 6.29224 7.87564 8.61195
H 8.82421 9.05749 7.19536
H 9.09253 6.37621 7.09905
H 6.01175 6.6561 6.95312
H 7.07198 5.15978 7.25051
10
 Atoms. Timestep: 860
C 6.91608 8.62009 8.08986
C 8.10413 8.33957 7.4961
C 8.16201 6.88936 7.2037
C 6.99153 6.23475 7.15257
H 6.70398 9.71469 8.28402
H 6.32261 7.90335 8.6464
H 8.92095 8.97783 7.2647
H 9.10394 6.42591 7.0262
H 5.99521 6.58115 6.91082
H 7.03483 5.11442 7.10341
10
 Atoms. Timestep: 880
C 6.91276 8.65913 8.05556
C 8.06711 8.29871 7.50759
C 8.18545 6.87258 7.25005
C 7.01591 6.23594 7.11674
H 6.63918 9.63077 8.42219
H 6.33093 7.92336 8.53531
H 8.87933 8.99762 7.27793
H 9.1397 6.3629 7.0849
H 6.05622 6.74907 7.05234
H 6.99121 5.15811 6.93668
10
 Atoms. Timestep: 900
C 6.90415 8.61076 8.07743
C 8.06858 8.25459 7.51078
C 8.20607 6.87485 7.26578
C 7.03094 6.29328 7.09252
H 6.66755 9.6465 8.3206
H 6.16691 7.8445 8.4089
H 8.7936 9.0594 7.23375
H 9.16741 6.31349 7.24321
H 6.12959 6.89071 7.16358
H 6.94055 5.26457 6.83997
10
 Atoms. Timestep: 920
C 6.9053 8.61054 8.14223
C 8.05306 8.30791 7.56284
C 8.24091 6.83365 7.25315
C 7.03469 6.27259 7.03576
H 6.69779 9.71152 8.12178
H 6.06476 7.96703 8.45505
H 8.76664 9.03469 7.21581
H 9.19082 6.32019 7.33126
H 6.12894 6.86808 6.97368
H 6.87132 5.17035 6.82758
10
 Atoms. Timestep: 940
C 6.88809 8.61075 8.11692
C 8.0767 8.23981 7.59224
C 8.2133 6.86793 7.27154
C 7.04428 6.30125 7.01201
H 6.64251 9.66925 8.12722
H 6.15521 8.0279 8.59772
H 8.74823 9.03472 7.27811
H 9.14519 6.33016 7.3412
H 6.166 6.81642 6.67791
H 6.93263 5.22316 6.91054
10
 Atoms. Timestep: 960
C 6.8692 8.60149 8.06091
C 8.08059 8.25436 7.60793
C 8.20101 6.88026 7.31957
C 7.01051 6.31289 6.97905
H 6.6099 9.64867 8.22059
H 6.31285 7.8665 8.6706
H 8.8558 9.00411 7.34599
H 9.13506 6.27476 7.36977
H 6.19892 6.89375 6.50784
H 7.0436 5.23823 6.96946
10
 Atoms. Timestep: 980
C 6.87183 8.60651 8.07563
C 8.09831 8.33745 7.59333
C 8.17188 6.84222 7.35146
C 7.04349 6.30068 6.93832
H 6.51176 9.64337 8.29465
H 6.34399 7.72807 8.53858
H 8.94389 8.98599 7.39442
H 9.08187 6.26983 7.51452
H 6.22224 6.89005 6.51938
H 6.90727 5.18146 6.87505
10
 Atoms. Timestep: 1000
C 6.90242 8.56381 8.09548
C 8.1047 8.29054 7.56702
C 8.20026 6.89243 7.37734
C 7.04579 6.32091 6.92495
H 6.45745 9.51344 8.31013
H 6.19387 7.81674 8.31677
H 8.88955 9.02464 7.41659
H 9.03034 6.28593 7.71946
H 6.21311 6.9043 6.59488
H 6.82065 5.26886 6.74241
10
 Atoms. Timestep: 1020
C 6.87106 8.57525 8.11881
C 8.07537 8.27315 7.60915
C 8.2054 6.82924 7.34937
C 7.06546 6.33804 6.89323
H 6.60223 9.64225 8.26465
H 6.09392 7.83695 8.2351
H 8.8284 9.06252 7.41578
H 9.0571 6.28538 7.80033
H 6.27037 7.0153 6.5927
H 6.96826 5.28355 6.75708
10
 Atoms. Timestep: 1040
C 6.83906 8.61305 8.07876
C 8.03709 8.24961 7.68945
C 8.22637 6.83131 7.3604
C 7.09902 6.34075 6.86067
H 6.73778 9.70626 8.24282
H 6.01833 7.89979 8.39307
H 8.78927 8.99347 7.46299
H 9.06506 6.18318 7.64553
H 6.30518 7.00665 6.45578
H 6.9992 5.22228 6.75313
10
 Atoms. Timestep: 1060
C 6.80014 8.59785 8.01432
C 8.08091 8.19943 7.73854
C 8.22772 6.8602 7.40345
C 7.10298 6.37005 6.85655
H 6.63219 9.63493 8.2081
H 6.02819 8.04613 8.51294
H 8.84697 8.95492 7.59445
H 9.07096 6.21043 7.47034
H 6.32335 6.89575 6.36217
H 6.95184 5.31265 6.66379
10
 Atoms. Timestep: 1080
C 6.8176 8.61357 8.02222
C 8.08821 8.25432 7.78518
C 8.1945 6.80943 7.40907
C 7.06786 6.33535 6.81663
H 6.5103 9.69684 8.06297
H 6.09039 7.91169 8.38552
H 8.96352 8.9384 7.7729
H 9.1931 6.30875 7.48276
H 6.32832 7.01336 6.40414
H 7.02931 5.27495 6.58219
10
 Atoms. Timestep: 1100
C 6.84376 8.59118 8.02076
C 8.09713 8.23088 7.79961
C 8.16872 6.85961 7.40891
C 7.09003 6.37095 6.83104
H 6.44465 9.60925 7.98386
H 6.13056 7.73425 8.04969
H 8.96421 8.87629 7.88363
H 9.08798 6.29484 7.60595
H 6.2833 7.07403 6.53271
H 7.01552 5.31563 6.47126
10
 Atoms. Timestep: 1120
C 6.80885 8.59271 8.00776
C 8.11947 8.23705 7.84231
C 8.21501 6.87031 7.4169
C 7.10147 6.38966 6.79408
H 6.42164 9.58118 8.10694
H 6.08109 7.79832 7.85124
H 8.99726 8.86802 7.92618
H 8.96434 6.16238 7.69346
H 6.21212 6.91755 6.49485
H 6.97876 5.3542 6.44999
10
 Atoms. Timestep: 1140
C 6.81228 8.62937 7.98163
C 8.08041 8.2821 7.91063
C 8.18605 6.79731 7.39839
C 7.12338 6.359 6.72252
H 6.50123 9.65314 8.30593
H 6.02393 7.9367 7.89332
H 8.96774 8.92686 8.01477
H 9.00482 6.09953 7.70888
H 6.29051 6.90426 6.33527
H 7.12299 5.29284 6.5518
10
 Atoms. Timestep: 1160
C 6.80578 8.60699 7.92708
C 8.07366 8.15848 7.88749
C 8.15615 6.86797 7.45397
C 7.15548 6.39797 6.72532
H 6.67672 9.62048 8.39187
H 5.87422 8.0008 7.98222
H 8.82986 8.91793 8.16406
H 8.98562 6.18704 7.68025
H 6.42014 7.01984 6.15514
H 7.19097 5.28549 6.55229
10
 Atoms. Timestep: 1180
C 6.77124 8.60992 7.95471
C 8.00931 8.1934 7.89053
C 8.202 6.81225 7.47091
C 7.1833 6.41139 6.69915
H 6.73802 9.63445 8.24873
H 5.84621 8.03327 7.96357
H 8.87144 8.73146 8.28073
H 9.03379 6.2208 7.79638
H 6.56682 7.07636 6.11947
H 7.07265 5.36195 6.38828
10
 Atoms. Timestep: 1200
C 6.72951 8.63526 7.98356
C 8.03313 8.18034 7.93447
C 8.23033 6.74819 7.47711
C 7.20973 6.42688 6.65124
H 6.49725 9.72896 8.10881
H 5.86483 8.01455 7.83101
H 8.89101 8.72726 8.26644
H 9.01553 6.14734 7.92635
H 6.64134 7.2064 6.21566
H 6.99785 5.45142 6.26243
10
 Atoms. Timestep: 1220
C 6.79298 8.56746 7.91241
C 8.03198 8.10839 7.99958
C 8.18829 6.80581 7.52958
C 7.23281 6.51365 6.64077
H 6.36255 9.56425 8.04789
H 5.94455 7.90799 7.73369
H 8.82534 8.8568 8.18768
H 8.86994 6.01435 7.92585
H 6.62052 7.38725 6.28393
H 7.02476 5.51757 6.21596
10
 Atoms. Timestep: 1240
C 6.74925 8.6011 7.93103
C 8.02754 8.17864 8.08228
C 8.12209 6.75695 7.54678
C 7.29234 6.49541 6.52889
H 6.49639 9.66662 8.07665
H 6.03425 7.7894 7.80844
H 8.89708 8.88077 8.23385
H 8.78968 5.97129 7.92297
H 6.67917 7.2844 6.13017
H 7.08015 5.43495 6.18298
10
 Atoms. Timestep: 1260
C 6.76649 8.58028 7.95288
C 8.01392 8.17064 8.06481
C 8.09312 6.76869 7.57553
C 7.30305 6.52394 6.50358
H 6.53499 9.62087 8.09667
H 5.89888 7.92808 7.8918
H 8.86161 8.72505 8.35743
H 8.72082 6.015 7.99894
H 6.77109 7.15137 5.81576
H 7.27713 5.51829 6.14765
10
 Atoms. Timestep: 1280
C 6.74696 8.57984 7.95257
C 8.01148 8.07268 8.02228
C 8.08671 6.81091 7.5709
C 7.30531 6.54604 6.52419
H 6.51467 9.64507 8.17811
H 5.81297 8.04391 7.84172
H 8.82699 8.64638 8.47537
H 8.65056 6.03314 8.09674
H 6.93896 7.25637 5.74516
H 7.47715 5.53831 6.13221
10
 Atoms. Timestep: 1300
C 6.73182 8.61075 7.93753
C 7.93173 8.14654 8.07629
C 8.10623 6.72546 7.54342
C 7.35358 6.52935 6.48887
H 6.60252 9.66326 8.26643
H 5.88519 7.99035 7.69191
H 8.82952 8.6622 8.54139
H 8.64745 5.93361 8.12416
H 7.04205 7.41728 5.95262
H 7.37715 5.48069 6.03579
10
 Atoms. Timestep: 1320
C 6.72943 8.58818 7.86244
C 7.97217 8.06475 8.13103
C 8.12908 6.7408 7.62656
C 7.39666 6.58489 6.48356
H 6.48594 9.58035 8.22748
H 5.89249 7.97516 7.48651
H 8.70084 8.74318 8.54206
H 8.63461 5.89836 8.05871
H 6.95158 7.43336 6.01585
H 7.09447 5.71795 5.93679
10
 Atoms. Timestep: 1340
C 6.74725 8.58471 7.87327
C 7.93571 8.05979 8.17743
C 8.12062 6.71188 7.60826
C 7.43602 6.60994 6.45014
H 6.37896 9.58858 8.06117
H 5.93549 8.03195 7.42637
H 8.67776 8.65786 8.66315
H 8.68329 5.91659 8.08431
H 6.97279 7.51795 6.01277
H 7.03808 5.70915 5.98668
10
 Atoms. Timestep: 1360
C 6.7092 8.6136 7.88878
C 7.89994 8.06511 8.21112
C 8.099 6.71783 7.55759
C 7.42989 6.60597 6.42223
H 6.5056 9.71226 8.0153
H 5.95228 7.9746 7.46424
H 8.73106 8.4693 8.85984
H 8.67835 5.94304 8.11036
H 7.15648 7.54644 5.94205
H 7.27206 5.55927 6.0189
10
 Atoms. Timestep: 1380
C 6.74732 8.59295 7.84767
C 7.8922 7.99695 8.21343
C 8.07568 6.80541 7.61558
C 7.41224 6.62906 6.44266
H 6.59244 9.6336 8.08611
H 5.89364 8.00264 7.4972
H 8.60794 8.40577 8.92976
H 8.57161 5.93048 8.03302
H 7.16918 7.3939 5.73197
H 7.52455 5.70736 5.89491
10
 Atoms. Timestep: 1400
C 6.75382 8.64081 7.86604
C 7.87056 8.03718 8.28093
C 8.03604 6.71061 7.58642
C 7.4849 6.60947 6.37758
H 6.53596 9.65824 8.19831
H 5.89417 8.13711 7.43871
H 8.54074 8.50668 8.96414
H 8.56484 5.89036 8.05322
H 7.05274 7.38273 5.71528
H 7.66369 5.65643 5.85355
10
 Atoms. Timestep: 1420
C 6.7555 8.62444 7.83835
C 7.83733 7.99898 8.28823
C 8.01471 6.68654 7.60938
C 7.54475 6.66556 6.36957
H 6.49569 9.62338 8.25538
H 5.97813 8.20257 7.22195
H 8.56807 8.53175 8.93471
H 8.56952 5.85336 8.05182
H 6.97276 7.47762 5.91451
H 7.62614 5.67817 5.87748
10
 Atoms. Timestep: 1440
C 6.738 8.60779 7.81902
C 7.79613 7.93225 8.25978
C 8.04847 6.7289 7.66004
C 7.56246 6.70312 6.41207
H 6.51079 9.60637 8.20969
H 6.07279 8.19512 7.06364
H 8.55058 8.37981 8.935
H 8.54855 5.83552 8.04019
H 7.08414 7.54492 5.96442
H 7.48682 5.82589 5.7706
10
 Atoms. Timestep: 1460
C 6.69762 8.65204 7.84892
C 7.77121 7.98197 8.31181
C 8.09185 6.65457 7.59321
C 7.55866 6.67002 6.37329
H 6.52262 9.68806 8.14347
H 6.00464 8.23489 7.12656
H 8.43006 8.28625 9.10328
H 8.57874 5.84468 8.16026
H 7.38058 7.62557 5.88159
H 7.49131 5.7889 5.71042
10
 Atoms. Timestep: 1480
C 6.74397 8.61182 7.80527
C 7.78709 7.92942 8.32173
C 8.06084 6.70322 7.61627
C 7.54855 6.70945 6.35619
H 6.51775 9.62991 8.13059
H 5.9025 8.22552 7.23475
H 8.25269 8.31726 9.23993
H 8.50035 5.85339 8.13057
H 7.54694 7.66579 5.79178
H 7.56109 5.80462 5.76465
10
 Atoms. Timestep: 1500
C 6.75108 8.6162 7.79682
C 7.76202 7.92009 8.33337
C 7.99065 6.73188 7.63578
C 7.64711 6.73487 6.34065
H 6.55025 9.62132 8.22562
H 5.97734 8.08835 7.23609
H 8.28092 8.2863 9.23534
H 8.35262 5.79557 8.02296
H 7.47264 7.62169 5.75479
H 7.58512 5.78851 5.77448
10
 Atoms. Timestep: 1520
C 6.72637 8.63009 7.83086
C 7.73278 7.96663 8.38417
C 7.95426 6.65669 7.61225
C 7.72487 6.76635 6.30747
H 6.45872 9.62488 8.19262
H 6.10321 8.13027 7.10616
H 8.435 8.23817 9.14237
H 8.22456 5.69444 8.10943
H 7.38874 7.61792 5.76206
H 7.68411 5.7957 5.76783
10
 Atoms. Timestep: 1540
C 6.73404 8.59872 7.82338
C 7.74983 7.87091 8.36387
C 7.93297 6.67762 7.65963
C 7.70363 6.7945 6.34206
H 6.3587 9.58185 8.08474
H 6.13242 8.27041 6.97398
H 8.47055 8.31135 9.0847
H 8.12136 5.71898 8.13699
H 7.4641 7.73498 5.79452
H 7.85401 5.95198 5.68039
10
 Atoms. Timestep: 1560
C 6.72393 8.61037 7.82836
C 7.69079 7.90892 8.34271
C 7.93052 6.64252 7.63846
C 7.71913 6.76798 6.33247
H 6.51501 9.64715 8.19533
H 6.09878 8.21194 7.0357
H 8.34488 8.28974 9.15414
H 8.16433 5.71201 8.12338
H 7.71253 7.78819 5.94668
H 7.90225 5.99225 5.58177
10
 Atoms. Timestep: 1580
C 6.70235 8.64547 7.77777
C 7.68061 7.89363 8.35587
C 7.93081 6.61162 7.64174
C 7.76822 6.81237 6.3214
H 6.6272 9.63571 8.24294
H 5.93859 8.18954 7.15029
H 8.1814 8.19457 9.25129
H 8.23327 5.6644 8.13038
H 7.8487 7.79618 5.93428
H 7.8029 5.96106 5.59916
10
 Atoms. Timestep: 1600
C 6.74992 8.61926 7.76452
C 7.65042 7.80849 8.3578
C 7.9318 6.65765 7.66738
C 7.81671 6.85591 6.33759
H 6.50589 9.61871 8.09186
H 5.89544 8.31774 7.17048
H 8.11329 8.12043 9.2926
H 8.17902 5.68215 8.09047
H 7.84752 7.82071 5.82044
H 7.68977 6.01239 5.65941
10
 Atoms. Timestep: 1620
C 6.72098 8.63693 7.80401
C 7.59136 7.84117 8.43448
C 7.94678 6.64508 7.61036
C 7.85391 6.82799 6.29831
H 6.52821 9.71027 8.10561
H 6.11512 8.23061 6.96635
H 8.18058 8.07657 9.37041
H 8.07562 5.67532 8.08026
H 7.8053 7.84523 5.8559
H 7.74096 5.97501 5.62747
10
 Atoms. Timestep: 1640
C 6.73688 8.59847 7.78011
C 7.59618 7.83813 8.45759
C 7.91722 6.65969 7.63533
C 7.80285 6.867 6.30446
H 6.53749 9.58294 8.14224
H 6.39427 8.23553 6.8144
H 8.10453 8.08879 9.36553
H 8.01592 5.64055 8.03362
H 7.78002 7.84994 5.86775
H 7.97301 6.04247 5.60057
10
 Atoms. Timestep: 1660
C 6.75222 8.63374 7.80151
C 7.61126 7.79934 8.43071
C 7.86686 6.65122 7.6366
C 7.83081 6.85421 6.31009
H 6.40537 9.60621 8.1535
H 6.40012 8.36978 6.83321
H 7.963 8.07215 9.40776
H 8.07233 5.64896 8.00321
H 7.7857 7.81412 5.84447
H 8.13055 6.07769 5.57341
10
 Atoms. Timestep: 1680
C 6.7799 8.67787 7.78891
C 7.5453 7.82584 8.41692
C 7.86359 6.59279 7.59791
C 7.90628 6.85566 6.30607
H 6.40506 9.61609 8.28655
H 6.18889 8.47139 6.88398
H 7.89812 7.89447 9.49791
H 8.15918 5.6577 8.07025
H 7.80047 7.85297 5.84598
H 8.10181 6.0144 5.64548
10
 Atoms. Timestep: 1700
C 6.78492 8.68749 7.72819
C 7.49722 7.72562 8.39873
C 7.88834 6.64326 7.65378
C 7.92454 6.89581 6.3274
H 6.58775 9.54873 8.35255
H 6.11006 8.50456 6.87302
H 7.82439 7.84228 9.43026
H 8.15053 5.65743 8.06997
H 7.84923 7.89358 5.87604
H 8.03186 6.06032 5.63862
10
 Atoms. Timestep: 1720
C 6.76371 8.66264 7.77511
C 7.42345 7.72854 8.41988
C 7.94088 6.62409 7.62081
C 7.93448 6.89342 6.32855
H 6.67526 9.64292 8.24059
H 6.26634 8.54484 6.84319
H 7.73935 7.93426 9.39946
H 8.08754 5.63 8.0378
H 7.95453 7.88754 5.96878
H 8.02584 6.12828 5.53305
10
 Atoms. Timestep: 1740
C 6.73869 8.65549 7.7656
C 7.44138 7.72511 8.46876
C 7.91407 6.57598 7.6228
C 7.93764 6.92847 6.30299
H 6.58221 9.71482 8.13369
H 6.44362 8.53816 6.72407
H 7.74387 7.9468 9.54235
H 8.04953 5.56719 8.00048
H 8.0058 7.97204 6.01508
H 8.10829 6.17071 5.51244
10
 Atoms. Timestep: 1760
C 6.78482 8.64028 7.75202
C 7.47324 7.73515 8.44755
C 7.81405 6.61575 7.62431
C 7.98097 6.94677 6.34667
H 6.4181 9.56152 8.15912
H 6.47897 8.42831 6.70745
H 7.71606 7.78431 9.52509
H 7.99046 5.56858 7.92657
H 8.01449 7.99661 5.98181
H 8.18742 6.25298 5.56564
10
 Atoms. Timestep: 1780
C 6.77383 8.68585 7.78819
C 7.46115 7.74173 8.4404
C 7.77329 6.62908 7.57862
C 8.08261 6.92684 6.31959
H 6.32168 9.54317 8.29589
H 6.3618 8.40043 6.84683
H 7.67312 7.70257 9.46535
H 7.84318 5.60649 7.97353
H 8.10236 7.94257 5.9773
H 8.27659 6.1237 5.56926
10
 Atoms. Timestep: 1800
C 6.77809 8.64112 7.75478
C 7.42961 7.70617 8.43812
C 7.7939 6.60489 7.57725
C 8.07829 6.99355 6.3321
H 6.42671 9.51672 8.3363
H 6.22399 8.53262 6.83146
H 7.67903 7.76442 9.52353
H 7.67838 5.62365 7.97231
H 8.29222 7.95921 5.93182
H 8.34431 6.14899 5.68004
10
 Atoms. Timestep: 1820
C 6.72656 8.63172 7.76424
C 7.38433 7.66691 8.42825
C 7.8151 6.60316 7.62011
C 8.09076 6.99419 6.34245
H 6.61803 9.60636 8.29984
H 6.27479 8.58998 6.75513
H 7.68591 7.88684 9.48462
H 7.6617 5.50952 7.78414
H 8.43755 8.01362 6.05009
H 8.34556 6.23781 5.5849
10
 Atoms. Timestep: 1840
C 6.71532 8.6542 7.7708
C 7.33392 7.68957 8.44542
C 7.80597 6.55114 7.56149
C 8.14019 6.99886 6.38633
H 6.66104 9.63435 8.17955
H 6.42005 8.50759 6.74227
H 7.67952 7.84853 9.43265
H 7.74444 5.45001 7.7309
H 8.39534 8.05498 6.30151
H 8.25115 6.36198 5.51786
10
 Atoms. Timestep: 1860
C 6.78828 8.65358 7.71633
C 7.35102 7.62266 8.4431
C 7.71875 6.52663 7.60066
C 8.181 7.08128 6.39305
H 6.49509 9.65478 8.10427
H 6.45591 8.44261 6.70522
H 7.62683 7.70043 9.50615
H 7.73501 5.49564 7.86126
H 8.30765 8.14425 6.32269
H 8.26926 6.47735 5.47059
10
 Atoms. Timestep: 1880
C 6.80516 8.6564 7.7627
C 7.32305 7.64372 8.432
C 7.72416 6.58029 7.53277
C 8.215 7.02365 6.39975
H 6.39707 9.63061 8.15085
H 6.41172 8.47696 6.76545
H 7.44071 7.52917 9.55002
H 7.6645 5.56217 7.92952
H 8.36529 8.08918 6.27857
H 8.44047 6.50761 5.45126
10
 Atoms. Timestep: 1900
C 6.75834 8.67612 7.77958
C 7.28771 7.64068 8.44158
C 7.76378 6.60805 7.53939
C 8.21765 7.02323 6.3468
H 6.47864 9.54496 8.36173
H 6.47399 8.58512 6.73841
H 7.26431 7.50361 9.50208
H 7.58868 5.50668 7.78907
H 8.52809 8.08586 6.25248
H 8.62542 6.30534 5.60111
10
 Atoms. Timestep: 1920
C 6.77438 8.6464 7.74914
C 7.24479 7.57618 8.42124
C 7.77445 6.58876 7.56159
C 8.19774 7.10223 6.3925
H 6.51609 9.45614 8.40251
H 6.60233 8.79871 6.67835
H 7.203 7.58148 9.49078
H 7.63577 5.55019 7.58815
H 8.61814 8.06335 6.1352
H 8.6005 6.28875 5.84722
10
 Atoms. Timestep: 1940
C 6.76223 8.67635 7.79942
C 7.15169 7.56416 8.39577
C 7.76056 6.57172 7.53123
C 8.30773 7.07237 6.41834
H 6.41561 9.60072 8.39203
H 6.75084 8.87985 6.73417
H 7.21066 7.57318 9.52971
H 7.72411 5.48029 7.60698
H 8.54604 8.09025 6.13663
H 8.58348 6.28818 5.62092
10
 Atoms. Timestep: 1960
C 6.838 8.68935 7.76846
C 7.10194 7.55634 8.40364
C 7.72748 6.56713 7.49376
C 8.33367 7.08456 6.45146
H 6.4048 9.50977 8.31638
H 6.83863 8.77624 6.70425
H 7.12213 7.36699 9.47559
H 7.74219 5.47134 7.82097
H 8.38467 8.15792 6.3174
H 8.62507 6.55346 5.55052
10
 Atoms. Timestep: 1980
C 6.86773 8.70505 7.7508
C 7.12991 7.49802 8.37798
C 7.69996 6.54574 7.5379
C 8.31357 7.13169 6.43559
H 6.46144 9.54678 8.26341
H 6.81757 8.72073 6.65489
H 6.88371 7.26659 9.39364
H 7.71053 5.51661 7.82435
H 8.39187 8.22649 6.53746
H 8.79179 6.65986 5.6016
10
 Atoms. Timestep: 2000
C 6.79673 8.70343 7.80775
C 7.10023 7.55184 8.35414
C 7.76514 6.5126 7.47631
C 8.33821 7.10408 6.46107
H 6.53332 9.67224 8.31683
H 6.73639 8.81947 6.72205
H 6.68918 7.29088 9.35741
H 7.67278 5.46497 7.66198
H 8.59576 8.13558 6.59733
H 8.89468 6.60517 5.63779
10
 Atoms. Timestep: 2020
C 6.79754 8.69487 7.75029
C 7.04824 7.49196 8.34762
C 7.72153 6.54086 7.50356
C 8.40468 7.16956 6.50856
H 6.51759 9.5085 8.46564
H 6.77836 8.92931 6.70312
H 6.79586 7.32917 9.41497
H 7.58181 5.38689 7.45906
H 8.78903 8.18368 6.45774
H 8.8294 6.49894 5.72834
10
 Atoms. Timestep: 2040
C 6.80835 8.65601 7.7641
C 6.98951 7.46608 8.33725
C 7.67432 6.60083 7.46075
C 8.48939 7.16492 6.55682
H 6.41441 9.37434 8.4401
H 6.88077 8.91785 6.7179
H 6.96869 7.35851 9.38927
H 7.48982 5.5524 7.39133
H 8.81758 8.20617 6.45955
H 8.78334 6.48367 5.7773
10
 Atoms. Timestep: 2060
C 6.78033 8.66814 7.8147
C 6.9903 7.48015 8.3432
C 7.6486 6.59432 7.38317
C 8.54213 7.14125 6.56981
H 6.30268 9.52627 8.34003
H 6.94183 8.81028 6.73058
H 6.9366 7.28402 9.43084
H 7.41282 5.57376 7.35695
H 8.81357 8.18924 6.6231
H 8.94836 6.53326 5.7422
10
 Atoms. Timestep: 2080
C 6.8249 8.66608 7.76787
C 7.04819 7.47237 8.35481
C 7.61108 6.54854 7.3884
C 8.47432 7.2177 6.59561
H 6.36764 9.54643 8.23689
H 6.92245 8.7591 6.69529
H 6.74655 7.14565 9.38005
H 7.34463 5.42407 7.27613
H 8.8815 8.19987 6.81195
H 9.11032 6.7167 5.84855
10
 Atoms. Timestep: 2100
C 6.79343 8.68453 7.77081
C 7.02584 7.46762 8.3259
C 7.64242 6.54005 7.38525
C 8.50831 7.1911 6.60554
H 6.48652 9.57707 8.34464
H 6.87115 8.75708 6.71415
H 6.62835 7.16996 9.27096
H 7.35102 5.49194 7.24299
H 8.84313 8.13459 7.02232
H 9.1238 6.78956 5.76895
10
 Atoms. Timestep: 2120
C 6.80467 8.67055 7.78533
C 6.93251 7.44639 8.26989