LAMMPS (2 Aug 2023 - Update 2)
#13 Butadiene
units           metal
boundary        p p p
atom_style      atomic

neighbor        2.0 bin
neigh_modify    delay 0 every 1 check yes

read_data       restart.lmp
Reading data file ...
  orthogonal box = (0 0 0) to (15 15 15)
  1 by 1 by 3 MPI processor grid
  reading atoms ...
  10 atoms
  reading velocities ...
  10 velocities
  read_data CPU = 0.001 seconds
mass            1 12.0
mass            2 2

variable        sysvol          equal vol
variable        sysmass         equal mass(all)/6.0221367e+23
variable        sysdensity      equal v_sysmass/v_sysvol/1.0e-24
variable	out_freq 	equal 100

pair_style      deepmd ../files/frozen_model_1_compressed.pb ../files/frozen_model_2_compressed.pb ../files/frozen_model_3_compressed.pb ../files/frozen_model_3_compressed.pb out_file md.out out_freq 10 atomic relative 1.0
Summary of lammps deepmd module ...
  >>> Info of deepmd-kit:
  installed to:       /rs1/researchers/w/wjpfaend/rahul/MLP/DeePMD-kit/deepmd_cpu
  source:             v2.2.8-dirty
  source branch:      master
  source commit:      b875ea8
  source commit at:   2024-01-22 22:28:58 -0500
  support model ver.: 1.1 
  build variant:      cpu
  build with tf inc:  /rs1/researchers/w/wjpfaend/rahul/MLP/DeePMD-kit/tensorflow/lib/python3.11/site-packages/tensorflow/include;/rs1/researchers/w/wjpfaend/rahul/MLP/DeePMD-kit/tensorflow/lib/python3.11/site-packages/tensorflow/include
  build with tf lib:  /rs1/researchers/w/wjpfaend/rahul/MLP/DeePMD-kit/tensorflow/lib/python3.11/site-packages/tensorflow/libtensorflow_cc.so.2
  set tf intra_op_parallelism_threads: 0
  set tf inter_op_parallelism_threads: 0
  >>> Info of lammps module:
  use deepmd-kit at:  /rs1/researchers/w/wjpfaend/rahul/MLP/DeePMD-kit/deepmd_cpu
  source:             v2.2.8-dirty
  source branch:      master
  source commit:      b875ea8
  source commit at:   2024-01-22 22:28:58 -0500
  build float prec:   double
  build with tf inc:  /rs1/researchers/w/wjpfaend/rahul/MLP/DeePMD-kit/tensorflow/lib/python3.11/site-packages/tensorflow/include;/rs1/researchers/w/wjpfaend/rahul/MLP/DeePMD-kit/tensorflow/lib/python3.11/site-packages/tensorflow/include
  build with tf lib:  /rs1/researchers/w/wjpfaend/rahul/MLP/DeePMD-kit/tensorflow/lib/python3.11/site-packages/tensorflow/libtensorflow_cc.so.2
pair_coeff	* *

#
velocity        all create 300.0 2345678 rot no dist gaussian
fix             1 all nvt temp 300.0 300.0 0.05
fix             2 all plumed plumedfile plumed.dat outfile PLUMED.log

timestep        0.0005
thermo_style    custom step pe ke etotal v_sysdensity temp press vol
thermo          10

dump            10 all custom 100 btd.dump id type x y z
dump		101 all xyz 20 btd.xyz
dump_modify	101 element C H

fix		extra all print 20 "$(step), $(ke), $(pe), $(etotal), $(temp), $(press), $(vol)" file logfile screen no

restart	        20000 dump.restart

run             50000

CITE-CITE-CITE-CITE-CITE-CITE-CITE-CITE-CITE-CITE-CITE-CITE-CITE

Your simulation uses code contributions which should be cited:

- USER-DEEPMD package:

@article{Wang_ComputPhysCommun_2018_v228_p178,
  author = {Wang, Han and Zhang, Linfeng and Han, Jiequn and E, Weinan},
  doi = {10.1016/j.cpc.2018.03.016},
  url = {https://doi.org/10.1016/j.cpc.2018.03.016},
  year = 2018,
  month = {jul},
  publisher = {Elsevier {BV}},
  volume = 228,
  journal = {Comput. Phys. Commun.},
  title = {{DeePMD-kit: A deep learning package for many-body potential energy representation and molecular dynamics}},
  pages = {178--184}
}
@misc{Zeng_JChemPhys_2023_v159_p054801,
  title  = {{DeePMD-kit v2: A software package for deep potential models}},
  author =   {Jinzhe Zeng and Duo Zhang and Denghui Lu and Pinghui Mo and Zeyu Li
         and Yixiao Chen and Mari{\'a}n Rynik and Li'ang Huang and Ziyao Li and 
         Shaochen Shi and Yingze Wang and Haotian Ye and Ping Tuo and Jiabin
         Yang and Ye Ding and Yifan Li and Davide Tisi and Qiyu Zeng and Han 
         Bao and Yu Xia and Jiameng Huang and Koki Muraoka and Yibo Wang and 
         Junhan Chang and Fengbo Yuan and Sigbj{\o}rn L{\o}land Bore and Chun
         Cai and Yinnian Lin and Bo Wang and Jiayan Xu and Jia-Xin Zhu and 
         Chenxing Luo and Yuzhi Zhang and Rhys E A Goodall and Wenshuo Liang
         and Anurag Kumar Singh and Sikai Yao and Jingchao Zhang and Renata
         Wentzcovitch and Jiequn Han and Jie Liu and Weile Jia and Darrin M
         York and Weinan E and Roberto Car and Linfeng Zhang and Han Wang},
  journal =  {J. Chem. Phys.},
  volume =   159,
  issue =    5,  
  year =    2023,
  pages  =   054801,
  doi =      {10.1063/5.0155600},
}

CITE-CITE-CITE-CITE-CITE-CITE-CITE-CITE-CITE-CITE-CITE-CITE-CITE

Generated 0 of 1 mixed pair_coeff terms from geometric mixing rule
Neighbor list info ...
  update: every = 1 steps, delay = 0 steps, check = yes
  max neighbors/atom: 2000, page size: 100000
  master list distance cutoff = 8
  ghost atom cutoff = 8
  binsize = 4, bins = 4 4 4
  1 neighbor lists, perpetual/occasional/extra = 1 0 0
  (1) pair deepmd, perpetual
      attributes: full, newton on
      pair build: full/bin/atomonly
      stencil: full/bin/3d
      bin: standard
Per MPI rank memory allocation (min/avg/max) = 2.958 | 2.999 | 3.082 Mbytes
   Step         PotEng         KinEng         TotEng      v_sysdensity       Temp          Press          Volume    
         0  -56.106806      0.34900239    -55.757803      0.029520714    300           -1562.3166      3375         
        10  -55.875984      0.5533758     -55.322608      0.029520714    475.67795     -281.15878      3375         
        20  -55.859668      0.51677703    -55.342891      0.029520714    444.2179       1255.6751      3375         
        30  -55.773756      0.41750667    -55.35625       0.029520714    358.88579      848.17158      3375         
        40  -56.03266       0.63934848    -55.393311      0.029520714    549.57945     -274.2666       3375         
        50  -55.706449      0.30319096    -55.403259      0.029520714    260.62081     -164.12778      3375         
        60  -55.656374      0.26144966    -55.394924      0.029520714    224.74029     -1011.1368      3375         
        70  -55.939921      0.54210679    -55.397814      0.029520714    465.99118     -559.7073       3375         
        80  -55.916335      0.46925022    -55.447085      0.029520714    403.36419      1461.0495      3375         
        90  -55.932583      0.46046998    -55.472113      0.029520714    395.81675      1207.5256      3375         
       100  -55.834169      0.30213134    -55.532038      0.029520714    259.70997     -461.0998       3375         
       110  -55.710725      0.20002481    -55.5107        0.029520714    171.93992     -1546.6089      3375         
       120  -56.025386      0.52434937    -55.501037      0.029520714    450.72703     -1150.4338      3375         
       130  -56.019723      0.45952446    -55.560199      0.029520714    395.00399      1033.4222      3375         
       140  -55.926062      0.33786192    -55.5882        0.029520714    290.42373      1414.7369      3375         
       150  -55.95684       0.3238018     -55.633038      0.029520714    278.33775     -548.56746      3375         
       160  -55.852331      0.22835116    -55.62398       0.029520714    196.28905     -451.47944      3375         
       170  -56.040494      0.41962172    -55.620872      0.029520714    360.70387      347.55329      3375         
       180  -56.060762      0.41301645    -55.647746      0.029520714    355.02604      113.8193       3375         
       190  -55.870669      0.20590103    -55.664768      0.029520714    176.99108      221.1876       3375         
       200  -55.93514       0.25600884    -55.679131      0.029520714    220.0634      -449.72077      3375         
       210  -55.943008      0.25841001    -55.684598      0.029520714    222.12743     -746.18692      3375         
       220  -55.930232      0.25908356    -55.671148      0.029520714    222.70641      391.49439      3375         
       230  -56.052712      0.38875847    -55.663953      0.029520714    334.17405      379.72005      3375         
       240  -55.964761      0.29312544    -55.671636      0.029520714    251.96857      299.46544      3375         
       250  -55.959553      0.2821744     -55.677378      0.029520714    242.55512      616.77039      3375         
       260  -55.992905      0.3003291     -55.692576      0.029520714    258.16078     -572.45669      3375         
       270  -55.918531      0.24361138    -55.67492       0.029520714    209.40663     -1117.8884      3375         
       280  -56.004228      0.34493452    -55.659293      0.029520714    296.50329      100.22741      3375         
       290  -56.037141      0.37915878    -55.657982      0.029520714    325.92222      757.79307      3375         
       300  -55.974303      0.31032723    -55.663976      0.029520714    266.75511      918.12492      3375         
       310  -56.001026      0.31697397    -55.684052      0.029520714    272.46859     -51.926763      3375         
       320  -55.872609      0.20436147    -55.668247      0.029520714    175.66769     -1690.4774      3375         
       330  -55.896698      0.26497362    -55.631724      0.029520714    227.76946     -431.41219      3375         
       340  -56.025243      0.38480042    -55.640443      0.029520714    330.77173      1175.0594      3375         
       350  -55.956806      0.31986129    -55.636944      0.029520714    274.95052      639.31169      3375         
       360  -55.914341      0.27808384    -55.636257      0.029520714    239.03891     -30.866991      3375         
       370  -55.923364      0.27418905    -55.649175      0.029520714    235.69098     -684.86942      3375         
       380  -55.913275      0.30510544    -55.608169      0.029520714    262.26649     -710.32089      3375         
       390  -56.010015      0.40698682    -55.603028      0.029520714    349.843        446.80202      3375         
       400  -55.968322      0.37475583    -55.593566      0.029520714    322.13747      432.69455      3375         
       410  -55.914745      0.32949546    -55.58525       0.029520714    283.23198      109.42817      3375         
       420  -55.931978      0.34202747    -55.58995       0.029520714    294.00441      313.05384      3375         
       430  -55.957358      0.37578662    -55.581571      0.029520714    323.02353     -419.21687      3375         
       440  -55.931664      0.39017647    -55.541487      0.029520714    335.39294     -819.14443      3375         
       450  -55.916261      0.37254552    -55.543716      0.029520714    320.2375       205.8657       3375         
       460  -55.854976      0.31650312    -55.538472      0.029520714    272.06385      673.25033      3375         
       470  -55.87629       0.34497288    -55.531317      0.029520714    296.53626      76.093695      3375         
       480  -55.885423      0.34160738    -55.543815      0.029520714    293.6433      -537.25914      3375         
       490  -55.898136      0.39706286    -55.501073      0.029520714    341.31244     -411.82899      3375         
       500  -55.927158      0.44032436    -55.486834      0.029520714    378.49972      1024.6711      3375         
       510  -55.880707      0.39251061    -55.488196      0.029520714    337.39936      1181.7762      3375         
       520  -55.830643      0.35299857    -55.477644      0.029520714    303.43509     -478.04257      3375         
       530  -55.864022      0.39172374    -55.472299      0.029520714    336.72297     -1479.4696      3375         
       540  -55.957985      0.50088048    -55.457105      0.029520714    430.55334     -664.70944      3375         
       550  -55.932965      0.51676738    -55.416198      0.029520714    444.2096       356.00708      3375         
       560  -55.886141      0.47305026    -55.41309       0.029520714    406.63068      739.74844      3375         
       570  -55.808405      0.40267989    -55.405725      0.029520714    346.1408       738.22579      3375         
       580  -55.718573      0.32198704    -55.396586      0.029520714    276.7778       273.35796      3375         
       590  -55.853489      0.45320001    -55.400289      0.029520714    389.56754     -630.0051       3375         
       600  -55.900134      0.531765      -55.368369      0.029520714    457.10145     -1072.7025      3375         
       610  -55.813057      0.48353457    -55.329523      0.029520714    415.64292     -52.365116      3375         
       620  -55.78255       0.4524066     -55.330144      0.029520714    388.88553      958.99103      3375         
       630  -55.792672      0.46994359    -55.322728      0.029520714    403.96021      611.95753      3375         
       640  -55.752757      0.44007071    -55.312686      0.029520714    378.28169     -619.12315      3375         
       650  -55.88182       0.58477694    -55.297043      0.029520714    502.67014     -828.9465       3375         
       660  -55.835692      0.57008809    -55.265604      0.029520714    490.04371     -169.05138      3375         
       670  -55.740046      0.47984598    -55.2602        0.029520714    412.47223      196.24608      3375         
       680  -55.808364      0.5411658     -55.267198      0.029520714    465.18231      684.44439      3375         
       690  -55.820637      0.542717      -55.27792       0.029520714    466.51571      726.08832      3375         
       700  -55.753268      0.45900773    -55.29426       0.029520714    394.55982     -207.63747      3375         
       710  -55.812102      0.50502346    -55.307079      0.029520714    434.11461     -754.072        3375         
       720  -55.86833       0.54931635    -55.319013      0.029520714    472.18847     -162.33537      3375         
       730  -55.740849      0.39259151    -55.348258      0.029520714    337.4689       140.35663      3375         
       740  -55.795496      0.41791438    -55.377582      0.029520714    359.23626      243.24639      3375         
       750  -55.880637      0.46507271    -55.415564      0.029520714    399.77323     -173.4918       3375         
       760  -55.858935      0.41375043    -55.445185      0.029520714    355.65696     -387.43666      3375         
       770  -55.856902      0.40310106    -55.453801      0.029520714    346.50284      520.45575      3375         
       780  -55.928212      0.43220735    -55.496005      0.029520714    371.5224       472.46959      3375         
       790  -55.852616      0.32833164    -55.524284      0.029520714    282.23156      1.3565934      3375         
       800  -55.873753      0.32356773    -55.550186      0.029520714    278.13654     -16.620725      3375         
       810  -56.009397      0.42279661    -55.586601      0.029520714    363.43299     -817.72245      3375         
       820  -55.980287      0.3813984     -55.598888      0.029520714    327.84738     -707.60168      3375         
       830  -55.931554      0.32818531    -55.603369      0.029520714    282.10578      765.95293      3375         
       840  -55.915415      0.2845322     -55.630883      0.029520714    244.58188      986.63414      3375         
       850  -55.945697      0.30180338    -55.643894      0.029520714    259.42806      601.19886      3375         
       860  -55.934391      0.27329733    -55.661093      0.029520714    234.92446     -627.64354      3375         
       870  -55.954841      0.27944208    -55.675399      0.029520714    240.20644     -1943.3185      3375         
       880  -56.013077      0.36854807    -55.644529      0.029520714    316.80133     -335.85001      3375         
       890  -55.976042      0.31030155    -55.665741      0.029520714    266.73303      1543.7312      3375         
       900  -55.921052      0.24177554    -55.679277      0.029520714    207.82856      1107.5567      3375         
       910  -56.028201      0.34002332    -55.688178      0.029520714    292.28165      159.91303      3375         
       920  -55.945825      0.24895361    -55.696871      0.029520714    213.99877     -1224.3008      3375         
       930  -55.972795      0.29077533    -55.68202       0.029520714    249.94843     -1255.6544      3375         
       940  -56.048432      0.37871541    -55.669717      0.029520714    325.54111      663.9851       3375         
       950  -55.946071      0.26138685    -55.684684      0.029520714    224.6863       972.16307      3375         
       960  -55.992683      0.30238346    -55.690299      0.029520714    259.9267       253.09407      3375         
       970  -55.964386      0.27528312    -55.689103      0.029520714    236.63143     -107.50004      3375         
       980  -55.962601      0.27907709    -55.683524      0.029520714    239.8927      -1079.0758      3375         
       990  -56.045553      0.37388763    -55.671666      0.029520714    321.39118     -573.70796      3375         
      1000  -55.895859      0.22853361    -55.667325      0.029520714    196.44589      1035.8798      3375         
      1010  -55.909226      0.24055428    -55.668671      0.029520714    206.77876      691.357        3375         
      1020  -56.025621      0.35446008    -55.671161      0.029520714    304.69139      60.855721      3375         
      1030  -55.950583      0.29202841    -55.658554      0.029520714    251.02557     -456.21236      3375         
      1040  -55.986712      0.36148609    -55.625226      0.029520714    310.7309      -813.42053      3375         
      1050  -55.984673      0.37058938    -55.614084      0.029520714    318.55602      521.12263      3375         
      1060  -55.832377      0.22379998    -55.608577      0.029520714    192.37689      1205.9368      3375         
      1070  -55.963108      0.36377876    -55.599329      0.029520714    312.70167     -621.34092      3375         
      1080  -55.991557      0.40674209    -55.584815      0.029520714    349.63264     -1473.7469      3375         
      1090  -55.91316       0.37743553    -55.535725      0.029520714    324.44093     -579.49773      3375         
      1100  -55.924894      0.41181604    -55.513078      0.029520714    353.99417      970.57769      3375         
      1110  -55.771367      0.27065944    -55.500708      0.029520714    232.65695      2195.3684      3375         
      1120  -55.886529      0.40091047    -55.485619      0.029520714    344.61982      505.54116      3375         
      1130  -55.871437      0.40626854    -55.465169      0.029520714    349.22558     -1970.3379      3375         
      1140  -55.82855       0.39570202    -55.432848      0.029520714    340.14267     -1400.659       3375         
      1150  -55.902426      0.52170004    -55.380726      0.029520714    448.44968     -47.204974      3375         
      1160  -55.805214      0.43710607    -55.368107      0.029520714    375.73331      617.56866      3375         
      1170  -55.750216      0.38727048    -55.362946      0.029520714    332.89498      1808.7925      3375         
      1180  -55.981233      0.63373704    -55.347496      0.029520714    544.7559       671.44259      3375         
      1190  -55.712111      0.36491552    -55.347196      0.029520714    313.67881     -1895.9037      3375         
      1200  -55.814347      0.5021374     -55.31221       0.029520714    431.63377     -1864.3357      3375         
      1210  -55.953611      0.65450386    -55.299107      0.029520714    562.60691      95.048173      3375         
      1220  -55.628633      0.30287501    -55.325758      0.029520714    260.34922      2223.4952      3375         
      1230  -55.836017      0.51144602    -55.324571      0.029520714    439.6354       2165.2419      3375         
      1240  -55.892923      0.53498861    -55.357935      0.029520714    459.87245     -1502.8969      3375         
      1250  -55.754416      0.41316539    -55.341251      0.029520714    355.15406     -2652.1725      3375         
      1260  -55.933371      0.59425329    -55.339118      0.029520714    510.81594      340.19369      3375         
      1270  -55.76034       0.38131685    -55.379023      0.029520714    327.77728      1532.9409      3375         
      1280  -55.747912      0.34344917    -55.404463      0.029520714    295.22649      785.50848      3375         
      1290  -55.915284      0.49098605    -55.424298      0.029520714    422.04816     -538.15286      3375         
      1300  -55.75301       0.3473123     -55.405697      0.029520714    298.54721     -1108.6585      3375         
      1310  -56.05756       0.63039429    -55.427166      0.029520714    541.8825      -330.15232      3375         
      1320  -55.888604      0.43279366    -55.455811      0.029520714    372.02639      638.76591      3375         
      1330  -55.656535      0.18529247    -55.471243      0.029520714    159.27611      685.96696      3375         
      1340  -55.951816      0.4643244     -55.487492      0.029520714    399.12999      556.0075       3375         
      1350  -55.89887       0.39744557    -55.501424      0.029520714    341.64142     -625.44048      3375         
      1360  -55.853843      0.3627498     -55.491093      0.029520714    311.81717     -1507.5616      3375         
      1370  -56.022776      0.52575739    -55.497019      0.029520714    451.93735      125.86083      3375         
      1380  -55.793054      0.27806297    -55.514991      0.029520714    239.02097      1977.1592      3375         
      1390  -55.936732      0.40924848    -55.527484      0.029520714    351.78712      1207.9342      3375         
      1400  -55.98584       0.41757202    -55.568268      0.029520714    358.94197     -1381.6684      3375         
      1410  -55.763795      0.24945933    -55.514335      0.029520714    214.43348     -2710.9159      3375         
      1420  -56.0071        0.49317517    -55.513924      0.029520714    423.92991     -412.72758      3375         
      1430  -55.865288      0.32086772    -55.54442       0.029520714    275.81563      2478.0649      3375         
      1440  -55.835334      0.28464675    -55.550687      0.029520714    244.68034      1966.1505      3375         
      1450  -56.079015      0.49774571    -55.581269      0.029520714    427.85871     -751.86124      3375         
      1460  -55.884944      0.33094956    -55.553994      0.029520714    284.48191     -1725.8946      3375         
      1470  -55.838534      0.28696413    -55.55157       0.029520714    246.67235     -753.8237       3375         
      1480  -55.971538      0.40002882    -55.571509      0.029520714    343.86196      254.84569      3375         
      1490  -55.821805      0.24416776    -55.577637      0.029520714    209.88489      1001.4302      3375         
      1500  -56.064941      0.4763018     -55.588639      0.029520714    409.42568      729.52303      3375         
      1510  -55.955314      0.35045407    -55.60486       0.029520714    301.24785     -135.02888      3375         
      1520  -55.898705      0.31027206    -55.588433      0.029520714    266.70768     -1042.9145      3375         
      1530  -55.974952      0.38656362    -55.588388      0.029520714    332.28737     -1065.7528      3375         
      1540  -55.841311      0.23859489    -55.602716      0.029520714    205.09449      619.3046       3375         
      1550  -55.914271      0.30347821    -55.610793      0.029520714    260.86773      2032.1662      3375         
      1560  -56.08838       0.4525723     -55.635807      0.029520714    389.02796      153.53692      3375         
      1570  -55.892494      0.26853861    -55.623955      0.029520714    230.8339      -1914.0246      3375         
      1580  -55.948426      0.34747174    -55.600955      0.029520714    298.68426     -767.20698      3375         
      1590  -55.948626      0.31816398    -55.630462      0.029520714    273.49152      987.53671      3375         
      1600  -55.85274       0.21762851    -55.635112      0.029520714    187.07193      1426.6933      3375         
      1610  -56.044914      0.38656591    -55.658348      0.029520714    332.28934     -273.38661      3375         
      1620  -55.962494      0.32557865    -55.636916      0.029520714    279.86512     -1772.4744      3375         
      1630  -55.983747      0.3556345     -55.628113      0.029520714    305.70091     -60.681636      3375         
      1640  -55.972752      0.32450401    -55.648248      0.029520714    278.94137      1023.7867      3375         
      1650  -55.837554      0.18365585    -55.653898      0.029520714    157.86927      398.44777      3375         
      1660  -56.000912      0.33681551    -55.664097      0.029520714    289.52424      425.12111      3375         
      1670  -56.049676      0.3825749     -55.667101      0.029520714    328.85869     -208.20636      3375         
      1680  -55.928826      0.27789413    -55.650932      0.029520714    238.87584     -1213.6009      3375         
      1690  -55.97303       0.3245581     -55.648472      0.029520714    278.98786     -604.12787      3375         
      1700  -55.941674      0.28792576    -55.653749      0.029520714    247.49895      435.10729      3375         
      1710  -55.943366      0.28395413    -55.659412      0.029520714    244.08497      1573.8621      3375         
      1720  -56.019949      0.34391836    -55.67603       0.029520714    295.6298       929.43835      3375         
      1730  -55.909089      0.24992487    -55.659164      0.029520714    214.83366     -2075.3761      3375         
      1740  -55.937464      0.30791873    -55.629546      0.029520714    264.68477     -1528.7587      3375         
      1750  -55.977018      0.32892063    -55.648097      0.029520714    282.73786      1172.2493      3375         
      1760  -56.002549      0.36153834    -55.641011      0.029520714    310.77581      1293.5614      3375         
      1770  -56.019         0.36356327    -55.655436      0.029520714    312.51643      148.17264      3375         
      1780  -55.911053      0.27246416    -55.638589      0.029520714    234.20828     -870.83115      3375         
      1790  -55.892421      0.30930157    -55.583119      0.029520714    265.87345     -492.95573      3375         
      1800  -55.955993      0.35802599    -55.597967      0.029520714    307.75662      715.77463      3375         
      1810  -55.906982      0.31388598    -55.593096      0.029520714    269.81418      229.41073      3375         
      1820  -55.974895      0.39735287    -55.577542      0.029520714    341.56173     -722.95669      3375         
      1830  -55.910171      0.34808966    -55.562081      0.029520714    299.21542      238.73842      3375         
      1840  -55.855118      0.31738016    -55.537737      0.029520714    272.81775      23.230548      3375         
      1850  -55.977801      0.46587261    -55.511928      0.029520714    400.46082     -590.6853       3375         
      1860  -55.80304       0.29726218    -55.505778      0.029520714    255.52447      441.95815      3375         
      1870  -55.810646      0.31926157    -55.491384      0.029520714    274.435        757.74117      3375         
      1880  -55.924044      0.44334575    -55.480699      0.029520714    381.09688      363.92353      3375         
      1890  -55.933014      0.45011461    -55.4829        0.029520714    386.91535     -377.14159      3375         
      1900  -55.908778      0.50576957    -55.403008      0.029520714    434.75596     -1497.8998      3375         
      1910  -55.87122       0.46983173    -55.401388      0.029520714    403.86405      6.8148206      3375         
      1920  -55.693879      0.28787108    -55.406008      0.029520714    247.45195      1953.8668      3375         
      1930  -55.874467      0.4670696     -55.407398      0.029520714    401.48974      576.75039      3375         
      1940  -55.89738       0.47701549    -55.420365      0.029520714    410.03916     -1695.3465      3375         
      1950  -55.849276      0.48517357    -55.364102      0.029520714    417.05179     -1496.1733      3375         
      1960  -55.909927      0.56854307    -55.341384      0.029520714    488.71562      479.23925      3375         
      1970  -55.753205      0.37541555    -55.377789      0.029520714    322.70456      1428.3811      3375         
      1980  -55.759199      0.38072963    -55.378469      0.029520714    327.27251      887.62789      3375         
      1990  -55.868895      0.47782739    -55.391068      0.029520714    410.73706     -532.52078      3375         
      2000  -55.751431      0.35532377    -55.396108      0.029520714    305.43381     -567.85751      3375         
      2010  -55.885209      0.50412407    -55.381085      0.029520714    433.34151     -215.75268      3375         
      2020  -55.966172      0.56363153    -55.40254       0.029520714    484.4937      -743.31261      3375         
      2030  -55.808914      0.37731334    -55.4316        0.029520714    324.33589     -68.085918      3375         
      2040  -55.909833      0.45520863    -55.454625      0.029520714    391.29413      1284.2143      3375         
      2050  -55.792451      0.3011881     -55.491263      0.029520714    258.89917      711.89633      3375         
      2060  -55.909116      0.39768216    -55.511434      0.029520714    341.84479     -1190.1259      3375         
      2070  -56.034616      0.5456145     -55.489002      0.029520714    469.00638     -922.70498      3375         
      2080  -55.864347      0.29667721    -55.567669      0.029520714    255.02164      463.31947      3375         
      2090  -55.82349       0.23872       -55.58477       0.029520714    205.20203      1264.4938      3375         
      2100  -56.027918      0.40068519    -55.627233      0.029520714    344.42617      71.511277      3375         
      2110  -55.909374      0.26293385    -55.64644       0.029520714    226.01608     -1386.5343      3375         
      2120  -56.020956      0.38915199    -55.631804      0.029520714    334.51231      17.557254      3375         
      2130  -55.97178       0.29375741    -55.678022      0.029520714    252.5118       1203.5617      3375         
      2140  -55.8843        0.19485391    -55.689446      0.029520714    167.49505      98.508337      3375         
      2150  -56.005634      0.2924885     -55.713146      0.029520714    251.42106     -752.24652      3375         
      2160  -56.068052      0.36206053    -55.705991      0.029520714    311.22468     -511.25267      3375         
      2170  -56.00567       0.29579301    -55.709877      0.029520714    254.26159      240.45331      3375         
      2180  -56.017756      0.31565328    -55.702102      0.029520714    271.33334      501.65389      3375         
      2190  -55.860929      0.14223696    -55.718692      0.029520714    122.26589     -62.361577      3375         
      2200  -55.984976      0.25931188    -55.725664      0.029520714    222.90267     -8.1605346      3375         
      2210  -56.073966      0.34615191    -55.727814      0.029520714    297.54975      575.8353       3375         
      2220  -56.008347      0.27217489    -55.736172      0.029520714    233.95962     -745.87248      3375         
      2230  -56.009958      0.31347388    -55.696484      0.029520714    269.45994     -1152.9558      3375         
      2240  -55.932807      0.23195347    -55.700854      0.029520714    199.38557      868.71371      3375         
      2250  -55.834552      0.12619725    -55.708355      0.029520714    108.47827      1305.1638      3375         
      2260  -56.136896      0.41491985    -55.721977      0.029520714    356.66219      178.84348      3375         
      2270  -56.018978      0.30521683    -55.713762      0.029520714    262.36224     -1422.5706      3375         
      2280  -55.950208      0.27905103    -55.671157      0.029520714    239.8703      -1513.5234      3375         
      2290  -56.029854      0.36618188    -55.663673      0.029520714    314.76736      1079.0547      3375         
      2300  -55.883454      0.20807936    -55.675375      0.029520714    178.86355      1673.3116      3375         
      2310  -55.92958       0.25022152    -55.679359      0.029520714    215.08866     -283.74979      3375         
      2320  -56.085053      0.41408309    -55.67097       0.029520714    355.94291     -650.89449      3375         
      2330  -55.944202      0.30693152    -55.637271      0.029520714    263.83617     -15.074404      3375         
      2340  -56.0087        0.3826753     -55.626025      0.029520714    328.945       -410.54569      3375         
      2350  -55.876657      0.26278641    -55.613871      0.029520714    225.88935      50.997673      3375         
      2360  -55.828282      0.21032114    -55.617961      0.029520714    180.79057      188.2516       3375         
      2370  -56.00111       0.38972008    -55.61139       0.029520714    335.00064      307.48638      3375         
      2380  -55.9768        0.37121683    -55.605583      0.029520714    319.09537      438.7147       3375         
      2390  -55.935974      0.36094262    -55.575031      0.029520714    310.26374     -1090.9498      3375         
      2400  -55.919913      0.37121454    -55.548699      0.029520714    319.09341     -550.94629      3375         
      2410  -55.766375      0.20650384    -55.559871      0.029520714    177.50925      1713.0583      3375         
      2420  -55.992858      0.44570975    -55.547148      0.029520714    383.12896      741.50278      3375         
      2430  -56.134815      0.56359895    -55.571217      0.029520714    484.46569     -1140.1942      3375         
      2440  -55.79771       0.27735541    -55.520354      0.029520714    238.41276     -1081.6669      3375         
      2450  -55.858856      0.37636131    -55.482495      0.029520714    323.51754     -98.893045      3375         
      2460  -55.87247       0.36598821    -55.506482      0.029520714    314.60089      1300.9333      3375         
      2470  -55.829549      0.32292044    -55.506629      0.029520714    277.58014      897.21788      3375         
      2480  -56.000333      0.48607295    -55.51426       0.029520714    417.82489     -1416.8515      3375         
      2490  -55.945055      0.44412398    -55.500931      0.029520714    381.76585     -923.39885      3375         
      2500  -55.757304      0.27870588    -55.478598      0.029520714    239.57361      506.33971      3375         
      2510  -55.80745       0.32894059    -55.478509      0.029520714    282.75502      311.09425      3375         
      2520  -55.827217      0.33906598    -55.488151      0.029520714    291.45873      1024.2062      3375         
      2530  -56.018356      0.52864416    -55.489711      0.029520714    454.4188       324.23592      3375         
      2540  -55.972029      0.46803831    -55.50399       0.029520714    402.32244     -1314.2422      3375         
      2550  -55.843923      0.34173083    -55.502193      0.029520714    293.74942     -708.44224      3375         
      2560  -55.891683      0.43175007    -55.459933      0.029520714    371.12932     -187.11741      3375         
      2570  -55.781607      0.29796335    -55.483643      0.029520714    256.1272       766.24237      3375         
      2580  -55.931773      0.43169192    -55.500081      0.029520714    371.07934      1766.0367      3375         
      2590  -56.065326      0.53953834    -55.525788      0.029520714    463.78336     -391.31202      3375         
      2600  -55.809317      0.28036539    -55.528952      0.029520714    241.00011     -2207.6244      3375         
      2610  -55.892559      0.36919602    -55.523363      0.029520714    317.3583      -461.56557      3375         
      2620  -55.915116      0.3718458     -55.54327       0.029520714    319.63604      1128.583       3375         
      2630  -55.778806      0.20469627    -55.57411       0.029520714    175.95547      1489.5557      3375         
      2640  -55.971644      0.36183307    -55.609811      0.029520714    311.02916      371.5001       3375         
      2650  -55.991739      0.34394156    -55.647798      0.029520714    295.64974     -1772.0638      3375         
      2660  -55.953447      0.28584604    -55.667601      0.029520714    245.71124     -590.03198      3375         
      2670  -56.029875      0.31209424    -55.717781      0.029520714    268.27401      1177.0773      3375         
      2680  -55.981845      0.23535999    -55.746485      0.029520714    202.3138       419.94842      3375         
      2690  -56.050794      0.27281648    -55.777977      0.029520714    234.51113     -209.69588      3375         
      2700  -56.062845      0.2505682     -55.812277      0.029520714    215.38666     -258.43993      3375         
      2710  -56.014207      0.21112744    -55.80308       0.029520714    181.48366     -642.67561      3375         
      2720  -56.07536       0.25670686    -55.818653      0.029520714    220.66341     -299.89332      3375         
      2730  -55.983609      0.16610293    -55.817507      0.029520714    142.78091      670.4626       3375         
      2740  -56.07221       0.24213054    -55.83008       0.029520714    208.13371      1029.3003      3375         
      2750  -56.084528      0.24293312    -55.841595      0.029520714    208.8236       258.17397      3375         
      2760  -55.97243       0.12312828    -55.849302      0.029520714    105.8402      -1408.2906      3375         
      2770  -56.00503       0.18708093    -55.817949      0.029520714    160.81345     -1329.8351      3375         
      2780  -56.071995      0.24735571    -55.82464       0.029520714    212.62523      954.07881      3375         
      2790  -56.017847      0.19396707    -55.82388       0.029520714    166.73273      1878.4         3375         
      2800  -56.144684      0.3182607     -55.826423      0.029520714    273.57466     -41.309493      3375         
      2810  -55.998838      0.16755619    -55.831282      0.029520714    144.03012     -1730.4412      3375         
      2820  -55.955608      0.17643832    -55.779169      0.029520714    151.66514     -913.00893      3375         
      2830  -56.10179       0.32289157    -55.778899      0.029520714    277.55532      718.51105      3375         
      2840  -55.991145      0.21830779    -55.772838      0.029520714    187.65584      1296.0766      3375         
      2850  -56.077764      0.31957081    -55.758193      0.029520714    274.70082      578.4991       3375         
      2860  -56.067412      0.3235854     -55.743827      0.029520714    278.15173     -675.35932      3375         
      2870  -55.841753      0.11246755    -55.729286      0.029520714    96.676315     -868.89083      3375         
      2880  -55.983097      0.27707934    -55.706018      0.029520714    238.17545     -517.66392      3375         
      2890  -56.008814      0.32040344    -55.688411      0.029520714    275.41654     -5.5433557      3375         
      2900  -55.903418      0.22781526    -55.675603      0.029520714    195.8284       1401.2435      3375         
      2910  -56.056118      0.39645257    -55.659666      0.029520714    340.78784      1061.9734      3375         
      2920  -55.902108      0.24325704    -55.658851      0.029520714    209.10204     -1223.6086      3375         
      2930  -55.894306      0.2835685     -55.610738      0.029520714    243.75349     -1576.659       3375         
      2940  -56.057657      0.46915071    -55.588507      0.029520714    403.27865      133.05986      3375         
      2950  -55.819646      0.2332408     -55.586406      0.029520714    200.49215      1716.1018      3375         
      2960  -55.990101      0.40846209    -55.581639      0.029520714    351.11114      1493.7986      3375         
      2970  -55.994952      0.40530649    -55.589645      0.029520714    348.3986      -1603.6855      3375         
      2980  -55.832333      0.297661      -55.534672      0.029520714    255.8673      -2315.0764      3375         
      2990  -55.980871      0.45896996    -55.521901      0.029520714    394.52735      811.21357      3375         
      3000  -55.88573       0.35520086    -55.530529      0.029520714    305.32816      1562.0942      3375         
      3010  -55.849131      0.31949809    -55.529633      0.029520714    274.63831      753.71509      3375         
      3020  -55.968862      0.43946921    -55.529393      0.029520714    377.76464     -385.4736       3375         
      3030  -55.740974      0.22303645    -55.517938      0.029520714    191.72057     -1692.3573      3375         
      3040  -55.923762      0.4353187     -55.488443      0.029520714    374.19689     -412.6232       3375         
      3050  -56.049924      0.55385199    -55.496072      0.029520714    476.08727      775.45313      3375         
      3060  -55.740783      0.24352455    -55.497259      0.029520714    209.33199      629.38736      3375         
      3070  -55.94687       0.44875326    -55.498117      0.029520714    385.74514      1221.7711      3375         
      3080  -55.884553      0.36699384    -55.517559      0.029520714    315.46532     -547.14317      3375         
      3090  -55.808478      0.3310199     -55.477458      0.029520714    284.54238     -2540.2596      3375         
      3100  -56.023122      0.5599377     -55.463184      0.029520714    481.3185       1.9711908      3375         
      3110  -55.889954      0.39691845    -55.493036      0.029520714    341.18831      1874.6562      3375         
      3120  -55.910893      0.4124339     -55.49846       0.029520714    354.52527      1369.5907      3375         
      3130  -55.855063      0.3356038     -55.51946       0.029520714    288.48266     -358.02359      3375         
      3140  -55.784395      0.27705274    -55.507342      0.029520714    238.15259     -2551.9629      3375         
      3150  -56.012813      0.52313972    -55.489674      0.029520714    449.68723     -635.69495      3375         
      3160  -55.836149      0.30908775    -55.527062      0.029520714    265.68965      2205.1018      3375         
      3170  -55.858919      0.32380543    -55.535114      0.029520714    278.34087      1040.8307      3375         
      3180  -56.038466      0.47187012    -55.566596      0.029520714    405.61623     -645.25488      3375         
      3190  -55.760669      0.20837319    -55.552296      0.029520714    179.11613     -625.13335      3375         
      3200  -55.934309      0.38329254    -55.551017      0.029520714    329.47557     -742.38504      3375         
      3210  -56.053509      0.47389172    -55.579618      0.029520714    407.35399      267.03201      3375         
      3220  -55.792416      0.18758228    -55.604834      0.029520714    161.24441      892.45437      3375         
      3230  -56.051631      0.41723079    -55.6344        0.029520714    358.64865      108.34733      3375         
      3240  -55.979299      0.31877803    -55.660521      0.029520714    274.01935     -69.271092      3375         
      3250  -55.930072      0.2658635     -55.664209      0.029520714    228.5344      -1086.7718      3375         
      3260  -56.04863       0.37251988    -55.676111      0.029520714    320.21546     -765.54741      3375         
      3270  -55.899277      0.17914412    -55.720133      0.029520714    153.99103      1630.4734      3375         
      3280  -55.96586       0.23809527    -55.727765      0.029520714    204.66502      1456.4034      3375         
      3290  -56.11833       0.33666993    -55.781661      0.029520714    289.3991      -862.91548      3375         
      3300  -55.95355       0.1870986     -55.766451      0.029520714    160.82864     -1678.1009      3375         
      3310  -56.051531      0.30493276    -55.746598      0.029520714    262.11805     -724.07146      3375         
      3320  -56.004445      0.21824546    -55.786199      0.029520714    187.60226      1139.0444      3375         
      3330  -55.939072      0.14273287    -55.796339      0.029520714    122.69217      1754.4236      3375         
      3340  -56.125533      0.30385297    -55.82168       0.029520714    261.18987     -348.77137      3375         
      3350  -55.997082      0.18224052    -55.814842      0.029520714    156.65267     -1444.6821      3375         
      3360  -56.029338      0.24587896    -55.783459      0.029520714    211.35582     -510.77394      3375         
      3370  -56.127168      0.33257992    -55.794588      0.029520714    285.88336      218.17331      3375         
      3380  -55.932723      0.12691467    -55.805808      0.029520714    109.09496      996.45782      3375         
      3390  -56.060552      0.25189827    -55.808653      0.029520714    216.52998      809.5635       3375         
      3400  -56.060985      0.24929259    -55.811692      0.029520714    214.29015     -683.71338      3375         
      3410  -55.972991      0.17494171    -55.79805       0.029520714    150.37866     -890.3904       3375         
      3420  -56.104129      0.33599373    -55.768135      0.029520714    288.81784     -234.87291      3375         
      3430  -55.965428      0.19031417    -55.775114      0.029520714    163.59272      276.05476      3375         
      3440  -55.996381      0.22286477    -55.773516      0.029520714    191.57299      1082.6361      3375         
      3450  -56.104569      0.3285053     -55.776064      0.029520714    282.38084      410.66761      3375         
      3460  -55.901697      0.14655856    -55.755139      0.029520714    125.98071     -1244.4575      3375         
      3470  -56.033614      0.31186469    -55.721749      0.029520714    268.07669     -863.20925      3375         
      3480  -56.032664      0.32910734    -55.703556      0.029520714    282.89836      742.9783       3375         
      3490  -55.860115      0.15146656    -55.708648      0.029520714    130.19959      1127.671       3375         
      3500  -56.129535      0.41555938    -55.713976      0.029520714    357.21192      376.70388      3375         
      3510  -55.993666      0.30648971    -55.687177      0.029520714    263.4564      -1475.3666      3375         
      3520  -55.873905      0.21962571    -55.65428       0.029520714    188.78871     -1071.8927      3375         
      3530  -55.990429      0.33594002    -55.654489      0.029520714    288.77168      1146.8886      3375         
      3540  -55.89134       0.23545323    -55.655887      0.029520714    202.39394      1350.4634      3375         
      3550  -56.015143      0.36214679    -55.652996      0.029520714    311.29884     -224.13633      3375         
      3560  -56.056021      0.38554784    -55.670473      0.029520714    331.41421     -950.13779      3375         
      3570  -55.900061      0.28964241    -55.610419      0.029520714    248.97458     -780.18789      3375         
      3580  -55.974038      0.35251491    -55.621523      0.029520714    303.01933     -113.17046      3375         
      3590  -55.762638      0.1460058     -55.616632      0.029520714    125.50555      1053.4827      3375         
      3600  -55.916772      0.29663648    -55.620136      0.029520714    254.98663      956.48676      3375         
      3610  -56.160268      0.52496522    -55.635303      0.029520714    451.25641     -98.263001      3375         
      3620  -55.883294      0.26040999    -55.622884      0.029520714    223.8466      -1165.2522      3375         
      3630  -55.876282      0.30707536    -55.569206      0.029520714    263.95982     -1425.2477      3375         
      3640  -55.966334      0.37449156    -55.591843      0.029520714    321.91031      348.93542      3375         
      3650  -55.814151      0.22026028    -55.593891      0.029520714    189.33419      2356.1673      3375         
      3660  -56.03581       0.45036485    -55.585445      0.029520714    387.13046      560.01571      3375         
      3670  -55.990026      0.37078315    -55.619243      0.029520714    318.72259     -1832.5923      3375         
      3680  -55.822561      0.27539111    -55.54717       0.029520714    236.72426     -984.74454      3375         
      3690  -55.971882      0.41168006    -55.560202      0.029520714    353.87728      386.33123      3375         
      3700  -55.912343      0.34539739    -55.566945      0.029520714    296.90117      1097.0879      3375         
      3710  -55.907745      0.34095973    -55.566786      0.029520714    293.08658      873.99704      3375         
      3720  -55.973942      0.40330351    -55.570639      0.029520714    346.67686     -979.43835      3375         
      3730  -55.860255      0.29919654    -55.561059      0.029520714    257.18724     -814.29569      3375         
      3740  -55.899684      0.37901664    -55.520668      0.029520714    325.80004      193.68105      3375         
      3750  -55.834633      0.30106886    -55.533564      0.029520714    258.79667     -107.85565      3375         
      3760  -55.944827      0.40912937    -55.535698      0.029520714    351.68473      969.84254      3375         
      3770  -56.026711      0.4953465     -55.531365      0.029520714    425.79637      826.34767      3375         
      3780  -55.785024      0.24954074    -55.535484      0.029520714    214.50346     -1525.4801      3375         
      3790  -55.847102      0.33496607    -55.512136      0.029520714    287.93448     -799.46423      3375         
      3800  -55.929076      0.42010374    -55.508972      0.029520714    361.11822      819.24485      3375         
      3810  -55.853945      0.34573864    -55.508206      0.029520714    297.1945       647.59543      3375         
      3820  -56.155117      0.63705864    -55.518058      0.029520714    547.61113      917.24669      3375         
      3830  -55.924981      0.39809104    -55.52689       0.029520714    342.19625     -915.09018      3375         
      3840  -55.660528      0.17158746    -55.488941      0.029520714    147.49537     -1946.0331      3375         
      3850  -55.88929       0.4099548     -55.479335      0.029520714    352.39426      829.9677       3375         
      3860  -55.897412      0.40432059    -55.493091      0.029520714    347.55114      1499.7687      3375         
      3870  -55.989642      0.49086189    -55.49878       0.029520714    421.94143      225.28719      3375         
      3880  -55.990187      0.47379368    -55.516394      0.029520714    407.26971     -464.96033      3375         
      3890  -55.750531      0.25421464    -55.496316      0.029520714    218.52112     -1712.589       3375         
      3900  -55.857982      0.36995505    -55.488027      0.029520714    318.01076     -257.61411      3375         
      3910  -55.888325      0.38065185    -55.507674      0.029520714    327.20565      1881.6912      3375         
      3920  -55.879232      0.36508374    -55.514149      0.029520714    313.82341      407.33879      3375         
      3930  -56.05691       0.52602194    -55.530888      0.029520714    452.16476     -617.32629      3375         
      3940  -55.883252      0.33456687    -55.548685      0.029520714    287.59133     -121.09412      3375         
      3950  -55.830041      0.30058004    -55.529461      0.029520714    258.37649     -793.65198      3375         
      3960  -55.999917      0.45664145    -55.543275      0.029520714    392.52577     -214.67139      3375         
      3970  -55.913058      0.34478007    -55.568278      0.029520714    296.37052      942.16158      3375         
      3980  -55.951745      0.3659321     -55.585813      0.029520714    314.55266      599.31189      3375         
      3990  -55.923643      0.30860434    -55.615039      0.029520714    265.27412      29.065829      3375         
      4000  -55.873344      0.24136222    -55.631981      0.029520714    207.47327     -1351.4046      3375         
      4010  -55.974329      0.37443635    -55.599893      0.029520714    321.86286     -1045.3493      3375         
      4020  -55.978866      0.32840831    -55.650458      0.029520714    282.29747      1668.9371      3375         
      4030  -55.961262      0.29980644    -55.661456      0.029520714    257.71151      1801.0639      3375         
      4040  -56.010117      0.3211655     -55.688951      0.029520714    276.07161     -817.70976      3375         
      4050  -55.901189      0.20052554    -55.700663      0.029520714    172.37034     -1598.4117      3375         
      4060  -55.975002      0.29151162    -55.683491      0.029520714    250.58134     -484.19209      3375         
      4070  -56.027282      0.32723347    -55.700048      0.029520714    281.28759      824.49072      3375         
      4080  -55.986323      0.26499964    -55.721323      0.029520714    227.79182      1084.4675      3375         
      4090  -56.099818      0.36039451    -55.739424      0.029520714    309.79259     -241.66993      3375         
      4100  -55.95737       0.21912564    -55.738244      0.029520714    188.35886     -631.72249      3375         
      4110  -55.886531      0.14016179    -55.746369      0.029520714    120.48209     -82.557415      3375         
      4120  -56.061454      0.32772532    -55.733729      0.029520714    281.71038     -356.63629      3375         
      4130  -56.00217       0.25918059    -55.74299       0.029520714    222.78981      147.67838      3375         
      4140  -56.038171      0.28494775    -55.753223      0.029520714    244.93908      1010.5413      3375         
      4150  -56.021949      0.26250701    -55.759442      0.029520714    225.64918      170.13567      3375         
      4160  -55.925571      0.1624412     -55.76313       0.029520714    139.63331     -1052.7958      3375         
      4170  -55.962357      0.22093716    -55.741419      0.029520714    189.91602     -874.17035      3375         
      4180  -56.029703      0.30041105    -55.729292      0.029520714    258.23123      543.98689      3375         
      4190  -56.009243      0.27170576    -55.737537      0.029520714    233.55636      1537.7682      3375         
      4200  -56.076745      0.33472205    -55.742022      0.029520714    287.72472      146.84172      3375         
      4210  -55.940214      0.21775238    -55.722462      0.029520714    187.17841     -1809.838       3375         
      4220  -56.011421      0.31901477    -55.692407      0.029520714    274.22285     -730.42302      3375         
      4230  -55.995246      0.31782845    -55.677417      0.029520714    273.2031       1337.3803      3375         
      4240  -55.902101      0.23799503    -55.664106      0.029520714    204.57885      1068.2112      3375         
      4250  -56.026285      0.37306573    -55.653219      0.029520714    320.68467     -203.40875      3375         
      4260  -55.968719      0.3484136     -55.620306      0.029520714    299.49388     -997.22256      3375         
      4270  -55.773912      0.18700417    -55.586908      0.029520714    160.74747     -579.14929      3375         
      4280  -56.019379      0.4636616     -55.555718      0.029520714    398.56025      284.92146      3375         
      4290  -55.895051      0.37485246    -55.520198      0.029520714    322.22053      528.58452      3375         
      4300  -55.810867      0.30538154    -55.505485      0.029520714    262.50382      621.93555      3375         
      4310  -55.901303      0.41813714    -55.483166      0.029520714    359.42775      629.4963       3375         
      4320  -55.868982      0.39782773    -55.471154      0.029520714    341.96992     -1002.1015      3375         
      4330  -55.856779      0.40951357    -55.447265      0.029520714    352.01499     -1905.4324      3375         
      4340  -55.987619      0.58298928    -55.40463       0.029520714    501.13348      226.31905      3375         
      4350  -55.830649      0.41145496    -55.419194      0.029520714    353.68379      2169.1699      3375         
      4360  -55.878299      0.45464006    -55.423659      0.029520714    390.8054       1319.622       3375         
      4370  -55.802481      0.36447367    -55.438007      0.029520714    313.29901     -1120.6863      3375         
      4380  -55.775959      0.37146734    -55.404492      0.029520714    319.31071     -2299.5339      3375         
      4390  -55.988485      0.59297258    -55.395513      0.029520714    509.71506     -239.68621      3375         
      4400  -55.84072       0.42578457    -55.414936      0.029520714    366.00142      2013.7863      3375         
      4410  -55.817769      0.38890342    -55.428865      0.029520714    334.29864      813.21004      3375         
      4420  -55.848311      0.39569892    -55.452612      0.029520714    340.14001     -881.7766       3375         
      4430  -55.689212      0.25515197    -55.43406       0.029520714    219.32684     -814.85587      3375         
      4440  -55.85364       0.41032925    -55.44331       0.029520714    352.71613     -403.70973      3375         
      4450  -55.944921      0.49279336    -55.452128      0.029520714    423.60171      199.42012      3375         
      4460  -55.716465      0.25618581    -55.460279      0.029520714    220.21552      1136.7091      3375         
      4470  -55.98278       0.50511584    -55.477664      0.029520714    434.19402      451.28811      3375         
      4480  -55.929729      0.42794663    -55.501782      0.029520714    367.85991     -337.93608      3375         
      4490  -55.868771      0.37028848    -55.498483      0.029520714    318.29738     -1095.5587      3375         
      4500  -56.012181      0.50838407    -55.503797      0.029520714    437.00337     -1276.1986      3375         
      4510  -55.834906      0.31259507    -55.522311      0.029520714    268.70452      1257.9558      3375         
      4520  -55.776418      0.23457085    -55.541847      0.029520714    201.63545      2245.5065      3375         
      4530  -56.048199      0.47056338    -55.577636      0.029520714    404.49297     -756.62211      3375         
      4540  -55.908422      0.33917849    -55.569243      0.029520714    291.55544     -2037.8518      3375         
      4550  -55.94934       0.37999873    -55.569342      0.029520714    326.64424     -331.11119      3375         
      4560  -55.911357      0.31152401    -55.599833      0.029520714    267.78385      1026.0878      3375         
      4570  -55.821971      0.21089194    -55.611079      0.029520714    181.28123      1747.1533      3375         
      4580  -55.982521      0.35307123    -55.629449      0.029520714    303.49754     -61.442916      3375         
      4590  -55.980053      0.34386989    -55.636183      0.029520714    295.58814     -1802.0405      3375         
      4600  -55.945128      0.32023803    -55.62489       0.029520714    275.27436     -294.71435      3375         
      4610  -56.074524      0.43116437    -55.64336       0.029520714    370.62586      307.74291      3375         
      4620  -55.870547      0.21445213    -55.656095      0.029520714    184.34154      193.09988      3375         
      4630  -55.917963      0.25420715    -55.663756      0.029520714    218.51468      1237.0447      3375         
      4640  -56.046797      0.3689794     -55.677818      0.029520714    317.1721       161.19415      3375         
      4650  -55.985876      0.3105342     -55.675342      0.029520714    266.93302     -1359.367       3375         
      4660  -55.988068      0.31614011    -55.671928      0.029520714    271.75182     -826.86391      3375         
      4670  -55.963069      0.28343295    -55.679636      0.029520714    243.63697     -126.69323      3375         
      4680  -55.886854      0.19861094    -55.688243      0.029520714    170.72457      1558.5215      3375         
      4690  -56.024615      0.32118504    -55.70343       0.029520714    276.0884       1578.5017      3375         
      4700  -55.992257      0.2830373     -55.70922       0.029520714    243.29687     -1685.4617      3375         
      4710  -55.954189      0.28109829    -55.673091      0.029520714    241.63011     -1734.3088      3375         
      4720  -55.999549      0.31801531    -55.681534      0.029520714    273.36372      801.29234      3375         
      4730  -55.864154      0.17389366    -55.69026       0.029520714    149.47777      1169.8657      3375         
      4740  -56.058508      0.35712929    -55.701379      0.029520714    306.98583      392.40029      3375         
      4750  -56.081268      0.38840367    -55.692864      0.029520714    333.86906     -983.41414      3375         
      4760  -55.915902      0.27004246    -55.64586       0.029520714    232.1266      -1048.737       3375         
      4770  -55.992652      0.33702818    -55.655624      0.029520714    289.70705      743.96667      3375         
      4780  -55.901409      0.25655381    -55.644855      0.029520714    220.53185      790.31557      3375         
      4790  -55.850606      0.21955014    -55.631056      0.029520714    188.72376     -142.04436      3375         
      4800  -56.136148      0.52573002    -55.610418      0.029520714    451.91382      270.24259      3375         
      4810  -55.939664      0.37813481    -55.561529      0.029520714    325.04202     -336.02136      3375         
      4820  -55.838355      0.31275071    -55.525604      0.029520714    268.83831     -1155.2381      3375         
      4830  -55.833956      0.32870584    -55.50525       0.029520714    282.55323     -1.6659941      3375         
      4840  -55.781648      0.29521015    -55.486438      0.029520714    253.76056      1331.5035      3375         
      4850  -55.957072      0.49288452    -55.464188      0.029520714    423.68006      1370.6428      3375         
      4860  -56.03836       0.57065784    -55.467702      0.029520714    490.53346     -953.99827      3375         
      4870  -55.730273      0.37428101    -55.355992      0.029520714    321.72933     -2637.5145      3375         
      4880  -55.840749      0.47137265    -55.369377      0.029520714    405.18862     -186.78285      3375         
      4890  -55.732027      0.36674407    -55.365283      0.029520714    315.25063      2770.701       3375         
      4900  -55.89927       0.54452966    -55.35474       0.029520714    468.07386      1650.7434      3375         
      4910  -55.976019      0.59545878    -55.38056       0.029520714    511.85218     -1184.1729      3375         
      4920  -55.720414      0.39641294    -55.324001      0.029520714    340.75377     -2027.6213      3375         
      4930  -55.764249      0.44874594    -55.315503      0.029520714    385.73885     -674.9586       3375         
      4940  -55.854196      0.51281722    -55.341379      0.029520714    440.81407      682.32874      3375         
      4950  -55.770101      0.41574872    -55.354352      0.029520714    357.37467      1206.2425      3375         
      4960  -55.956795      0.58971762    -55.367078      0.029520714    506.91712      490.80618      3375         
      4970  -55.7773        0.38050033    -55.3968        0.029520714    327.07541     -169.13276      3375         
      4980  -55.727568      0.37387346    -55.353694      0.029520714    321.37899     -1021.7788      3375         
      4990  -55.852397      0.46592696    -55.38647       0.029520714    400.50754     -1138.2566      3375         
      5000  -55.874923      0.45509533    -55.419828      0.029520714    391.19674      663.13257      3375         
      5010  -56.009846      0.56330616    -55.44654       0.029520714    484.21401      2006.7325      3375         
      5020  -55.877853      0.37968847    -55.498165      0.029520714    326.37753     -68.005261      3375         
      5030  -55.766174      0.26666093    -55.499513      0.029520714    229.21986     -2014.0652      3375         
      5040  -55.924757      0.44175775    -55.482999      0.029520714    379.73185     -473.73156      3375         
      5050  -55.879769      0.33579804    -55.543971      0.029520714    288.64964      1019.1663      3375         
      5060  -55.991248      0.42506279    -55.566185      0.029520714    365.38099      1415.6785      3375         
      5070  -56.055081      0.44341378    -55.611668      0.029520714    381.15536     -362.92105      3375         
      5080  -55.791722      0.18921906    -55.602503      0.029520714    162.65138     -1727.6038      3375         
      5090  -55.942439      0.34847584    -55.593964      0.029520714    299.54738      51.603818      3375         
      5100  -55.972284      0.33827308    -55.634011      0.029520714    290.77716      1228.2843      3375         
      5110  -55.908164      0.26500067    -55.643163      0.029520714    227.79271      279.51474      3375         
      5120  -56.10164       0.42524456    -55.676395      0.029520714    365.53723     -98.816573      3375         
      5130  -55.893857      0.22696008    -55.666897      0.029520714    195.09329     -482.03879      3375         
      5140  -55.887116      0.23103339    -55.656082      0.029520714    198.59468     -807.94972      3375         
      5150  -56.0408        0.38022566    -55.660574      0.029520714    326.8393       242.06854      3375         
      5160  -55.949583      0.27114742    -55.678435      0.029520714    233.07641      643.6904       3375         
      5170  -56.067089      0.38308277    -55.684007      0.029520714    329.29526      610.94031      3375         
      5180  -55.976433      0.27019098    -55.706242      0.029520714    232.25427      435.20859      3375         
      5190  -55.885345      0.19726016    -55.688084      0.029520714    169.56345     -1518.0794      3375         
      5200  -56.051514      0.3944925     -55.657021      0.029520714    339.10298     -1197.0485      3375         
      5210  -55.961794      0.27873863    -55.683055      0.029520714    239.60176      1314.5306      3375         
      5220  -55.932314      0.25099874    -55.681315      0.029520714    215.75675      1357.3952      3375         
      5230  -56.092464      0.3798154     -55.712649      0.029520714    326.48664     -26.760614      3375         
      5240  -55.844401      0.15319246    -55.691209      0.029520714    131.68316     -1215.3085      3375         
      5250  -55.990074      0.35966486    -55.630409      0.029520714    309.16538     -1176.883       3375         
      5260  -56.035044      0.37729949    -55.657745      0.029520714    324.32399      814.06091      3375         
      5270  -55.848624      0.19153961    -55.657084      0.029520714    164.6461       1287.0024      3375         
      5280  -56.037664      0.37289618    -55.664768      0.029520714    320.53893     -558.13425      3375         
      5290  -55.945889      0.2897225     -55.656166      0.029520714    249.04342     -522.97308      3375         
      5300  -55.862865      0.23939194    -55.623473      0.029520714    205.77963      39.252834      3375         
      5310  -56.088117      0.48633118    -55.601786      0.029520714    418.04686     -163.74583      3375         
      5320  -55.912005      0.30710302    -55.604902      0.029520714    263.9836       681.22817      3375         
      5330  -55.933601      0.33866407    -55.594937      0.029520714    291.11325      358.67529      3375         
      5340  -55.989439      0.39750835    -55.591931      0.029520714    341.69538     -532.1258       3375         
      5350  -55.750754      0.17422489    -55.57653       0.029520714    149.76249     -240.09173      3375         
      5360  -55.987947      0.47426777    -55.513679      0.029520714    407.67724     -725.17542      3375         
      5370  -55.953812      0.45453339    -55.499279      0.029520714    390.7137       260.27372      3375         
      5380  -55.779895      0.29819229    -55.481702      0.029520714    256.32399      1653.1592      3375         
      5390  -55.964476      0.49141761    -55.473059      0.029520714    422.41912     -15.412645      3375         
      5400  -55.779662      0.33763525    -55.442027      0.029520714    290.22889     -1675.2226      3375         
      5410  -55.844036      0.47566048    -55.368376      0.029520714    408.8744      -567.99331      3375         
      5420  -55.95529       0.62934042    -55.32595       0.029520714    540.97659      1017.4012      3375         
      5430  -55.671962      0.36096268    -55.310999      0.029520714    310.28098      1588.4741      3375         
      5440  -55.889845      0.59930497    -55.29054       0.029520714    515.15833      237.14535      3375         
      5450  -55.813493      0.53286037    -55.280632      0.029520714    458.04303     -2303.2635      3375         
      5460  -55.618223      0.40844754    -55.209775      0.029520714    351.09863     -851.08053      3375         
      5470  -55.950278      0.75490363    -55.195375      0.029520714    648.90985      1179.2921      3375         
      5480  -55.727294      0.52810326    -55.199191      0.029520714    453.95385      799.56782      3375         
      5490  -55.644214      0.44006144    -55.204152      0.029520714    378.27372      270.13349      3375         
      5500  -55.87671       0.64084159    -55.235868      0.029520714    550.86292     -128.72003      3375         
      5510  -55.673755      0.45165489    -55.2221        0.029520714    388.23937     -819.62463      3375         
      5520  -55.794847      0.57080216    -55.224045      0.029520714    490.65752     -675.07934      3375         
      5530  -55.778268      0.54227716    -55.235991      0.029520714    466.13763      332.60898      3375         
      5540  -55.646295      0.36660594    -55.279689      0.029520714    315.13189      863.78888      3375         
      5550  -55.825457      0.52456415    -55.300893      0.029520714    450.91165      718.89392      3375         
      5560  -55.927735      0.56640792    -55.361327      0.029520714    486.88026     -993.07378      3375         
      5570  -55.799898      0.47190238    -55.327996      0.029520714    405.64397     -1464.8056      3375         
      5580  -55.914075      0.55357248    -55.360503      0.029520714    475.84701      791.14424      3375         
      5590  -55.782652      0.37877314    -55.403878      0.029520714    325.59073      1711.959       3375         
      5600  -55.808834      0.3938427     -55.414991      0.029520714    338.54442     -51.156518      3375         
      5610  -55.922113      0.45895822    -55.463154      0.029520714    394.51726     -1493.208       3375         
      5620  -55.899605      0.46581435    -55.433791      0.029520714    400.41074     -980.58452      3375         
      5630  -55.903155      0.46173693    -55.441418      0.029520714    396.90581      874.20659      3375         
      5640  -55.847413      0.38250616    -55.464907      0.029520714    328.79961      1413.1067      3375         
      5650  -55.787343      0.31068755    -55.476656      0.029520714    267.06483      185.94016      3375         
      5660  -55.871513      0.37965975    -55.491853      0.029520714    326.35285     -946.37925      3375         
      5670  -55.908237      0.40968485    -55.498552      0.029520714    352.16221     -413.27028      3375         
      5680  -55.969406      0.47479061    -55.494615      0.029520714    408.12667     -242.87282      3375         
      5690  -55.844053      0.34048724    -55.503566      0.029520714    292.68044     -134.05669      3375         
      5700  -55.810965      0.29605559    -55.514909      0.029520714    254.4873       1115.1258      3375         
      5710  -55.913742      0.38820427    -55.525537      0.029520714    333.69766      709.74006      3375         
      5720  -56.017788      0.45700896    -55.560779      0.029520714    392.84169     -884.71869      3375         
      5730  -55.944479      0.3929683     -55.551511      0.029520714    337.79278     -1230.4682      3375         
      5740  -55.906324      0.36361407    -55.54271       0.029520714    312.5601       1.1038666      3375         
      5750  -55.859091      0.29370598    -55.565385      0.029520714    252.4676       1538.2503      3375         
      5760  -55.970991      0.38838348    -55.582608      0.029520714    333.8517       1197.3331      3375         
      5770  -55.980763      0.36818725    -55.612576      0.029520714    316.49117     -1444.3138      3375         
      5780  -55.934717      0.33079522    -55.603921      0.029520714    284.34924     -1662.4085      3375         
      5790  -55.914184      0.31393466    -55.600249      0.029520714    269.85603      572.37888      3375         
      5800  -55.889056      0.26556533    -55.623491      0.029520714    228.27809      724.71435      3375         
      5810  -55.94514       0.31821857    -55.626922      0.029520714    273.53844      549.92555      3375         
      5820  -56.023617      0.3829156     -55.640702      0.029520714    329.15156      124.55394      3375         
      5830  -55.947813      0.28864939    -55.659164      0.029520714    248.12099     -835.89395      3375         
      5840  -55.973961      0.32255035    -55.65141       0.029520714    277.26201     -114.86198      3375         
      5850  -55.975919      0.31529519    -55.660624      0.029520714    271.02553      81.218956      3375         
      5860  -55.871279      0.20725592    -55.664023      0.029520714    178.15573     -108.10463      3375         
      5870  -56.031838      0.36191941    -55.669919      0.029520714    311.10337      1050.2892      3375         
      5880  -56.082872      0.3925428     -55.690329      0.029520714    337.42703     -58.636859      3375         
      5890  -55.934909      0.23887366    -55.696036      0.029520714    205.33411     -1644.0208      3375         
      5900  -55.895859      0.22731002    -55.668549      0.029520714    195.39409     -82.286017      3375         
      5910  -55.958909      0.27365554    -55.685254      0.029520714    235.23238      1114.253       3375         
      5920  -55.994522      0.30504473    -55.689477      0.029520714    262.2143       965.54477      3375         
      5930  -55.982317      0.2900794     -55.692238      0.029520714    249.35022      68.763804      3375         
      5940  -55.946844      0.24802298    -55.698821      0.029520714    213.19881     -1773.406       3375         
      5950  -55.980457      0.29953578    -55.680921      0.029520714    257.47885     -562.02092      3375         
      5960  -55.910275      0.22570489    -55.68457       0.029520714    194.01433      1625.2597      3375         
      5970  -55.976215      0.28697963    -55.689236      0.029520714    246.68567      343.49664      3375         
      5980  -56.097243      0.42295833    -55.674284      0.029520714    363.572       -331.70509      3375         
      5990  -55.96274       0.29582195    -55.666918      0.029520714    254.28647     -90.856262      3375         
      6000  -55.857489      0.19460809    -55.662881      0.029520714    167.28374     -715.24804      3375         
      6010  -56.033348      0.39085189    -55.642496      0.029520714    335.97353     -177.39141      3375         
      6020  -55.938784      0.31003       -55.628754      0.029520714    266.49961      500.65282      3375         
      6030  -56.002752      0.39321047    -55.609541      0.029520714    338.00095      693.71354      3375         
      6040  -55.962278      0.36723176    -55.595046      0.029520714    315.66983      755.11767      3375         
      6050  -55.804665      0.21056167    -55.594103      0.029520714    180.99733     -1325.0972      3375         
      6060  -55.808201      0.25112267    -55.557078      0.029520714    215.86328     -1873.6006      3375         
      6070  -55.97466       0.44553412    -55.529125      0.029520714    382.97799      1084.7165      3375         
      6080  -55.904676      0.39636522    -55.50831       0.029520714    340.71275      1983.8773      3375         
      6090  -56.010793      0.52682866    -55.483964      0.029520714    452.85821      126.32679      3375         
      6100  -55.784384      0.32323344    -55.46115       0.029520714    277.84919     -1365.3574      3375         
      6110  -55.719856      0.30045405    -55.419402      0.029520714    258.26819     -1375.6993      3375         
      6120  -55.931819      0.53120531    -55.400614      0.029520714    456.62035      677.31762      3375         
      6130  -55.946913      0.55399994    -55.392913      0.029520714    476.21445      1349.7925      3375         
      6140  -55.861927      0.4886992     -55.373227      0.029520714    420.08239     -191.34908      3375         
      6150  -55.851174      0.49164312    -55.359531      0.029520714    422.61297     -388.54986      3375         
      6160  -55.730052      0.36507487    -55.364977      0.029520714    313.81579     -87.419573      3375         
      6170  -55.806362      0.45885239    -55.34751       0.029520714    394.42629     -512.77992      3375         
      6180  -55.882768      0.52993735    -55.352831      0.029520714    455.53042      128.62363      3375         
      6190  -55.824011      0.46272777    -55.361284      0.029520714    397.75754      1105.8068      3375         
      6200  -55.840907      0.47604138    -55.364866      0.029520714    409.20182      685.99299      3375         
      6210  -55.708163      0.31956891    -55.388594      0.029520714    274.69919     -959.55603      3375         
      6220  -55.751141      0.36818626    -55.382955      0.029520714    316.49032     -1949.5781      3375         
      6230  -55.999875      0.63041664    -55.369458      0.029520714    541.90171     -161.9254       3375         
      6240  -55.86712       0.45849661    -55.408623      0.029520714    394.12046      2204.465       3375         
      6250  -55.863099      0.42508981    -55.438009      0.029520714    365.40421      1628.8117      3375         
      6260  -55.844723      0.39018604    -55.454537      0.029520714    335.40117     -1183.7642      3375         
      6270  -55.794342      0.32949145    -55.464851      0.029520714    283.22854     -2008.0192      3375         
      6280  -55.928232      0.47288844    -55.455344      0.029520714    406.49158      11.793525      3375         
      6290  -55.988937      0.48197239    -55.506964      0.029520714    414.30007      1236.176       3375         
      6300  -55.925109      0.38263912    -55.54247       0.029520714    328.91389      524.39023      3375         
      6310  -55.896799      0.35178936    -55.54501       0.029520714    302.39565     -151.0173       3375         
      6320  -55.760754      0.20247595    -55.558278      0.029520714    174.0469      -369.20206      3375         
      6330  -55.999404      0.41699233    -55.582412      0.029520714    358.44367     -758.66679      3375         
      6340  -56.010412      0.44058661    -55.569826      0.029520714    378.72515     -100.14495      3375         
      6350  -55.855336      0.25745566    -55.59788       0.029520714    221.30707      537.92207      3375         
      6360  -56.008502      0.38921108    -55.619291      0.029520714    334.56311      1013.0187      3375         
[...]
     48420  -55.927372      0.25647929    -55.670893      0.029520714    220.46779      1113.1629      3375         
     48430  -56.005798      0.3342863     -55.671512      0.029520714    287.35015     -133.36562      3375         
     48440  -56.051502      0.39421356    -55.657289      0.029520714    338.86321     -356.65855      3375         
     48450  -55.910071      0.26678304    -55.643288      0.029520714    229.32482     -536.71831      3375         
     48460  -55.855178      0.22322742    -55.631951      0.029520714    191.88472     -199.92563      3375         
     48470  -55.913751      0.27856381    -55.635187      0.029520714    239.45149      1026.6826      3375         
     48480  -56.052439      0.41668138    -55.635758      0.029520714    358.17639     -45.450467      3375         
     48490  -56.027878      0.41778081    -55.610097      0.029520714    359.12145     -826.35576      3375         
     48500  -55.933862      0.33213545    -55.601726      0.029520714    285.5013       404.46819      3375         
     48510  -55.825948      0.2238915     -55.602056      0.029520714    192.45556     -52.736315      3375         
     48520  -55.93838       0.34624495    -55.592135      0.029520714    297.62972     -243.25328      3375         
     48530  -55.988918      0.39866297    -55.590256      0.029520714    342.68788      794.82512      3375         
     48540  -55.940742      0.35313237    -55.58761       0.029520714    303.5501       52.172883      3375         
     48550  -55.895024      0.32340817    -55.571616      0.029520714    277.99938     -372.59742      3375         
     48560  -55.891546      0.31659548    -55.57495       0.029520714    272.14325     -431.64863      3375         
     48570  -55.843878      0.29105171    -55.552826      0.029520714    250.186       -659.9282       3375         
     48580  -55.95865       0.40854347    -55.550106      0.029520714    351.18109      742.68537      3375         
     48590  -56.052781      0.49162035    -55.561161      0.029520714    422.59339      921.28525      3375         
     48600  -55.864337      0.32345938    -55.540877      0.029520714    278.04341     -726.65869      3375         
     48610  -55.843028      0.31336184    -55.529666      0.029520714    269.36363     -319.03769      3375         
     48620  -55.864219      0.32793022    -55.536289      0.029520714    281.88651      125.06691      3375         
     48630  -55.963427      0.43621514    -55.527212      0.029520714    374.96747     -102.34008      3375         
     48640  -56.022144      0.49464904    -55.527495      0.029520714    425.19684      519.42746      3375         
     48650  -55.984865      0.44543539    -55.539429      0.029520714    382.89312      84.57784       3375         
     48660  -55.755078      0.24216057    -55.512917      0.029520714    208.15952     -344.97768      3375         
     48670  -55.838151      0.31604108    -55.52211       0.029520714    271.66669      134.01444      3375         
     48680  -55.902532      0.3809731     -55.521558      0.029520714    327.4818      -282.14292      3375         
     48690  -55.930259      0.4197007     -55.510559      0.029520714    360.77177     -509.65335      3375         
     48700  -56.002513      0.48089766    -55.521615      0.029520714    413.37625      476.78813      3375         
     48710  -55.898455      0.37755378    -55.520901      0.029520714    324.54257      376.78751      3375         
     48720  -55.732002      0.21634125    -55.515661      0.029520714    185.96542      8.0511824      3375         
     48730  -55.851723      0.3249065     -55.526817      0.029520714    279.28734     -99.504481      3375         
     48740  -56.002336      0.48599953    -55.516337      0.029520714    417.76178     -211.52454      3375         
     48750  -55.948845      0.42194045    -55.526905      0.029520714    362.69704      459.68809      3375         
     48760  -55.972269      0.41594345    -55.556326      0.029520714    357.54207      359.77847      3375         
     48770  -55.85867       0.31641592    -55.542254      0.029520714    271.9889      -956.42101      3375         
     48780  -55.792035      0.24366225    -55.548373      0.029520714    209.45036     -479.06373      3375         
     48790  -55.860828      0.29337682    -55.567451      0.029520714    252.18465      749.49905      3375         
     48800  -56.076198      0.49203075    -55.584167      0.029520714    422.94617      242.53719      3375         
     48810  -56.028631      0.41480885    -55.613822      0.029520714    356.56677     -217.89913      3375         
     48820  -55.812155      0.17717315    -55.634982      0.029520714    152.29679     -74.128133      3375         
     48830  -55.88708       0.25589993    -55.63118       0.029520714    219.96978      130.42182      3375         
     48840  -56.1175        0.45306375    -55.664437      0.029520714    389.45041     -30.475649      3375         
     48850  -55.960288      0.28785371    -55.672434      0.029520714    247.43703     -247.39384      3375         
     48860  -55.928843      0.24199098    -55.686852      0.029520714    208.01374     -21.401577      3375         
     48870  -56.037183      0.31905231    -55.71813       0.029520714    274.25512      554.76924      3375         
     48880  -55.954354      0.23856578    -55.715788      0.029520714    205.06946      7.075276       3375         
     48890  -55.921663      0.20529053    -55.716373      0.029520714    176.4663      -971.32981      3375         
     48900  -56.132264      0.40102948    -55.731234      0.029520714    344.72212     -290.29655      3375         
     48910  -56.079334      0.33829268    -55.741041      0.029520714    290.79401      1012.4768      3375         
     48920  -55.90117       0.14870036    -55.75247       0.029520714    127.82178      425.77567      3375         
     48930  -55.948284      0.17736132    -55.770923      0.029520714    152.45854     -683.79765      3375         
     48940  -56.029132      0.28327145    -55.745861      0.029520714    243.49815     -250.51614      3375         
     48950  -56.039845      0.28182084    -55.758025      0.029520714    242.25121      415.30303      3375         
     48960  -56.048856      0.28543696    -55.763419      0.029520714    245.3596       619.41649      3375         
     48970  -56.039027      0.27654974    -55.762478      0.029520714    237.72021     -210.7328       3375         
     48980  -55.969264      0.19720582    -55.772058      0.029520714    169.51673     -1017.8643      3375         
     48990  -55.909317      0.16239467    -55.746922      0.029520714    139.59332      201.83027      3375         
     49000  -56.030754      0.29036964    -55.740385      0.029520714    249.5997       612.33325      3375         
     49010  -56.059326      0.31689644    -55.742429      0.029520714    272.40195     -560.8598       3375         
     49020  -56.014216      0.29553135    -55.718685      0.029520714    254.03666      245.77824      3375         
     49030  -56.007041      0.29241126    -55.71463       0.029520714    251.35466      665.18952      3375         
     49040  -55.932813      0.21738271    -55.715431      0.029520714    186.86065     -441.60555      3375         
     49050  -55.904276      0.21891871    -55.685358      0.029520714    188.18098     -356.67826      3375         
     49060  -56.020242      0.35022797    -55.670015      0.029520714    301.0535      -278.08075      3375         
     49070  -56.020506      0.37071236    -55.649793      0.029520714    318.66174      203.71806      3375         
     49080  -55.952836      0.32624765    -55.626588      0.029520714    280.44019      1381.728       3375         
     49090  -55.915895      0.28715632    -55.628739      0.029520714    246.83755     -451.00107      3375         
     49100  -55.841272      0.24682856    -55.594444      0.029520714    212.1721      -1510.8611      3375         
     49110  -55.894741      0.34932678    -55.545414      0.029520714    300.27885      436.17245      3375         
     49120  -56.017273      0.47518967    -55.542084      0.029520714    408.4697       334.66437      3375         
     49130  -55.938088      0.41566105    -55.522427      0.029520714    357.29931      17.476702      3375         
     49140  -55.767987      0.25704956    -55.510938      0.029520714    220.958        404.00519      3375         
     49150  -55.89179       0.38438097    -55.507409      0.029520714    330.41118     -630.8378       3375         
     49160  -56.012889      0.53993129    -55.472958      0.029520714    464.12114      84.123775      3375         
     49170  -55.92947       0.46013438    -55.469336      0.029520714    395.52827      898.08849      3375         
     49180  -55.78503       0.3166667     -55.468363      0.029520714    272.20447     -689.97494      3375         
     49190  -55.850635      0.38900411    -55.461631      0.029520714    334.3852      -356.82252      3375         
     49200  -55.825042      0.35987376    -55.465168      0.029520714    309.34495      580.57803      3375         
     49210  -55.826209      0.36320349    -55.463006      0.029520714    312.20717     -446.92494      3375         
     49220  -56.022941      0.5800861     -55.442855      0.029520714    498.63793     -164.15763      3375         
     49230  -55.945082      0.49109363    -55.453988      0.029520714    422.14062      354.47359      3375         
     49240  -55.709589      0.25096926    -55.458619      0.029520714    215.73141     -21.02347       3375         
     49250  -55.822743      0.35527223    -55.467471      0.029520714    305.38951      669.17484      3375         
     49260  -55.903047      0.41298817    -55.490059      0.029520714    355.00172     -448.35751      3375         
     49270  -55.858393      0.40566955    -55.452723      0.029520714    348.71069     -1181.2282      3375         
     49280  -56.059626      0.58985851    -55.469767      0.029520714    507.03822      1193.3181      3375         
     49290  -55.915573      0.42454833    -55.491025      0.029520714    364.93876      950.52594      3375         
     49300  -55.748866      0.24936249    -55.499504      0.029520714    214.35024     -843.47488      3375         
     49310  -55.874342      0.36319668    -55.511145      0.029520714    312.20131     -607.47441      3375         
     49320  -55.968474      0.45843624    -55.510038      0.029520714    394.06857     -444.53404      3375         
     49330  -55.950693      0.43547142    -55.515222      0.029520714    374.32817      266.94438      3375         
     49340  -55.976433      0.43541923    -55.541014      0.029520714    374.28331      867.78325      3375         
     49350  -55.876254      0.32688704    -55.549367      0.029520714    280.9898      -294.2505       3375         
     49360  -55.872616      0.3169043     -55.555712      0.029520714    272.40871      127.9046       3375         
     49370  -55.98321       0.39789139    -55.585318      0.029520714    342.02464      397.68546      3375         
     49380  -55.952045      0.3765018     -55.575543      0.029520714    323.6383      -1035.4         3375         
     49390  -55.888827      0.30966407    -55.579163      0.029520714    266.18505     -226.27848      3375         
     49400  -55.953775      0.35224309    -55.601532      0.029520714    302.78568      917.74618      3375         
     49410  -55.947495      0.33757462    -55.60992       0.029520714    290.17677      1.2974654      3375         
     49420  -55.917284      0.2932466     -55.624037      0.029520714    252.07271     -540.10803      3375         
     49430  -55.953654      0.3276273     -55.626027      0.029520714    281.62612     -432.5344       3375         
     49440  -56.022717      0.39121712    -55.6315        0.029520714    336.28748      309.30827      3375         
     49450  -55.9036        0.25604031    -55.647559      0.029520714    220.09045      1058.3664      3375         
     49460  -55.849261      0.18891261    -55.660348      0.029520714    162.38795     -232.52567      3375         
     49470  -55.993077      0.33489883    -55.658178      0.029520714    287.87668     -1057.2509      3375         
     49480  -56.10117       0.42882108    -55.672349      0.029520714    368.61159      236.48292      3375         
     49490  -55.970433      0.29841409    -55.672019      0.029520714    256.51465      846.91787      3375         
     49500  -55.900295      0.21147697    -55.688818      0.029520714    181.78412      37.809725      3375         
     49510  -55.95911       0.25246549    -55.706644      0.029520714    217.01756     -578.21419      3375         
     49520  -55.915327      0.23290606    -55.682421      0.029520714    200.20441     -337.81889      3375         
     49530  -55.987701      0.28143212    -55.706269      0.029520714    241.91707      152.50133      3375         
     49540  -56.115789      0.38527581    -55.730514      0.029520714    331.18037     -50.8924        3375         
     49550  -55.982065      0.25448034    -55.727585      0.029520714    218.74951      52.764777      3375         
     49560  -55.949267      0.19270547    -55.756562      0.029520714    165.64826      575.47235      3375         
     49570  -56.010335      0.23092103    -55.779414      0.029520714    198.49809      355.62113      3375         
     49580  -56.022471      0.23463153    -55.78784       0.029520714    201.68761     -476.75267      3375         
     49590  -56.06341       0.24849278    -55.814917      0.029520714    213.60265     -800.77823      3375         
     49600  -56.099173      0.27391761    -55.825255      0.029520714    235.45765      20.204875      3375         
     49610  -56.027286      0.18705889    -55.840227      0.029520714    160.79451      945.09526      3375         
     49620  -56.049336      0.17995748    -55.869378      0.029520714    154.69018      368.25769      3375         
     49630  -56.050726      0.18517247    -55.865553      0.029520714    159.17295     -629.71274      3375         
     49640  -56.0437        0.18275218    -55.860948      0.029520714    157.09249     -550.11383      3375         
     49650  -56.108966      0.22676243    -55.882204      0.029520714    194.92339     -66.127829      3375         
     49660  -56.099735      0.22379877    -55.875936      0.029520714    192.37585      430.62849      3375         
     49670  -56.016196      0.13179164    -55.884404      0.029520714    113.28717      197.40755      3375         
     49680  -56.04653       0.15350972    -55.89302       0.029520714    131.95588     -229.90673      3375         
     49690  -56.101648      0.22635497    -55.875293      0.029520714    194.57314      299.43801      3375         
     49700  -56.075972      0.19432463    -55.881647      0.029520714    167.04009      111.09133      3375         
     49710  -56.053802      0.17434198    -55.87946       0.029520714    149.86314     -383.84779      3375         
     49720  -56.0599        0.20100016    -55.8589        0.029520714    172.77832      1.4337342      3375         
     49730  -56.037279      0.17420057    -55.863079      0.029520714    149.74159      12.185419      3375         
     49740  -56.025852      0.17036931    -55.855483      0.029520714    146.44826     -81.083551      3375         
     49750  -56.129419      0.30510984    -55.824309      0.029520714    262.27028     -32.51411       3375         
     49760  -56.084029      0.26806956    -55.815959      0.029520714    230.4307      -331.59594      3375         
     49770  -55.931479      0.14007841    -55.791401      0.029520714    120.41042      522.15997      3375         
     49780  -55.935622      0.15311056    -55.782511      0.029520714    131.61276      858.05758      3375         
     49790  -56.065873      0.28455144    -55.781322      0.029520714    244.59842     -736.21598      3375         
     49800  -56.064394      0.32523063    -55.739163      0.029520714    279.56596     -739.45342      3375         
     49810  -56.028408      0.31189892    -55.716509      0.029520714    268.10612      354.6961       3375         
     49820  -55.964956      0.25735441    -55.707601      0.029520714    221.22004      383.21089      3375         
     49830  -55.922229      0.23036966    -55.69186       0.029520714    198.02414      569.89604      3375         
     49840  -55.921771      0.23823867    -55.683533      0.029520714    204.78829     -263.40858      3375         
     49850  -55.994505      0.32579679    -55.668708      0.029520714    280.05263     -1020.8794      3375         
     49860  -56.032533      0.38882684    -55.643706      0.029520714    334.23281      197.32372      3375         
     49870  -56.011962      0.37277607    -55.639186      0.029520714    320.43569     -8.4771007      3375         
     49880  -55.890788      0.27129871    -55.619489      0.029520714    233.20646     -184.11197      3375         
     49890  -55.866098      0.25500338    -55.611095      0.029520714    219.19911      1443.413       3375         
     49900  -55.900093      0.28573866    -55.614354      0.029520714    245.61894      436.68914      3375         
     49910  -55.994596      0.39488043    -55.599716      0.029520714    339.43644     -1197.7012      3375         
     49920  -55.97781       0.39933189    -55.578478      0.029520714    343.26289     -761.34839      3375         
     49930  -55.880143      0.31471338    -55.56543       0.029520714    270.5254      -519.24877      3375         
     49940  -55.859818      0.30290344    -55.556915      0.029520714    260.37366      838.95041      3375         
     49950  -55.937357      0.3777242     -55.559632      0.029520714    324.68907      1246.5785      3375         
     49960  -55.900526      0.35452859    -55.545998      0.029520714    304.75028     -722.68568      3375         
     49970  -55.937854      0.41162787    -55.526226      0.029520714    353.83242     -389.38318      3375         
     49980  -55.971377      0.44062839    -55.530748      0.029520714    378.76107      302.70933      3375         
     49990  -55.823263      0.30501272    -55.518251      0.029520714    262.18679     -759.75193      3375         
     50000  -55.863837      0.35433866    -55.509498      0.029520714    304.58702      366.69144      3375         
Loop time of 80.7481 on 3 procs for 50000 steps with 10 atoms

Performance: 26.750 ns/day, 0.897 hours/ns, 619.210 timesteps/s, 6.192 katom-step/s
168.5% CPU use with 3 MPI tasks x no OpenMP threads

MPI task timing breakdown:
Section |  min time  |  avg time  |  max time  |%varavg| %total
---------------------------------------------------------------
Pair    | 26.445     | 43.454     | 76.967     | 359.5 | 53.81
Neigh   | 0.00089696 | 0.001163   | 0.0016697  |   1.1 |  0.00
Comm    | 1.0836     | 34.518     | 51.517     | 402.4 | 42.75
Output  | 0.54438    | 0.57591    | 0.59438    |   3.0 |  0.71
Modify  | 1.8582     | 1.9687     | 2.1186     |   7.8 |  2.44
Other   |            | 0.2306     |            |       |  0.29

Nlocal:        3.33333 ave          10 max           0 min
Histogram: 2 0 0 0 0 0 0 0 0 1
Nghost:             70 ave          88 max          40 min
Histogram: 1 0 0 0 0 0 0 0 1 1
Neighs:              0 ave           0 max           0 min
Histogram: 3 0 0 0 0 0 0 0 0 0
FullNghs:           30 ave          90 max           0 min
Histogram: 2 0 0 0 0 0 0 0 0 1

Total # of neighbors = 90
Ave neighs/atom = 9
Neighbor list builds = 179
Dangerous builds = 0

write_data	restart.data
System init for write_data ...
Generated 0 of 1 mixed pair_coeff terms from geometric mixing rule
#
Total wall time: 0:01:22
