LAMMPS data file via write_data, version 2 Aug 2023, timestep = 50000, units = metal

10 atoms
2 atom types

0 15 xlo xhi
0 15 ylo yhi
0 15 zlo zhi

Masses

1 12
2 2

Atoms # atomic

10 2 7.807452872799395 5.15179713197911 8.178562182270431 0 0 0
4 1 7.507213576612422 6.23533339584975 8.11388089491285 0 0 0
7 2 6.546119630530195 8.795278020360376 6.251917991951011 0 0 0
8 2 7.473357279400232 6.0906241020796115 6.040448715584209 0 0 0
9 2 7.315367715750472 6.683339829780536 9.066679078325956 0 0 0
1 1 7.907001613566224 8.838781439160886 7.860488242249766 0 0 0
3 1 7.288499921436189 6.720562309459204 6.921430091284933 0 0 0
2 1 7.24157562055239 8.214028457389949 6.92027610765668 0 0 0
6 2 8.656835916858183 8.476143124820819 8.495866479363668 0 0 0
5 2 7.659122192351319 9.970584181268356 7.959073534391434 0 0 0

Velocities

10 9.02681784837577 -12.542272390605676 -6.229907923028608
4 -0.19627464849456117 1.7000563117075127 0.7926988824155493
7 4.037848561094361 10.888064406226214 -24.15981404722756
8 -1.6143507338110925 -7.5330205659705936 -3.308258197511924
9 3.8106449431081395 -2.418136065564501 -5.362294190238001
1 0.027108172680088676 -2.171684958427845 7.227153167310099
3 1.3986206407862023 1.7905563037925665 5.608586790366193
2 -1.1356077550405297 3.5284526720818157 -8.760373293499764
6 -16.446967233751156 -7.23962059125172 1.5589127389584807
5 0.6229281553952851 -10.239296767760296 8.292968339495777
