ITEM: TIMESTEP
0
ITEM: NUMBER OF ATOMS
10
ITEM: BOX BOUNDS pp pp pp
0.0000000000000000e+00 1.5000000000000000e+01
0.0000000000000000e+00 1.5000000000000000e+01
0.0000000000000000e+00 1.5000000000000000e+01
ITEM: ATOMS id type x y z
6 2 9.11721 6.67433 5.81748
10 2 6.12443 6.58339 9.77139
4 1 6.31897 7.35663 9.07713
3 1 7.28368 7.08234 8.10814
8 2 7.75413 6.12269 8.13785
1 1 8.65436 7.65828 5.89793
2 1 7.76167 7.90963 6.93869
5 2 8.82982 8.50459 5.1255
7 2 7.35747 8.9574 7.01817
9 2 5.82886 8.33629 8.88725
ITEM: TIMESTEP
100
ITEM: NUMBER OF ATOMS
10
ITEM: BOX BOUNDS pp pp pp
0.0000000000000000e+00 1.5000000000000000e+01
0.0000000000000000e+00 1.5000000000000000e+01
0.0000000000000000e+00 1.5000000000000000e+01
ITEM: ATOMS id type x y z
6 2 8.88865 6.44441 5.89432
10 2 6.06216 6.67144 9.78112
4 1 6.35493 7.45277 9.02392
3 1 7.22025 7.13595 8.06658
8 2 7.69131 6.09332 8.14042
1 1 8.60972 7.51607 5.94229
2 1 7.84278 7.97301 6.93258
5 2 8.96006 8.17483 5.22576
7 2 7.63 9.0408 6.939
9 2 5.72576 8.32841 9.11612
ITEM: TIMESTEP
200
ITEM: NUMBER OF ATOMS
10
ITEM: BOX BOUNDS pp pp pp
0.0000000000000000e+00 1.5000000000000000e+01
0.0000000000000000e+00 1.5000000000000000e+01
0.0000000000000000e+00 1.5000000000000000e+01
ITEM: ATOMS id type x y z
6 2 9.17887 6.54266 5.85212
10 2 5.89497 6.94185 9.76211
4 1 6.40101 7.59212 9.07975
3 1 7.15321 7.08018 8.00156
8 2 7.30341 6.01001 8.02339
1 1 8.68663 7.47185 5.94371
2 1 7.78415 7.84708 6.9841
5 2 9.00905 8.18882 5.14331
7 2 7.42184 8.91569 6.92453
9 2 6.16589 8.67363 9.1288
ITEM: TIMESTEP
300
ITEM: NUMBER OF ATOMS
10
ITEM: BOX BOUNDS pp pp pp
0.0000000000000000e+00 1.5000000000000000e+01
0.0000000000000000e+00 1.5000000000000000e+01
0.0000000000000000e+00 1.5000000000000000e+01
ITEM: ATOMS id type x y z
6 2 8.82019 6.27498 6.01691
10 2 5.99216 6.92909 9.80387
4 1 6.40272 7.6164 9.04389
3 1 7.15092 7.16856 8.00938
8 2 7.28767 6.09076 8.01856
1 1 8.64997 7.39747 5.98079
2 1 7.80947 7.87128 6.92001
5 2 9.16537 8.02814 5.29078
7 2 7.6994 8.93984 6.8832
9 2 6.08076 8.63496 9.15123
ITEM: TIMESTEP
400
ITEM: NUMBER OF ATOMS
10
ITEM: BOX BOUNDS pp pp pp
0.0000000000000000e+00 1.5000000000000000e+01
0.0000000000000000e+00 1.5000000000000000e+01
0.0000000000000000e+00 1.5000000000000000e+01
ITEM: ATOMS id type x y z
6 2 8.73444 6.24179 5.75272
10 2 5.79221 7.03802 9.68066
4 1 6.31125 7.71082 9.02602
3 1 7.21806 7.15966 8.1259
8 2 7.29869 6.04081 8.09057
1 1 8.61646 7.28127 5.91767
2 1 7.90464 7.88871 6.95754
5 2 9.12321 7.90733 5.12554
7 2 7.82725 8.96288 7.0602
9 2 6.04578 8.78642 9.01656
ITEM: TIMESTEP
500
ITEM: NUMBER OF ATOMS
10
ITEM: BOX BOUNDS pp pp pp
0.0000000000000000e+00 1.5000000000000000e+01
0.0000000000000000e+00 1.5000000000000000e+01
0.0000000000000000e+00 1.5000000000000000e+01
ITEM: ATOMS id type x y z
6 2 8.68894 6.13883 5.94788
10 2 5.75666 7.23609 9.76768
4 1 6.3866 7.81779 9.0373
3 1 7.10608 7.16938 8.09463
8 2 7.07626 6.08895 7.99321
1 1 8.65056 7.26102 5.93269
2 1 7.90922 7.76297 6.92448
5 2 9.1869 7.9026 5.29662
7 2 7.79349 8.88514 6.96178
9 2 6.30695 8.90142 8.98729
ITEM: TIMESTEP
600
ITEM: NUMBER OF ATOMS
10
ITEM: BOX BOUNDS pp pp pp
0.0000000000000000e+00 1.5000000000000000e+01
0.0000000000000000e+00 1.5000000000000000e+01
0.0000000000000000e+00 1.5000000000000000e+01
ITEM: ATOMS id type x y z
6 2 8.69321 6.01969 6.06536
1 1 8.64563 7.07189 6.03008
10 2 5.89923 7.21162 9.72694
8 2 6.87711 6.19968 7.898
3 1 7.01286 7.26588 7.97542
7 2 7.85316 8.94588 6.80835
2 1 7.90978 7.85574 6.90282
5 2 9.36027 7.56792 5.31563
9 2 6.42564 8.95872 9.1781
4 1 6.4343 7.85924 9.07445
ITEM: TIMESTEP
700
ITEM: NUMBER OF ATOMS
10
ITEM: BOX BOUNDS pp pp pp
0.0000000000000000e+00 1.5000000000000000e+01
0.0000000000000000e+00 1.5000000000000000e+01
0.0000000000000000e+00 1.5000000000000000e+01
ITEM: ATOMS id type x y z
6 2 8.56061 5.94436 5.80939
1 1 8.59816 7.06278 5.9595
10 2 5.6334 7.67522 9.68264
8 2 6.82024 6.10756 8.02139
3 1 7.06614 7.24204 8.02346
7 2 8.20077 8.77502 7.01205
2 1 8.00947 7.68128 7.05796
5 2 9.14231 7.56688 5.20503
9 2 6.39021 9.10218 9.01753
4 1 6.38898 8.02203 8.98258
ITEM: TIMESTEP
800
ITEM: NUMBER OF ATOMS
10
ITEM: BOX BOUNDS pp pp pp
0.0000000000000000e+00 1.5000000000000000e+01
0.0000000000000000e+00 1.5000000000000000e+01
0.0000000000000000e+00 1.5000000000000000e+01
ITEM: ATOMS id type x y z
6 2 8.24158 5.94023 5.7898
1 1 8.55276 6.93381 6.01988
10 2 5.72045 7.616 9.67973
8 2 6.73458 6.29824 8.11082
3 1 7.04109 7.33512 8.01755
7 2 8.5385 8.649 7.12384
2 1 8.03693 7.69215 7.01096
5 2 9.35924 7.35081 5.35437
9 2 6.44228 9.17479 8.86464
4 1 6.38378 8.07074 8.94591
ITEM: TIMESTEP
900
ITEM: NUMBER OF ATOMS
10
ITEM: BOX BOUNDS pp pp pp
0.0000000000000000e+00 1.5000000000000000e+01
0.0000000000000000e+00 1.5000000000000000e+01
0.0000000000000000e+00 1.5000000000000000e+01
ITEM: ATOMS id type x y z
6 2 8.34112 5.74921 6.00706
1 1 8.62644 6.81232 6.06833
10 2 5.5704 7.80207 9.55849
8 2 6.52204 6.3935 7.72027
3 1 6.93785 7.3415 7.97678
7 2 8.39079 8.70597 7.02747
2 1 8.00849 7.69259 6.94027
5 2 9.37214 7.20326 5.39089
9 2 6.79692 9.20936 9.2084
4 1 6.44899 8.17969 9.01069
ITEM: TIMESTEP
1000
ITEM: NUMBER OF ATOMS
10
ITEM: BOX BOUNDS pp pp pp
0.0000000000000000e+00 1.5000000000000000e+01
0.0000000000000000e+00 1.5000000000000000e+01
0.0000000000000000e+00 1.5000000000000000e+01
ITEM: ATOMS id type x y z
6 2 8.21528 5.76721 5.93818
1 1 8.5908 6.78487 6.08121
5 2 9.45617 7.13319 5.48246
3 1 6.91382 7.40166 7.9948
8 2 6.38787 6.41994 7.86166
7 2 8.44544 8.65128 7.12715
2 1 8.05607 7.60235 6.9654
9 2 6.94962 9.18374 9.02514
4 1 6.46147 8.21364 8.9505
10 2 5.53663 8.04943 9.50295
ITEM: TIMESTEP
1100
ITEM: NUMBER OF ATOMS
10
ITEM: BOX BOUNDS pp pp pp
0.0000000000000000e+00 1.5000000000000000e+01
0.0000000000000000e+00 1.5000000000000000e+01
0.0000000000000000e+00 1.5000000000000000e+01
ITEM: ATOMS id type x y z
6 2 7.88076 5.86089 5.84258
1 1 8.5149 6.71547 6.04194
5 2 9.47595 6.81558 5.52434
3 1 6.95548 7.41966 7.96434
8 2 6.52822 6.39455 7.95517
7 2 8.78773 8.44341 7.15422
2 1 8.14667 7.60206 7.08289
9 2 6.72862 9.37811 8.93774
4 1 6.41816 8.31882 8.91871
10 2 5.51142 7.99137 9.42769
ITEM: TIMESTEP
1200
ITEM: NUMBER OF ATOMS
10
ITEM: BOX BOUNDS pp pp pp
0.0000000000000000e+00 1.5000000000000000e+01
0.0000000000000000e+00 1.5000000000000000e+01
0.0000000000000000e+00 1.5000000000000000e+01
ITEM: ATOMS id type x y z
6 2 8.1659 5.62772 5.89176
1 1 8.52693 6.64842 6.13792
5 2 9.38605 6.88362 5.50947
3 1 6.90994 7.47543 7.92968
8 2 6.2178 6.66394 7.7636
7 2 8.58531 8.47885 7.24073
2 1 8.07576 7.48016 7.10058
9 2 6.99933 9.32848 9.01522
4 1 6.51535 8.36921 8.84028
10 2 5.6017 8.39803 9.41742
ITEM: TIMESTEP
1300
ITEM: NUMBER OF ATOMS
10
ITEM: BOX BOUNDS pp pp pp
0.0000000000000000e+00 1.5000000000000000e+01
0.0000000000000000e+00 1.5000000000000000e+01
0.0000000000000000e+00 1.5000000000000000e+01
ITEM: ATOMS id type x y z
6 2 7.94264 5.56555 6.12205
1 1 8.54157 6.47541 6.2036
5 2 9.52273 6.60595 5.69552
3 1 6.87904 7.56395 7.85625
8 2 6.05869 6.86522 7.61193
7 2 8.84901 8.34712 7.06781
2 1 8.05007 7.5264 7.04543
9 2 7.14602 9.35454 9.05948
4 1 6.52694 8.48145 8.87666
10 2 5.61924 8.19836 9.44055
ITEM: TIMESTEP
1400
ITEM: NUMBER OF ATOMS
10
ITEM: BOX BOUNDS pp pp pp
0.0000000000000000e+00 1.5000000000000000e+01
0.0000000000000000e+00 1.5000000000000000e+01
0.0000000000000000e+00 1.5000000000000000e+01
ITEM: ATOMS id type x y z
6 2 7.78782 5.60263 5.92904
1 1 8.44611 6.44248 6.20418
5 2 9.36072 6.4096 5.66893
3 1 6.89099 7.5933 7.95917
8 2 6.13415 6.82752 7.70878
7 2 8.88665 8.16839 7.29311
2 1 8.2016 7.41808 7.09089
9 2 7.04264 9.52263 9.00235
4 1 6.51947 8.56906 8.75033
10 2 5.56294 8.5517 9.25937
ITEM: TIMESTEP
1500
ITEM: NUMBER OF ATOMS
10
ITEM: BOX BOUNDS pp pp pp
0.0000000000000000e+00 1.5000000000000000e+01
0.0000000000000000e+00 1.5000000000000000e+01
0.0000000000000000e+00 1.5000000000000000e+01
ITEM: ATOMS id type x y z
6 2 7.69181 5.62331 5.87873
1 1 8.46068 6.38909 6.19274
5 2 9.54186 6.39648 5.77099
3 1 6.86236 7.59159 7.92796
8 2 6.0973 6.84835 7.77941
7 2 8.89117 8.10344 7.38574
2 1 8.1129 7.3186 7.17169
9 2 7.32813 9.45117 8.77499
4 1 6.56953 8.70038 8.7347
10 2 5.54086 8.79933 9.1366
ITEM: TIMESTEP
1600
ITEM: NUMBER OF ATOMS
10
ITEM: BOX BOUNDS pp pp pp
0.0000000000000000e+00 1.5000000000000000e+01
0.0000000000000000e+00 1.5000000000000000e+01
0.0000000000000000e+00 1.5000000000000000e+01
ITEM: ATOMS id type x y z
6 2 7.59426 5.56673 6.16982
1 1 8.38475 6.29188 6.34187
5 2 9.32452 6.08465 6.03313
2 1 8.16471 7.37856 7.10141
8 2 6.04711 6.99757 7.53628
7 2 8.99686 8.1178 7.25056
9 2 7.33986 9.4169 9.06208
4 1 6.61664 8.6572 8.73343
10 2 5.61857 8.75485 9.10077
3 1 6.8677 7.71928 7.77935
ITEM: TIMESTEP
1700
ITEM: NUMBER OF ATOMS
10
ITEM: BOX BOUNDS pp pp pp
0.0000000000000000e+00 1.5000000000000000e+01
0.0000000000000000e+00 1.5000000000000000e+01
0.0000000000000000e+00 1.5000000000000000e+01
ITEM: ATOMS id type x y z
6 2 7.68331 5.45054 6.12018
1 1 8.3925 6.22383 6.35077
5 2 9.38721 5.9856 5.84187
2 1 8.11129 7.31132 7.18367
8 2 5.96172 7.15397 7.48638
7 2 8.94658 7.95282 7.39614
9 2 7.50516 9.40123 8.99711
4 1 6.62656 8.7738 8.68919
10 2 5.60737 9.15866 9.03801
3 1 6.87508 7.71057 7.77792
ITEM: TIMESTEP
1800
ITEM: NUMBER OF ATOMS
10
ITEM: BOX BOUNDS pp pp pp
0.0000000000000000e+00 1.5000000000000000e+01
0.0000000000000000e+00 1.5000000000000000e+01
0.0000000000000000e+00 1.5000000000000000e+01
ITEM: ATOMS id type x y z
6 2 7.46464 5.68069 5.92291
1 1 8.34488 6.21257 6.37617
5 2 9.31882 5.94818 6.08626
2 1 8.14967 7.21131 7.22991
8 2 5.94734 7.18567 7.64563
7 2 9.10923 7.52938 7.67202
9 2 7.42846 9.57993 8.72988
4 1 6.66817 8.87615 8.55638
10 2 5.72946 9.09833 8.94981
3 1 6.85829 7.73294 7.81795
ITEM: TIMESTEP
1900
ITEM: NUMBER OF ATOMS
10
ITEM: BOX BOUNDS pp pp pp
0.0000000000000000e+00 1.5000000000000000e+01
0.0000000000000000e+00 1.5000000000000000e+01
0.0000000000000000e+00 1.5000000000000000e+01
ITEM: ATOMS id type x y z
6 2 7.4453 5.45803 6.07264
1 1 8.25544 6.07336 6.43733
5 2 9.28366 5.75745 6.08503
2 1 8.16555 7.20125 7.24813
8 2 6.02419 7.31628 7.28879
7 2 9.04671 7.69789 7.67592
9 2 7.56048 9.54638 8.99166
4 1 6.69402 8.92464 8.57111
10 2 5.61358 9.20406 8.74885
3 1 6.91001 7.84074 7.74778
ITEM: TIMESTEP
2000
ITEM: NUMBER OF ATOMS
10
ITEM: BOX BOUNDS pp pp pp
0.0000000000000000e+00 1.5000000000000000e+01
0.0000000000000000e+00 1.5000000000000000e+01
0.0000000000000000e+00 1.5000000000000000e+01
ITEM: ATOMS id type x y z
6 2 7.41725 5.43482 6.22819
1 1 8.29442 6.00722 6.52103
5 2 9.30466 5.68786 6.41324
2 1 8.08401 7.12955 7.22968
8 2 5.96517 7.53459 7.18677
7 2 8.96612 7.64916 7.53458
9 2 7.65708 9.33078 9.05438
4 1 6.779 8.94382 8.54477
10 2 5.83692 9.48715 8.73587
3 1 6.8387 7.93535 7.66053
ITEM: TIMESTEP
2100
ITEM: NUMBER OF ATOMS
10
ITEM: BOX BOUNDS pp pp pp
0.0000000000000000e+00 1.5000000000000000e+01
0.0000000000000000e+00 1.5000000000000000e+01
0.0000000000000000e+00 1.5000000000000000e+01
ITEM: ATOMS id type x y z
6 2 7.28925 5.62741 5.9686
1 1 8.17153 6.00576 6.50843
5 2 9.0627 5.31931 6.42916
2 1 8.16703 7.10291 7.38178
8 2 5.97339 7.49664 7.34994
7 2 9.17933 7.41388 7.84184
9 2 7.6392 9.56608 8.82588
4 1 6.7677 9.04494 8.4241
10 2 5.79914 9.46167 8.5138
3 1 6.92391 7.90223 7.67899
ITEM: TIMESTEP
2200
ITEM: NUMBER OF ATOMS
10
ITEM: BOX BOUNDS pp pp pp
0.0000000000000000e+00 1.5000000000000000e+01
0.0000000000000000e+00 1.5000000000000000e+01
0.0000000000000000e+00 1.5000000000000000e+01
ITEM: ATOMS id type x y z
6 2 7.31414 5.56535 6.06722
1 1 8.19378 5.94223 6.5746
5 2 9.11416 5.41676 6.43957
2 1 8.02201 7.06309 7.40318
8 2 5.97265 7.53494 7.15125
7 2 8.94331 7.38938 7.89617
9 2 7.72323 9.55695 8.83173
4 1 6.87601 9.10116 8.33333
10 2 6.00578 9.7919 8.47353
3 1 6.91665 7.88765 7.6938
ITEM: TIMESTEP
2300
ITEM: NUMBER OF ATOMS
10
ITEM: BOX BOUNDS pp pp pp
0.0000000000000000e+00 1.5000000000000000e+01
0.0000000000000000e+00 1.5000000000000000e+01
0.0000000000000000e+00 1.5000000000000000e+01
ITEM: ATOMS id type x y z
6 2 7.23032 5.37721 6.23737
1 1 8.09302 5.85853 6.70736
5 2 9.03854 5.30693 6.7111
2 1 8.08717 7.09035 7.34188
8 2 6.0164 7.83535 7.02693
7 2 9.01199 7.36825 7.82475
9 2 7.83042 9.39104 8.8771
4 1 6.90044 9.11527 8.34104
10 2 5.97552 9.58137 8.49339
3 1 6.92284 7.99583 7.56278
ITEM: TIMESTEP
2400
ITEM: NUMBER OF ATOMS
10
ITEM: BOX BOUNDS pp pp pp
0.0000000000000000e+00 1.5000000000000000e+01
0.0000000000000000e+00 1.5000000000000000e+01
0.0000000000000000e+00 1.5000000000000000e+01
ITEM: ATOMS id type x y z
6 2 7.08524 5.47719 6.28125
1 1 8.04474 5.80575 6.72152
5 2 8.93469 5.15861 6.61911
2 1 8.08493 6.96937 7.40625
8 2 6.12082 7.69552 6.95694
7 2 9.03897 7.25138 7.91302
9 2 7.7125 9.65992 8.903
4 1 6.93317 9.22452 8.29887
10 2 5.91965 9.78054 8.27938
3 1 6.98919 8.03318 7.56274
ITEM: TIMESTEP
2500
ITEM: NUMBER OF ATOMS
10
ITEM: BOX BOUNDS pp pp pp
0.0000000000000000e+00 1.5000000000000000e+01
0.0000000000000000e+00 1.5000000000000000e+01
0.0000000000000000e+00 1.5000000000000000e+01
ITEM: ATOMS id type x y z
6 2 7.27485 5.42537 6.09353
1 1 8.03817 5.80854 6.7451
5 2 8.95216 5.25689 6.84474
2 1 7.96762 6.88186 7.495
8 2 5.96725 7.82221 7.14339
7 2 8.78733 7.21575 8.14827
9 2 8.03936 9.497 8.66924
4 1 7.03293 9.26308 8.1653
10 2 6.25344 9.9528 8.08249
3 1 6.93621 8.05484 7.57915
ITEM: TIMESTEP
2600
ITEM: NUMBER OF ATOMS
10
ITEM: BOX BOUNDS pp pp pp
0.0000000000000000e+00 1.5000000000000000e+01
0.0000000000000000e+00 1.5000000000000000e+01
0.0000000000000000e+00 1.5000000000000000e+01
ITEM: ATOMS id type x y z
6 2 7.03604 5.54045 6.19058
1 1 7.90408 5.75025 6.85973
5 2 8.61004 4.92384 7.13253
7 2 8.87585 6.99888 8.15037
2 1 8.0304 6.967 7.5113
8 2 6.11941 7.78934 6.88974
3 1 7.05261 8.04832 7.43634
9 2 7.86874 9.60916 8.79164
4 1 7.08823 9.29982 8.15804
10 2 6.16201 9.96597 7.94167
ITEM: TIMESTEP
2700
ITEM: NUMBER OF ATOMS
10
ITEM: BOX BOUNDS pp pp pp
0.0000000000000000e+00 1.5000000000000000e+01
0.0000000000000000e+00 1.5000000000000000e+01
0.0000000000000000e+00 1.5000000000000000e+01
ITEM: ATOMS id type x y z
6 2 6.98025 5.31944 6.4453
1 1 7.82202 5.68921 6.99767
5 2 8.5183 4.88461 7.13046
7 2 8.86914 7.14173 8.1527
2 1 7.969 6.94223 7.48732
8 2 6.33746 8.06558 6.62356
3 1 7.1167 8.10003 7.42037
9 2 7.74439 9.42667 8.94771
4 1 7.1056 9.30236 8.04251
10 2 6.59452 10.1791 7.90209
ITEM: TIMESTEP
2800
ITEM: NUMBER OF ATOMS
10
ITEM: BOX BOUNDS pp pp pp
0.0000000000000000e+00 1.5000000000000000e+01
0.0000000000000000e+00 1.5000000000000000e+01
0.0000000000000000e+00 1.5000000000000000e+01
ITEM: ATOMS id type x y z
6 2 7.06001 5.52614 6.17558
1 1 7.81306 5.64908 6.99348
5 2 8.4629 4.84022 7.31788
7 2 8.66238 6.85179 8.46132
2 1 7.91013 6.92982 7.62562
8 2 6.22443 7.98511 6.70087
3 1 7.04617 8.11685 7.38481
9 2 8.06065 9.52815 8.6799
4 1 7.25798 9.35618 7.96228
10 2 6.48961 10.177 7.75631
ITEM: TIMESTEP
2900
ITEM: NUMBER OF ATOMS
10
ITEM: BOX BOUNDS pp pp pp
0.0000000000000000e+00 1.5000000000000000e+01
0.0000000000000000e+00 1.5000000000000000e+01
0.0000000000000000e+00 1.5000000000000000e+01
ITEM: ATOMS id type x y z
6 2 7.01867 5.51766 6.21857
1 1 7.73651 5.66291 7.0062
5 2 8.38637 4.81306 7.30918
7 2 8.51373 6.99722 8.49866
2 1 7.8707 6.8312 7.70082
8 2 6.36356 7.90914 6.67789
3 1 7.14963 8.16242 7.40754
9 2 8.03028 9.61813 8.61392
4 1 7.27293 9.37741 7.87725
10 2 6.63275 10.1612 7.61991
ITEM: TIMESTEP
3000
ITEM: NUMBER OF ATOMS
10
ITEM: BOX BOUNDS pp pp pp
0.0000000000000000e+00 1.5000000000000000e+01
0.0000000000000000e+00 1.5000000000000000e+01
0.0000000000000000e+00 1.5000000000000000e+01
ITEM: ATOMS id type x y z
6 2 6.81063 5.27138 6.45143
1 1 7.6862 5.57019 7.15136
5 2 8.38157 4.8448 7.55419
7 2 8.67964 6.95046 8.3544
2 1 7.8082 6.88723 7.63331
8 2 6.5057 8.10249 6.36385
3 1 7.1904 8.20336 7.24332
9 2 7.91518 9.43858 8.85609
4 1 7.32495 9.39138 7.93181
10 2 6.77278 10.2993 7.5503
ITEM: TIMESTEP
3100
ITEM: NUMBER OF ATOMS
10
ITEM: BOX BOUNDS pp pp pp
0.0000000000000000e+00 1.5000000000000000e+01
0.0000000000000000e+00 1.5000000000000000e+01
0.0000000000000000e+00 1.5000000000000000e+01
ITEM: ATOMS id type x y z
6 2 6.92731 5.46617 6.39722
1 1 7.57124 5.65422 7.17336
5 2 7.93828 4.74955 7.64276
7 2 8.57864 6.81643 8.59063
2 1 7.85947 6.84114 7.71515
8 2 6.55086 8.09523 6.51936
3 1 7.27516 8.13914 7.27929
9 2 7.96656 9.65679 8.64036
4 1 7.36346 9.40456 7.77735
10 2 6.74635 10.2015 7.42778
ITEM: TIMESTEP
3200
ITEM: NUMBER OF ATOMS
10
ITEM: BOX BOUNDS pp pp pp
0.0000000000000000e+00 1.5000000000000000e+01
0.0000000000000000e+00 1.5000000000000000e+01
0.0000000000000000e+00 1.5000000000000000e+01
ITEM: ATOMS id type x y z
6 2 6.99633 5.3991 6.28617
1 1 7.58356 5.59541 7.24443
7 2 8.26342 6.94736 8.66409
2 1 7.70064 6.88368 7.76809
5 2 8.03075 4.71212 7.65536
8 2 6.44855 7.99472 6.42796
3 1 7.15549 8.09761 7.33696
10 2 7.19434 10.4087 7.17464
9 2 8.19312 9.59061 8.55953
4 1 7.55989 9.45119 7.67073
ITEM: TIMESTEP
3300
ITEM: NUMBER OF ATOMS
10
ITEM: BOX BOUNDS pp pp pp
0.0000000000000000e+00 1.5000000000000000e+01
0.0000000000000000e+00 1.5000000000000000e+01
0.0000000000000000e+00 1.5000000000000000e+01
ITEM: ATOMS id type x y z
6 2 6.86218 5.39998 6.50164
1 1 7.45542 5.62264 7.35016
7 2 8.32863 6.95232 8.71664
2 1 7.75166 6.83454 7.76413
5 2 7.80765 4.78326 7.97761
8 2 6.57877 8.10974 6.25068
3 1 7.23264 8.1671 7.17487
10 2 7.17406 10.2575 7.20606
9 2 8.18438 9.46689 8.57068
4 1 7.59166 9.41743 7.65512
ITEM: TIMESTEP
3400
ITEM: NUMBER OF ATOMS
10
ITEM: BOX BOUNDS pp pp pp
0.0000000000000000e+00 1.5000000000000000e+01
0.0000000000000000e+00 1.5000000000000000e+01
0.0000000000000000e+00 1.5000000000000000e+01
ITEM: ATOMS id type x y z
6 2 6.58932 5.50816 6.57802
1 1 7.32734 5.56418 7.42205
7 2 8.4096 6.95357 8.67366
2 1 7.73605 6.80451 7.81002
5 2 7.58856 4.6691 7.93425
8 2 6.88037 7.98825 6.26423
3 1 7.42965 8.16279 7.16699
10 2 7.16162 10.3043 6.91865
9 2 8.01656 9.68405 8.58125
4 1 7.58662 9.48728 7.59076
ITEM: TIMESTEP
3500
ITEM: NUMBER OF ATOMS
10
ITEM: BOX BOUNDS pp pp pp
0.0000000000000000e+00 1.5000000000000000e+01
0.0000000000000000e+00 1.5000000000000000e+01
0.0000000000000000e+00 1.5000000000000000e+01
ITEM: ATOMS id type x y z
6 2 6.83069 5.30513 6.57391
1 1 7.3501 5.58378 7.46403
7 2 8.06136 7.02258 8.77481
2 1 7.55796 6.86043 7.85287
5 2 7.72773 4.77181 8.13829
8 2 6.72625 8.09265 6.21067
3 1 7.35054 8.1761 7.10679
10 2 7.53736 10.2781 6.94172
9 2 8.27486 9.62479 8.5153
4 1 7.73569 9.40052 7.53203
ITEM: TIMESTEP
3600
ITEM: NUMBER OF ATOMS
10
ITEM: BOX BOUNDS pp pp pp
0.0000000000000000e+00 1.5000000000000000e+01
0.0000000000000000e+00 1.5000000000000000e+01
0.0000000000000000e+00 1.5000000000000000e+01
ITEM: ATOMS id type x y z
6 2 6.89746 5.36849 6.45382
1 1 7.27578 5.58431 7.48794
7 2 7.89393 6.95482 9.00295
2 1 7.57369 6.90507 7.90821
5 2 7.40499 4.76435 8.1507
8 2 6.80751 8.10161 6.23888
3 1 7.41514 8.12374 7.15557
10 2 7.45 10.1899 6.76675
9 2 8.31267 9.68026 8.32418
4 1 7.79497 9.41365 7.44024
ITEM: TIMESTEP
3700
ITEM: NUMBER OF ATOMS
10
ITEM: BOX BOUNDS pp pp pp
0.0000000000000000e+00 1.5000000000000000e+01
0.0000000000000000e+00 1.5000000000000000e+01
0.0000000000000000e+00 1.5000000000000000e+01
ITEM: ATOMS id type x y z
6 2 6.59572 5.38039 6.70371
7 2 8.05452 7.03162 8.83695
2 1 7.61172 6.90253 7.8416
5 2 7.32518 4.73967 8.28479
1 1 7.13988 5.60432 7.60475
8 2 7.2217 7.94145 6.04916
3 1 7.49323 8.11852 7.08943
10 2 7.7359 10.2901 6.8046
4 1 7.79308 9.38259 7.42634
9 2 7.96353 9.78903 8.43709
ITEM: TIMESTEP
3800
ITEM: NUMBER OF ATOMS
10
ITEM: BOX BOUNDS pp pp pp
0.0000000000000000e+00 1.5000000000000000e+01
0.0000000000000000e+00 1.5000000000000000e+01
0.0000000000000000e+00 1.5000000000000000e+01
ITEM: ATOMS id type x y z
6 2 6.70039 5.34456 6.63087
7 2 7.88975 7.08795 8.97255
2 1 7.55374 6.92883 7.95305
5 2 7.09449 4.88348 8.44276
1 1 7.08496 5.61239 7.65061
8 2 7.1878 7.99402 5.95915
3 1 7.51698 8.13205 7.00593
10 2 7.77945 10.1191 6.62646
4 1 7.90443 9.36814 7.36406
9 2 8.11152 9.54242 8.41532
ITEM: TIMESTEP
3900
ITEM: NUMBER OF ATOMS
10
ITEM: BOX BOUNDS pp pp pp
0.0000000000000000e+00 1.5000000000000000e+01
0.0000000000000000e+00 1.5000000000000000e+01
0.0000000000000000e+00 1.5000000000000000e+01
ITEM: ATOMS id type x y z
6 2 6.96576 5.47705 6.61555
7 2 7.58807 7.2261 9.08361
2 1 7.34115 6.91208 8.00587
5 2 6.93758 4.83647 8.45119
1 1 7.0866 5.62282 7.68535
8 2 7.03406 7.76699 6.16028
3 1 7.53623 8.10322 7.07835
10 2 8.07418 10.1234 6.40841
4 1 8.04943 9.37291 7.22813
9 2 8.44386 9.72383 8.18378
ITEM: TIMESTEP
4000
ITEM: NUMBER OF ATOMS
10
ITEM: BOX BOUNDS pp pp pp
0.0000000000000000e+00 1.5000000000000000e+01
0.0000000000000000e+00 1.5000000000000000e+01
0.0000000000000000e+00 1.5000000000000000e+01
ITEM: ATOMS id type x y z
6 2 6.61862 5.17306 6.87903
7 2 7.66816 7.29532 8.95941
2 1 7.34376 6.96171 7.99061
5 2 6.94078 5.04145 8.66261
1 1 6.96588 5.67711 7.79008
8 2 7.40988 7.85531 5.89953
3 1 7.62878 8.06493 6.92983
10 2 8.22254 10.0635 6.44076
4 1 8.07101 9.32944 7.24469
9 2 8.2074 9.59219 8.31641
ITEM: TIMESTEP
4100
ITEM: NUMBER OF ATOMS
10
ITEM: BOX BOUNDS pp pp pp
0.0000000000000000e+00 1.5000000000000000e+01
0.0000000000000000e+00 1.5000000000000000e+01
0.0000000000000000e+00 1.5000000000000000e+01
ITEM: ATOMS id type x y z
6 2 6.5891 5.41571 6.78468
7 2 7.58221 7.15971 9.04811
2 1 7.41832 6.95381 8.00611
5 2 6.64326 5.09545 8.68417
1 1 6.8598 5.74063 7.81474
8 2 7.55611 7.65711 5.94974
3 1 7.70078 7.97534 7.03131
10 2 8.08075 9.94593 6.24801
4 1 8.09446 9.34827 7.15745
9 2 8.23243 9.83777 8.11659
ITEM: TIMESTEP
4200
ITEM: NUMBER OF ATOMS
10
ITEM: BOX BOUNDS pp pp pp
0.0000000000000000e+00 1.5000000000000000e+01
0.0000000000000000e+00 1.5000000000000000e+01
0.0000000000000000e+00 1.5000000000000000e+01
ITEM: ATOMS id type x y z
6 2 6.65808 5.16879 6.97299
7 2 7.42796 7.43365 9.03443
2 1 7.30653 7.0079 7.98707
5 2 6.71082 5.08368 8.71342
1 1 6.86477 5.74683 7.85448
8 2 7.50946 7.69333 5.97663
3 1 7.61858 8.02095 7.02269
10 2 8.44531 9.89015 6.26042
4 1 8.21138 9.2581 7.11051
9 2 8.36482 9.74776 8.08262
ITEM: TIMESTEP
4300
ITEM: NUMBER OF ATOMS
10
ITEM: BOX BOUNDS pp pp pp
0.0000000000000000e+00 1.5000000000000000e+01
0.0000000000000000e+00 1.5000000000000000e+01
0.0000000000000000e+00 1.5000000000000000e+01
ITEM: ATOMS id type x y z
6 2 6.79851 5.24077 6.93957
7 2 7.25193 7.38606 9.07404
2 1 7.26598 7.07134 8.02832
5 2 6.51752 5.2695 8.85222
1 1 6.80722 5.7314 7.9461
8 2 7.45942 7.68412 5.88069
3 1 7.66941 7.98953 6.8926
10 2 8.52724 9.83043 6.20756
4 1 8.27709 9.23292 7.10315
9 2 8.45113 9.65799 8.1139
ITEM: TIMESTEP
4400
ITEM: NUMBER OF ATOMS
10
ITEM: BOX BOUNDS pp pp pp
0.0000000000000000e+00 1.5000000000000000e+01
0.0000000000000000e+00 1.5000000000000000e+01
0.0000000000000000e+00 1.5000000000000000e+01
ITEM: ATOMS id type x y z
6 2 6.58026 5.44048 6.91707
7 2 7.49092 7.53773 9.04858
2 1 7.27652 7.0452 8.11062
5 2 6.22008 5.21339 8.79012
1 1 6.6771 5.83611 7.92905
8 2 7.70594 7.37745 6.05454
3 1 7.85875 7.95576 7.00943
10 2 8.61156 9.70885 6.10545
4 1 8.24385 9.19343 6.96803
9 2 8.17799 9.75914 7.87049
ITEM: TIMESTEP
4500
ITEM: NUMBER OF ATOMS
10
ITEM: BOX BOUNDS pp pp pp
0.0000000000000000e+00 1.5000000000000000e+01
0.0000000000000000e+00 1.5000000000000000e+01
0.0000000000000000e+00 1.5000000000000000e+01
ITEM: ATOMS id type x y z
6 2 6.54034 5.24472 7.08987
7 2 7.23245 7.6838 8.99142
2 1 7.19036 7.17021 8.00987
5 2 6.32398 5.47127 9.02787
1 1 6.60406 5.83362 8.07088
8 2 7.88483 7.2638 5.95211
3 1 7.87643 7.86675 6.86561
10 2 8.90387 9.6338 6.17117
4 1 8.33926 9.16093 7.00745
9 2 8.17788 9.73352 7.93369
ITEM: TIMESTEP
4600
ITEM: NUMBER OF ATOMS
10
ITEM: BOX BOUNDS pp pp pp
0.0000000000000000e+00 1.5000000000000000e+01
0.0000000000000000e+00 1.5000000000000000e+01
0.0000000000000000e+00 1.5000000000000000e+01
ITEM: ATOMS id type x y z
6 2 6.88425 5.22027 7.3517
7 2 6.67051 7.82963 8.88822
2 1 7.06979 7.19941 8.05869
5 2 6.03716 5.5287 8.91443
1 1 6.63287 5.91886 8.06763
8 2 7.8553 7.3826 6.06524
3 1 7.83463 7.88194 6.98897
10 2 8.8441 9.45225 5.95089
4 1 8.49569 9.01811 6.88187
9 2 8.63479 9.69664 7.73556
ITEM: TIMESTEP
4700
ITEM: NUMBER OF ATOMS
10
ITEM: BOX BOUNDS pp pp pp
0.0000000000000000e+00 1.5000000000000000e+01
0.0000000000000000e+00 1.5000000000000000e+01
0.0000000000000000e+00 1.5000000000000000e+01
ITEM: ATOMS id type x y z
6 2 6.49581 5.12689 7.37495
8 2 8.17655 7.02706 6.13654
1 1 6.4805 5.9857 8.14767
2 1 7.1083 7.23113 8.00362
5 2 6.02974 5.69712 9.08281
4 1 8.52452 9.05409 6.87561
3 1 7.88864 7.77728 6.95227
10 2 9.13224 9.35063 5.99878
9 2 8.36946 9.86106 7.56276
7 2 6.90846 7.86807 8.85811
ITEM: TIMESTEP
4800
ITEM: NUMBER OF ATOMS
10
ITEM: BOX BOUNDS pp pp pp
0.0000000000000000e+00 1.5000000000000000e+01
0.0000000000000000e+00 1.5000000000000000e+01
0.0000000000000000e+00 1.5000000000000000e+01
ITEM: ATOMS id type x y z
6 2 6.48015 5.27443 7.44871
8 2 8.26356 7.00403 6.18545
1 1 6.44638 6.06708 8.13992
2 1 7.08435 7.2286 8.06462
5 2 5.7964 5.97826 9.00632
4 1 8.51349 8.98984 6.80403
3 1 7.99622 7.7302 6.96606
10 2 9.11958 9.15946 5.96693
9 2 8.23908 9.79097 7.52107
7 2 6.98252 7.91852 8.91274
ITEM: TIMESTEP
4900
ITEM: NUMBER OF ATOMS
10
ITEM: BOX BOUNDS pp pp pp
0.0000000000000000e+00 1.5000000000000000e+01
0.0000000000000000e+00 1.5000000000000000e+01
0.0000000000000000e+00 1.5000000000000000e+01
ITEM: ATOMS id type x y z
6 2 6.78335 5.27779 7.51917
8 2 7.98383 6.95209 6.25163
1 1 6.43899 6.0629 8.22426
2 1 6.97697 7.2862 8.05323
5 2 5.66097 5.83599 8.939
4 1 8.64043 8.94894 6.7508
3 1 7.94485 7.74676 6.98325
10 2 9.35358 9.04673 5.83373
9 2 8.52464 9.7537 7.46537
7 2 6.81019 8.08493 8.81088
ITEM: TIMESTEP
5000
ITEM: NUMBER OF ATOMS
10
ITEM: BOX BOUNDS pp pp pp
0.0000000000000000e+00 1.5000000000000000e+01
0.0000000000000000e+00 1.5000000000000000e+01
0.0000000000000000e+00 1.5000000000000000e+01
ITEM: ATOMS id type x y z
6 2 6.54286 5.22066 7.77672
8 2 8.25977 6.86655 6.12287
1 1 6.39436 6.1497 8.29876
2 1 6.95801 7.33733 7.99145
5 2 5.74998 6.08736 9.18954
4 1 8.65018 8.86918 6.78211
3 1 7.99339 7.65981 6.8443
10 2 9.42611 9.08478 6.12954
9 2 8.33925 9.67691 7.53769
7 2 6.83039 8.18766 8.63294
ITEM: TIMESTEP
5100
ITEM: NUMBER OF ATOMS
10
ITEM: BOX BOUNDS pp pp pp
0.0000000000000000e+00 1.5000000000000000e+01
0.0000000000000000e+00 1.5000000000000000e+01
0.0000000000000000e+00 1.5000000000000000e+01
ITEM: ATOMS id type x y z
6 2 6.57822 5.36011 7.59856
8 2 8.33461 6.72992 6.51327
1 1 6.27475 6.23306 8.23373
2 1 7.05571 7.39249 8.07905
5 2 5.51399 6.13367 8.97954
4 1 8.67378 8.7864 6.66273
3 1 8.03705 7.63666 7.07724
10 2 9.27677 8.75462 5.66472
9 2 8.46888 9.7207 7.10959
7 2 6.70377 8.22939 8.70675
ITEM: TIMESTEP
5200
ITEM: NUMBER OF ATOMS
10
ITEM: BOX BOUNDS pp pp pp
0.0000000000000000e+00 1.5000000000000000e+01
0.0000000000000000e+00 1.5000000000000000e+01
0.0000000000000000e+00 1.5000000000000000e+01
ITEM: ATOMS id type x y z
6 2 6.33349 5.3198 7.86325
8 2 8.41243 6.67509 6.59831
1 1 6.22519 6.28636 8.30872
2 1 6.99977 7.44362 7.97711
5 2 5.57004 6.31883 9.20219
4 1 8.72381 8.68722 6.65719
3 1 8.0602 7.59502 7.03023
10 2 9.4543 8.68568 5.93855
9 2 8.5602 9.75604 6.92613
7 2 6.73975 8.39122 8.52109
ITEM: TIMESTEP
5300
ITEM: NUMBER OF ATOMS
10
ITEM: BOX BOUNDS pp pp pp
0.0000000000000000e+00 1.5000000000000000e+01
0.0000000000000000e+00 1.5000000000000000e+01
0.0000000000000000e+00 1.5000000000000000e+01
ITEM: ATOMS id type x y z
8 2 8.38104 6.64002 6.39149
1 1 6.19843 6.365 8.44531
2 1 6.89217 7.4699 7.89178
5 2 5.3979 6.57134 9.1733
6 2 6.54366 5.31362 8.21646
4 1 8.80528 8.63394 6.66945
3 1 8.11171 7.55849 6.96494
10 2 9.64353 8.51618 5.91575
9 2 8.63433 9.60448 7.07608
7 2 6.47796 8.41034 8.28702
ITEM: TIMESTEP
5400
ITEM: NUMBER OF ATOMS
10
ITEM: BOX BOUNDS pp pp pp
0.0000000000000000e+00 1.5000000000000000e+01
0.0000000000000000e+00 1.5000000000000000e+01
0.0000000000000000e+00 1.5000000000000000e+01
ITEM: ATOMS id type x y z
8 2 8.32167 6.51624 6.7685
1 1 6.16513 6.41841 8.40999
2 1 6.86498 7.51962 7.96366
5 2 5.25891 6.51851 9.00229
6 2 6.57512 5.46484 8.12031
4 1 8.84716 8.54931 6.55087
3 1 8.12944 7.55221 7.08432
10 2 9.67764 8.31071 5.94876
9 2 8.63904 9.62161 6.72818
7 2 6.61138 8.55076 8.26782
ITEM: TIMESTEP
5500
ITEM: NUMBER OF ATOMS
10
ITEM: BOX BOUNDS pp pp pp
0.0000000000000000e+00 1.5000000000000000e+01
0.0000000000000000e+00 1.5000000000000000e+01
0.0000000000000000e+00 1.5000000000000000e+01
ITEM: ATOMS id type x y z
8 2 8.61443 6.42267 6.98517
1 1 6.10518 6.53567 8.41088
2 1 6.92453 7.54829 7.93759
5 2 5.23442 6.80711 9.00725
6 2 6.28491 5.45444 8.23515
4 1 8.80456 8.51768 6.53953
3 1 8.17952 7.40754 7.09291
10 2 9.79991 8.37144 6.03318
9 2 8.34178 9.48682 6.57134
7 2 6.76579 8.62238 8.17149
ITEM: TIMESTEP
5600
ITEM: NUMBER OF ATOMS
10
ITEM: BOX BOUNDS pp pp pp
0.0000000000000000e+00 1.5000000000000000e+01
0.0000000000000000e+00 1.5000000000000000e+01
0.0000000000000000e+00 1.5000000000000000e+01
ITEM: ATOMS id type x y z
8 2 8.45764 6.41152 6.97602
1 1 6.13026 6.62602 8.47103
2 1 6.84705 7.58545 7.8841
5 2 5.16311 6.72695 8.97934
6 2 6.63082 5.64551 8.48241
4 1 8.96435 8.39191 6.53708
3 1 8.05634 7.45298 7.10407
10 2 9.79769 8.10294 5.9566
9 2 8.7233 9.48782 6.60353
7 2 6.36344 8.50711 7.91333
ITEM: TIMESTEP
5700
ITEM: NUMBER OF ATOMS
10
ITEM: BOX BOUNDS pp pp pp
0.0000000000000000e+00 1.5000000000000000e+01
0.0000000000000000e+00 1.5000000000000000e+01
0.0000000000000000e+00 1.5000000000000000e+01
ITEM: ATOMS id type x y z
8 2 8.53609 6.35776 7.09705
1 1 6.11198 6.72567 8.5294
2 1 6.81767 7.58426 7.80067
5 2 5.22555 7.03229 9.07109
6 2 6.19696 5.69371 8.79252
4 1 8.97431 8.33045 6.53567
3 1 8.09659 7.37002 7.10357
10 2 9.94843 8.03226 5.97014
9 2 8.73338 9.3783 6.46789
7 2 6.4803 8.66334 7.67447
ITEM: TIMESTEP
5800
ITEM: NUMBER OF ATOMS
10
ITEM: BOX BOUNDS pp pp pp
0.0000000000000000e+00 1.5000000000000000e+01
0.0000000000000000e+00 1.5000000000000000e+01
0.0000000000000000e+00 1.5000000000000000e+01
ITEM: ATOMS id type x y z
8 2 8.5543 6.33515 7.45702