10
 Atoms. Timestep: 0
C 8.65436 7.65828 5.89793
C 7.76167 7.90963 6.93869
C 7.28368 7.08234 8.10814
C 6.31897 7.35663 9.07713
H 8.82982 8.50459 5.1255
H 9.11721 6.67433 5.81748
H 7.35747 8.9574 7.01817
H 7.75413 6.12269 8.13785
H 5.82886 8.33629 8.88725
H 6.12443 6.58339 9.77139
10
 Atoms. Timestep: 20
C 8.58456 7.62598 5.93844
C 7.78943 7.96956 6.97234
C 7.32489 7.06209 8.09215
C 6.36711 7.39291 9.00398
H 8.83611 8.31776 5.21135
H 8.97129 6.62469 5.87692
H 7.43484 8.98479 6.86545
H 7.78143 6.09659 8.20837
H 5.72755 8.25426 9.03298
H 5.97678 6.63869 9.6525
10
 Atoms. Timestep: 40
C 8.60619 7.57284 5.89976
C 7.81517 7.98788 6.99469
C 7.33553 7.13761 8.07171
C 6.30618 7.38201 9.02944
H 8.91286 8.25058 5.10258
H 8.94749 6.49874 5.83234
H 7.38839 8.99289 6.98731
H 7.83269 6.09334 8.15896
H 5.75336 8.35232 9.07725
H 5.91077 6.55012 9.757
10
 Atoms. Timestep: 60
C 8.60183 7.53926 5.93175
C 7.84982 7.97442 6.93924
C 7.26741 7.18117 8.1444
C 6.29369 7.35616 9.00082
H 8.92426 8.18289 5.0687
H 8.91276 6.51014 5.8288
H 7.46861 9.00856 7.08234
H 7.77026 6.24133 8.04924
H 5.89144 8.35106 9.04892
H 6.08019 6.61994 9.71379
10
 Atoms. Timestep: 80
C 8.61495 7.51373 5.93112
C 7.79587 7.98567 6.98922
C 7.31791 7.14625 8.04334
C 6.27991 7.40399 9.02359
H 8.9063 8.20351 5.13124
H 8.88908 6.47254 5.89622
H 7.69391 9.08952 6.88915
H 7.70019 6.13163 8.14574
H 5.77568 8.38824 9.13534
H 6.10707 6.63672 9.76773
10
 Atoms. Timestep: 100
C 8.60972 7.51607 5.94229
C 7.84278 7.97301 6.93258
C 7.22025 7.13595 8.06658
C 6.35493 7.45277 9.02392
H 8.96006 8.17483 5.22576
H 8.88865 6.44441 5.89432
H 7.63 9.0408 6.939
H 7.69131 6.09332 8.14042
H 5.72576 8.32841 9.11612
H 6.06216 6.67144 9.78112
10
 Atoms. Timestep: 120
C 8.65259 7.50093 5.90832
C 7.82618 7.92823 6.94845
C 7.19662 7.15317 8.05338
C 6.34099 7.47778 9.08951
H 9.12954 8.20977 5.13679
H 8.92608 6.41574 5.81057
H 7.48077 8.95992 7.04851
H 7.6127 6.16237 8.06816
H 5.81196 8.43406 9.02054
H 6.0647 6.67756 9.80641
10
 Atoms. Timestep: 140
C 8.63152 7.49958 5.97942
C 7.77674 7.90212 6.95307
C 7.24052 7.1146 8.03609
C 6.36108 7.50232 9.01988
H 9.085 8.15464 5.25096
H 8.92116 6.51622 5.81038
H 7.51064 8.98664 6.9391
H 7.51206 6.07563 8.073
H 5.95785 8.51887 9.11753
H 6.07814 6.85627 9.76724
10
 Atoms. Timestep: 160
C 8.68594 7.49848 5.9306
C 7.77383 7.90727 6.91751
C 7.2132 7.07423 8.06871
C 6.32943 7.54142 9.03856
H 8.9976 8.29312 5.27885
H 8.9586 6.39943 5.9148
H 7.53774 8.97195 6.88662
H 7.49173 5.95947 8.05273
H 6.12744 8.62657 9.15664
H 5.99651 6.8411 9.86712
10
 Atoms. Timestep: 180
C 8.65587 7.50551 5.95993
C 7.81131 7.8572 6.9167
C 7.14852 7.09677 8.05664
C 6.37998 7.55086 9.04984
H 9.00937 8.21528 5.20821
H 9.11797 6.4837 5.87233
H 7.48091 8.88251 6.93517
H 7.42197 6.05846 8.04256
H 6.21711 8.59992 9.11383
H 5.90265 6.91811 9.81826
10
 Atoms. Timestep: 200
C 8.68663 7.47185 5.94371
C 7.78415 7.84708 6.9841
C 7.15321 7.08018 8.00156
C 6.40101 7.59212 9.07975
H 9.00905 8.18882 5.14331
H 9.17887 6.54266 5.85212
H 7.42184 8.91569 6.92453
H 7.30341 6.01001 8.02339
H 6.16589 8.67363 9.1288
H 5.89497 6.94185 9.76211
10
 Atoms. Timestep: 220
C 8.69112 7.47253 5.96347
C 7.8206 7.86334 6.90696
C 7.13658 7.06241 8.06506
C 6.40644 7.61624 9.05032
H 8.91447 8.21497 5.24456
H 9.10171 6.47087 5.95138
H 7.4542 8.88774 6.89872
H 7.19536 5.92941 7.95617
H 6.16589 8.68655 9.16856
H 5.9639 6.9433 9.75469
10
 Atoms. Timestep: 240
C 8.70227 7.47343 5.96116
C 7.78641 7.833 6.92626
C 7.15995 7.11191 8.02658
C 6.37069 7.60372 9.06107
H 9.02276 8.19709 5.19769
H 9.05251 6.37468 5.94754
H 7.52345 8.87849 6.8498
H 7.18676 6.02702 8.00137
H 6.26972 8.67714 9.16549
H 5.95288 6.9333 9.87676
10
 Atoms. Timestep: 260
C 8.67664 7.42219 5.98626
C 7.78274 7.85714 6.92378
C 7.12501 7.13188 8.01892
C 6.38484 7.59703 9.05254
H 9.16346 8.05936 5.24493
H 9.04461 6.43893 5.8349
H 7.51477 8.94721 6.87914
H 7.33189 6.07586 8.01229
H 6.28605 8.66141 9.20147
H 5.96783 6.98776 9.82733
10
 Atoms. Timestep: 280
C 8.68734 7.37331 5.95402
C 7.80429 7.90791 6.89649
C 7.10878 7.11173 8.01674
C 6.37597 7.62791 9.09063
H 9.17372 8.12635 5.3117
H 8.95136 6.31783 5.91484
H 7.55894 8.9749 6.91398
H 7.43356 6.02277 7.99205
H 6.17977 8.73095 9.21195
H 5.96835 6.92201 9.79722
10
 Atoms. Timestep: 300
C 8.64997 7.39747 5.98079
C 7.80947 7.87128 6.92001
C 7.15092 7.16856 8.00938
C 6.40272 7.6164 9.04389
H 9.16537 8.02814 5.29078
H 8.82019 6.27498 6.01691
H 7.6994 8.93984 6.8832
H 7.28767 6.09076 8.01856
H 6.08076 8.63496 9.15123
H 5.99216 6.92909 9.80387
10
 Atoms. Timestep: 320
C 8.66301 7.35471 5.94915
C 7.83886 7.89583 6.93198
C 7.16688 7.18237 8.0435
C 6.34469 7.62597 9.06803
H 9.17445 7.92021 5.15806
H 8.83608 6.28661 5.921
H 7.72683 9.01422 6.93205
H 7.24748 6.11117 7.98718
H 6.04268 8.66168 9.11489
H 6.01583 6.87282 9.81983
10
 Atoms. Timestep: 340
C 8.63601 7.30695 5.95858
C 7.91054 7.94071 6.92098
C 7.14715 7.17287 8.07221
C 6.32607 7.63228 9.04506
H 9.06913 7.89668 5.14045
H 8.8347 6.27489 5.86094
H 7.71822 9.00968 6.96366
H 7.38594 6.07571 7.9875
H 6.04164 8.69384 9.19956
H 5.95577 6.95236 9.75586
10
 Atoms. Timestep: 360
C 8.6161 7.32284 5.94677
C 7.90185 7.8868 6.99519
C 7.19538 7.20198 8.01007
C 6.32309 7.64117 9.02336
H 8.99968 7.94524 5.14511
H 8.73536 6.17662 5.95671
H 7.81114 8.96806 6.88793
H 7.43509 6.13605 8.11032
H 6.10734 8.71164 9.19107
H 5.81689 6.96562 9.74547
10
 Atoms. Timestep: 380
C 8.60901 7.32096 5.93861
C 7.91499 7.86074 6.95997
C 7.18745 7.19556 8.0996
C 6.32526 7.67362 9.01052
H 9.02081 7.91336 5.15997
H 8.69335 6.22854 5.90859
H 7.8469 8.98514 6.9516
H 7.39264 6.1382 8.10434
H 6.15214 8.71865 9.05775
H 5.79786 6.93075 9.65453
10
 Atoms. Timestep: 400
C 8.61646 7.28127 5.91767
C 7.90464 7.88871 6.95754
C 7.21806 7.15966 8.1259
C 6.31125 7.71082 9.02602
H 9.12321 7.90733 5.12554
H 8.73444 6.24179 5.75272
H 7.82725 8.96288 7.0602
H 7.29869 6.04081 8.09057
H 6.04578 8.78642 9.01656
H 5.79221 7.03802 9.68066
10
 Atoms. Timestep: 420
C 8.59875 7.3081 5.93239
C 7.907 7.81998 6.99743
C 7.20258 7.17041 8.07181
C 6.34619 7.71745 8.99298
H 9.13819 7.93833 5.2227
H 8.69355 6.20942 5.74466
H 7.85912 8.90746 7.02573
H 7.28516 6.08333 8.15921
H 6.00384 8.77602 9.00442
H 5.81703 7.20979 9.76462
10
 Atoms. Timestep: 440
C 8.63174 7.30535 5.91123
C 7.93793 7.78169 6.97513
C 7.11272 7.15273 8.07475
C 6.32225 7.76714 9.01161
H 9.10065 8.02569 5.28835
H 8.64377 6.19739 5.80048
H 7.91399 8.90615 7.00052
H 7.37006 6.10768 8.19745
H 6.15837 8.82447 8.90206
H 5.90934 7.11716 9.86382
10
 Atoms. Timestep: 460
C 8.63609 7.25905 5.94773
C 7.89727 7.82226 6.97791
C 7.09948 7.13043 8.06598
C 6.33498 7.78601 8.98721
H 9.11621 7.95866 5.23509
H 8.75787 6.24271 5.68022
H 7.93575 8.895 7.06914
H 7.30927 6.04512 8.23233
H 6.2246 8.85932 8.95735
H 5.97338 7.23264 9.84193
10
 Atoms. Timestep: 480
C 8.64844 7.25606 5.94771
C 7.86156 7.79267 6.97628
C 7.14766 7.15108 8.04875
C 6.3498 7.78896 9.00421
H 9.18344 7.89982 5.20517
H 8.77563 6.18245 5.72021
H 7.8753 8.8791 7.09536
H 7.14759 6.06671 8.12687
H 6.2152 8.91076 9.03278
H 5.88209 7.3485 9.84692
10
 Atoms. Timestep: 500
C 8.65056 7.26102 5.93269
C 7.90922 7.76297 6.92448
C 7.10608 7.16938 8.09463
C 6.3866 7.81779 9.0373
H 9.1869 7.9026 5.29662
H 8.68894 6.13883 5.94788
H 7.79349 8.88514 6.96178
H 7.07626 6.08895 7.99321
H 6.30695 8.90142 8.98729
H 5.75666 7.23609 9.76768
10
 Atoms. Timestep: 520
C 8.63358 7.20114 5.97629
C 7.87883 7.82878 6.9768
C 7.09829 7.17566 8.0312
C 6.41686 7.83165 9.03919
H 9.19886 7.81806 5.25848
H 8.79019 6.13361 5.92439
H 7.80128 8.89162 6.80806
H 7.02139 6.04541 8.03954
H 6.4055 8.89434 9.07086
H 5.74136 7.21354 9.64674
10
 Atoms. Timestep: 540
C 8.65937 7.15529 6.01018
C 7.88643 7.82806 6.92945
C 7.07554 7.22364 8.00194
C 6.38882 7.81616 9.04753
H 9.14684 7.71581 5.15243
H 8.85874 6.11041 5.93528
H 7.79737 8.91742 6.8791
H 7.02918 6.14454 8.00137
H 6.46867 8.9126 9.27326
H 5.76222 7.28028 9.71294
10
 Atoms. Timestep: 560
C 8.69864 7.15275 5.98944
C 7.9053 7.78793 6.87281
C 7.0383 7.26998 8.0299
C 6.36533 7.83189 9.05577
H 9.11797 7.68967 5.16493
H 8.78217 6.03515 6.10654
H 7.87803 8.91429 6.87882
H 6.99088 6.20078 7.88556
H 6.48855 8.89915 9.35241
H 5.82102 7.22568 9.81323
10
 Atoms. Timestep: 580
C 8.65915 7.12791 6.02995
C 7.87308 7.83905 6.9342
C 7.05534 7.25781 7.96817
C 6.41338 7.86495 9.04671
H 9.2111 7.59153 5.25408
H 8.74705 6.01879 6.11584
H 7.96098 8.89674 6.71938
H 6.83019 6.13691 7.91162
H 6.44326 8.89032 9.26264
H 5.92572 7.14738 9.75127
10
 Atoms. Timestep: 600
C 8.64563 7.07189 6.03008
C 7.90978 7.85574 6.90282
C 7.01286 7.26588 7.97542
C 6.4343 7.85924 9.07445
H 9.36027 7.56792 5.31563
H 8.69321 6.01969 6.06536
H 7.85316 8.94588 6.80835
H 6.87711 6.19968 7.898
H 6.42564 8.95872 9.1781
H 5.89923 7.21162 9.72694
10
 Atoms. Timestep: 620
C 8.67426 7.07878 6.00509
C 7.90917 7.79786 6.86455
C 7.00596 7.29225 7.98968
C 6.41351 7.86321 9.08502
H 9.42449 7.54608 5.32733
H 8.57774 5.97594 6.05441
H 7.8879 8.90513 6.92479
H 6.97798 6.23126 7.88532
H 6.44338 9.00849 9.21797
H 5.79509 7.36048 9.81309
10
 Atoms. Timestep: 640
C 8.66032 7.09481 6.03506
C 7.86305 7.79653 6.91977
C 7.04819 7.25676 7.98047
C 6.40949 7.92669 9.01638
H 9.33322 7.49367 5.34681
H 8.55026 5.97994 5.96925
H 8.12262 8.85882 6.8439
H 6.91613 6.10521 7.99656
H 6.50991 8.9469 9.23694
H 5.80557 7.38672 9.78548
10
 Atoms. Timestep: 660
C 8.63605 7.03987 6.00348
C 7.94232 7.78847 6.93747
C 7.02985 7.23554 8.04259
C 6.37176 7.97578 8.99781
H 9.26886 7.62348 5.30152
H 8.57545 5.9819 5.91476
H 8.11744 8.87664 6.93206
H 6.86003 6.15961 8.03404
H 6.59464 9.02342 9.11649
H 5.82771 7.31704 9.702
10
 Atoms. Timestep: 680
C 8.60711 7.04256 5.97087
C 8.01413 7.70414 6.99353
C 7.04087 7.28328 8.03815
C 6.37137 7.96135 8.98663
H 9.21367 7.63912 5.23743
H 8.59198 5.96072 5.87114
H 8.02784 8.79845 7.0524
H 6.8503 6.24549 8.02051
H 6.50602 9.10204 9.04822
H 5.73329 7.52622 9.72429
10
 Atoms. Timestep: 700
C 8.59816 7.06278 5.9595
C 8.00947 7.68128 7.05796
C 7.06614 7.24204 8.02346
C 6.38898 8.02203 8.98258
H 9.14231 7.56688 5.20503
H 8.56061 5.94436 5.80939
H 8.20077 8.77502 7.01205
H 6.82024 6.10756 8.02139
H 6.39021 9.10218 9.01753
H 5.6334 7.67522 9.68264
10
 Atoms. Timestep: 720
C 8.59921 7.02605 5.9682
C 8.03524 7.71723 6.99308
C 7.02501 7.20246 8.11879
C 6.38198 8.0645 8.9555
H 9.14405 7.6141 5.24048
H 8.4264 5.97639 5.78729
H 8.33717 8.75828 7.09065
H 6.8328 6.12766 8.07068
H 6.51788 9.12364 8.89417
H 5.61706 7.55852 9.5923
10
 Atoms. Timestep: 740
C 8.58696 6.99768 5.9682
C 8.00766 7.69669 7.0162
C 7.08476 7.25376 8.08237
C 6.34379 8.03648 8.92977
H 9.29675 7.5706 5.26623
H 8.28264 5.99173 5.74682
H 8.31881 8.72872 7.18571
H 6.84921 6.22832 8.19278
H 6.62967 9.14112 8.875
H 5.60796 7.65188 9.64325
10
 Atoms. Timestep: 760
C 8.5664 7.00503 5.97017
C 8.03189 7.66695 7.03517
C 7.071 7.27298 8.04728
C 6.34977 8.06541 8.91982
H 9.36512 7.37666 5.36798
H 8.23035 5.99099 5.6921
H 8.31601 8.73624 7.14949
H 6.94226 6.14568 8.17712
H 6.49094 9.14175 9.00406
H 5.66495 7.76647 9.66361
10
 Atoms. Timestep: 780
C 8.57809 6.95769 5.94597
C 8.07693 7.69901 7.0106
C 6.98825 7.26062 8.08096
C 6.36352 8.12515 8.95424
H 9.40284 7.34759 5.40945
H 8.20478 5.93628 5.71185
H 8.43248 8.72707 7.09901
H 6.93787 6.17311 8.07925
H 6.42704 9.18472 8.94442
H 5.67818 7.59639 9.69439
10
 Atoms. Timestep: 800
C 8.55276 6.93381 6.01988
C 8.03693 7.69215 7.01096
C 7.04109 7.33512 8.01755
C 6.38378 8.07074 8.94591
H 9.35924 7.35081 5.35437
H 8.24158 5.94023 5.7898
H 8.5385 8.649 7.12384
H 6.73458 6.29824 8.11082
H 6.44228 9.17479 8.86464
H 5.72045 7.616 9.67973
10
 Atoms. Timestep: 820
C 8.58338 6.88643 6.01556
C 8.03246 7.68566 7.00639
C 7.04379 7.36463 7.99927
C 6.37023 8.09279 8.96292
H 9.30725 7.34998 5.28409
H 8.23454 5.85628 5.86926
H 8.51464 8.68822 7.17364
H 6.69936 6.28383 7.98829
H 6.48415 9.20817 9.01472
H 5.70489 7.65651 9.65411
10
 Atoms. Timestep: 840
C 8.58415 6.88229 6.01764
C 8.09774 7.69274 6.98697
C 6.95997 7.32821 8.03425
C 6.38752 8.15245 8.95093
H 9.27471 7.21805 5.31755
H 8.25949 5.83147 5.916
H 8.39925 8.7368 7.05518
H 6.78084 6.28158 7.86763
H 6.59314 9.17259 9.19445
H 5.64033 7.64534 9.5994
10
 Atoms. Timestep: 860
C 8.57544 6.87259 6.03597
C 8.0546 7.70508 7.0371
C 7.01597 7.3517 7.96618
C 6.3912 8.127 8.95194
H 9.34882 7.15444 5.3062
H 8.26363 5.82547 5.99265
H 8.35597 8.73999 6.91603
H 6.61076 6.31504 7.96749
H 6.78805 9.1145 9.19177
H 5.53351 7.73233 9.56777
10
 Atoms. Timestep: 880
C 8.58505 6.84099 6.06802
C 8.03825 7.68717 6.9659
C 6.99322 7.38352 8.00246
C 6.4157 8.10728 8.96092
H 9.37095 7.22549 5.35759
H 8.27158 5.81463 6.0528
H 8.34956 8.7704 6.98196
H 6.51487 6.38617 7.87027
H 6.85564 9.10179 9.14333
H 5.56802 7.80777 9.49921
10
 Atoms. Timestep: 900
C 8.62644 6.81232 6.06833
C 8.00849 7.69259 6.94027
C 6.93785 7.3415 7.97678
C 6.44899 8.17969 9.01069
H 9.37214 7.20326 5.39089
H 8.34112 5.74921 6.00706
H 8.39079 8.70597 7.02747
H 6.52204 6.3935 7.72027
H 6.79692 9.20936 9.2084
H 5.5704 7.80207 9.55849
10
 Atoms. Timestep: 920
C 8.62166 6.83041 6.09473
C 7.98343 7.65648 6.99073
C 6.91749 7.39643 7.92577
C 6.48139 8.16533 8.9596
H 9.39332 7.12808 5.44466
H 8.39769 5.76418 5.95712
H 8.39842 8.64865 6.97676
H 6.42437 6.39511 7.83184
H 6.79295 9.15586 9.19512
H 5.69344 7.83628 9.65856
10
 Atoms. Timestep: 940
C 8.63026 6.79611 6.06453
C 8.03011 7.61904 6.97733
C 6.87612 7.42482 7.92426
C 6.43612 8.18931 8.97608
H 9.52174 7.24149 5.48463
H 8.32254 5.74886 5.98735
H 8.36092 8.70363 6.99734
H 6.37422 6.42123 7.95213
H 6.95457 9.17024 9.10112
H 5.75436 7.75888 9.71324
10
 Atoms. Timestep: 960
C 8.61424 6.79966 6.09853
C 8.01263 7.63521 6.97036
C 6.86669 7.37665 7.94873
C 6.46677 8.21644 8.93564
H 9.46453 7.16541 5.53348
H 8.32747 5.77991 5.94524
H 8.41366 8.64881 7.04334
H 6.42434 6.41907 7.83829
H 6.95146 9.18474 9.14609
H 5.7805 7.85426 9.66295
10
 Atoms. Timestep: 980
C 8.62969 6.78478 6.08347
C 7.96117 7.65237 7.00258
C 6.92927 7.35671 7.93768
C 6.47384 8.23915 8.95243
H 9.4474 7.09514 5.50393
H 8.29099 5.74007 5.90537
H 8.45759 8.59791 7.09377
H 6.41829 6.3802 7.76181
H 6.92252 9.19904 9.12656
H 5.62336 8.00955 9.64058
10
 Atoms. Timestep: 1000
C 8.5908 6.78487 6.08121
C 8.05607 7.60235 6.9654
C 6.91382 7.40166 7.9948
C 6.46147 8.21364 8.9505
H 9.45617 7.13319 5.48246
H 8.21528 5.76721 5.93818
H 8.44544 8.65128 7.12715
H 6.38787 6.41994 7.86166
H 6.94962 9.18374 9.02514
H 5.53663 8.04943 9.50295
10
 Atoms. Timestep: 1020
C 8.56885 6.76274 6.04885
C 8.08043 7.61183 7.06358
C 6.92888 7.3743 7.96551
C 6.44399 8.25096 8.93211
H 9.44954 7.113 5.39993
H 8.16903 5.76646 5.92694
H 8.52805 8.63174 7.0302
H 6.3837 6.45604 7.95188
H 6.93863 9.25701 9.07667
H 5.5222 7.99677 9.44308
10
 Atoms. Timestep: 1040
C 8.548 6.77392 6.07436
C 8.10082 7.5785 7.06706
C 6.95638 7.39459 7.97928
C 6.43341 8.29306 8.87734
H 9.28544 7.02853 5.40396
H 8.15766 5.78456 5.87747
H 8.56606 8.52283 7.12259
H 6.46207 6.41349 7.8528
H 6.8175 9.24731 9.16573
H 5.60363 7.98282 9.47818
10
 Atoms. Timestep: 1060
C 8.56175 6.71196 6.04065
C 8.11618 7.57263 7.04431
C 6.97721 7.44237 8.00553
C 6.38135 8.30928 8.89289
H 9.34021 7.09158 5.35882
H 8.02103 5.72262 5.87544
H 8.67242 8.52468 7.27969
H 6.50377 6.44099 7.82862
H 6.81073 9.2916 9.08933
H 5.55692 7.9311 9.55679
10
 Atoms. Timestep: 1080
C 8.49372 6.73422 6.0989
C 8.1332 7.59443 7.0598
C 6.97706 7.43658 7.97029
C 6.41632 8.26398 8.87141
H 9.37331 6.96743 5.43416
H 7.99981 5.82718 5.85246
H 8.82784 8.46491 7.18661
H 6.46718 6.49567 7.98066
H 6.76197 9.30908 8.96525
H 5.5721 7.98051 9.46741
10
 Atoms. Timestep: 1100
C 8.5149 6.71547 6.04194
C 8.14667 7.60206 7.08289
C 6.95548 7.41966 7.96434
C 6.41816 8.31882 8.91871
H 9.47595 6.81558 5.52434
H 7.88076 5.86089 5.84258
H 8.78773 8.44341 7.15422
H 6.52822 6.39455 7.95517
H 6.72862 9.37811 8.93774
H 5.51142 7.99137 9.42769
10
 Atoms. Timestep: 1120
C 8.52417 6.7189 6.06281
C 8.14146 7.54846 7.03789
C 6.96261 7.45585 8.01745
C 6.42421 8.32509 8.8601
H 9.43883 6.74473 5.57385
H 7.82143 5.86763 5.81788
H 8.6799 8.4932 7.3043
H 6.5785 6.42563 7.86795
H 6.73835 9.32911 9.0009
H 5.55233 8.06988 9.45463
10
 Atoms. Timestep: 1140
C 8.50955 6.67398 6.089
C 8.10319 7.58117 7.0791
C 7.0143 7.41615 7.9601
C 6.39371 8.36203 8.83931
H 9.48423 6.80463 5.4787
H 7.88683 5.82006 5.78266
H 8.77552 8.4702 7.30618
H 6.40247 6.51107 7.96995
H 6.90083 9.34827 9.03612
H 5.54966 8.06583 9.51033
10
 Atoms. Timestep: 1160
C 8.5181 6.66004 6.10743
C 8.15675 7.55155 7.0625
C 6.88426 7.45789 8.00081
C 6.44088 8.36866 8.83154
H 9.38281 6.95094 5.48597
H 7.99524 5.79447 5.85681
H 8.81894 8.35838 7.17817
H 6.36303 6.48772 7.93584
H 6.96093 9.30772 9.00973
H 5.60306 8.09195 9.40884
10
 Atoms. Timestep: 1180
C 8.56539 6.65494 6.07668
C 8.11991 7.47489 7.09291
C 6.88414 7.46544 7.92943
C 6.4564 8.41577 8.91149
H 9.36238 6.96947 5.47742
H 8.04591 5.64739 5.91583
H 8.74838 8.3992 7.15517
H 6.34531 6.51057 7.81749
H 6.96578 9.36905 9.00299
H 5.5012 8.25808 9.45702
10
 Atoms. Timestep: 1200
C 8.52693 6.64842 6.13792
C 8.07576 7.48016 7.10058
C 6.90994 7.47543 7.92968
C 6.51535 8.36921 8.84028
H 9.38605 6.88362 5.50947
H 8.1659 5.62772 5.89176
H 8.58531 8.47885 7.24073
H 6.2178 6.66394 7.7636
H 6.99933 9.32848 9.01522
H 5.6017 8.39803 9.41742
10
 Atoms. Timestep: 1220
C 8.56527 6.57508 6.1242
C 8.07689 7.53744 7.04859
C 6.85372 7.43544 7.96691
C 6.50567 8.45511 8.86526
H 9.54872 6.90041 5.55704
H 8.08195 5.64628 5.96981
H 8.60773 8.44534 7.19455
H 6.06912 6.66797 7.73198
H 7.27535 9.27695 9.01572
H 5.53191 8.26461 9.39013
10
 Atoms. Timestep: 1240
C 8.58458 6.61658 6.18812
C 8.03986 7.49683 7.00544
C 6.82815 7.48813 7.93102
C 6.52919 8.42989 8.83625
H 9.47134 6.72877 5.67659
H 8.0375 5.69702 6.02332
H 8.69268 8.39424 7.08752
H 6.14367 6.64473 7.79104
H 7.23398 9.16532 9.12205
H 5.65411 8.40134 9.42352
10
 Atoms. Timestep: 1260
C 8.58551 6.53244 6.16846
C 8.02705 7.52264 7.041
C 6.84519 7.54101 7.83064
C 6.51586 8.43501 8.89496
H 9.5633 6.65855 5.70089
H 8.01627 5.52987 5.96811
H 8.6432 8.46834 7.1227
H 6.22844 6.65447 7.7963
H 7.2196 9.24073 9.16078
H 5.61155 8.48145 9.52975
10
 Atoms. Timestep: 1280
C 8.50126 6.50587 6.23008
C 8.11825 7.51939 6.99069
C 6.80715 7.59283 7.87897
C 6.55363 8.42881 8.87129
H 9.50994 6.65723 5.77028
H 8.09081 5.57514 5.99826
H 8.63515 8.42157 7.15567
H 6.16575 6.69678 7.6633
H 7.20748 9.30944 9.05092
H 5.63309 8.27842 9.42438
10
 Atoms. Timestep: 1300
C 8.54157 6.47541 6.2036
C 8.05007 7.5264 7.04543
C 6.87904 7.56395 7.85625
C 6.52694 8.48145 8.87666
H 9.52273 6.60595 5.69552
H 7.94264 5.56555 6.12205
H 8.84901 8.34712 7.06781
H 6.05869 6.86522 7.61193
H 7.14602 9.35454 9.05948
H 5.61924 8.19836 9.44055
10
 Atoms. Timestep: 1320
C 8.52528 6.50573 6.22848
C 8.11527 7.46393 7.0155
C 6.88531 7.6016 7.8785
C 6.51206 8.46967 8.8243
H 9.38452 6.4942 5.66266
H 7.87601 5.58082 6.16475
H 8.80195 8.33645 7.11806
H 6.13955 6.869 7.64633
H 7.05687 9.31014 9.18847
H 5.63764 8.3838 9.42806
10
 Atoms. Timestep: 1340
C 8.48377 6.42135 6.19524
C 8.18153 7.51938 7.068
C 6.87606 7.60151 7.86344
C 6.4891 8.52304 8.8483
H 9.43848 6.43813 5.5547
H 7.84484 5.53167 6.09447
H 8.75992 8.38623 7.17207
H 6.22726 6.7065 7.68958
H 7.21476 9.33117 9.22875
H 5.45592 8.43462 9.29954
10
 Atoms. Timestep: 1360
C 8.43403 6.47248 6.25241
C 8.14458 7.48359 7.09748
C 6.9218 7.5948 7.88104
C 6.5212 8.50052 8.78184
H 9.32054 6.43011 5.6367
H 7.81295 5.64689 6.10461
H 8.89252 8.35678 7.13157
H 6.25598 6.73137 7.69958
H 7.18544 9.2636 9.10442
H 5.52693 8.48292 9.13555
10
 Atoms. Timestep: 1380
C 8.47983 6.43954 6.19473
C 8.14355 7.44443 7.08893
C 6.94555 7.55783 7.91436
C 6.48547 8.57615 8.80935
H 9.41762 6.49226 5.65443
H 7.63426 5.64197 6.12587
H 8.94201 8.23145 7.17399
H 6.198 6.82405 7.65646
H 7.15265 9.40089 9.03242
H 5.45303 8.52174 9.2016
10
 Atoms. Timestep: 1400
C 8.44611 6.44248 6.20418
C 8.2016 7.41808 7.09089
C 6.89099 7.5933 7.95917
C 6.51947 8.56906 8.75033
H 9.36072 6.4096 5.66893
H 7.78782 5.60263 5.92904
H 8.88665 8.16839 7.29311
H 6.13415 6.82752 7.70878
H 7.04264 9.52263 9.00235
H 5.56294 8.5517 9.25937
10
 Atoms. Timestep: 1420
C 8.43923 6.42006 6.18545
C 8.13342 7.39627 7.16908
C 6.91104 7.5873 7.87075
C 6.52034 8.63342 8.76097
H 9.45324 6.37741 5.64756
H 7.81977 5.63702 5.85872
H 8.96826 8.17649 7.3754
H 6.15728 6.75506 7.88254
H 7.14348 9.54498 8.9116
H 5.55788 8.50676 9.29562
10
 Atoms. Timestep: 1440
C 8.45396 6.44901 6.21785
C 8.12599 7.33975 7.13443
C 6.8624 7.6204 7.90264
C 6.55241 8.62668 8.70419
H 9.44375 6.49235 5.80346
H 7.66834 5.72073 5.91171
H 8.93875 8.05046 7.41139
H 6.26465 6.73464 7.91184
H 7.18425 9.44491 8.82853
H 5.65572 8.56189 9.26742
10
 Atoms. Timestep: 1460
C 8.47114 6.405 6.19287
C 8.13353 7.38775 7.15029
C 6.87106 7.5478 7.91357
C 6.53818 8.67598 8.71391
H 9.46437 6.44015 5.81644
H 7.65973 5.68957 5.82554
H 8.91679 8.0101 7.43076
H 6.12032 6.72381 7.8587
H 7.27729 9.53705 8.79751
H 5.60204 8.72016 9.33629
10
 Atoms. Timestep: 1480
C 8.43419 6.42496 6.22317
C 8.123 7.36453 7.1526
C 6.86835 7.56312 7.95719
C 6.56332 8.64313 8.68649
H 9.41546 6.28866 5.75458
H 7.8537 5.68952 5.7803
H 8.94493 8.11025 7.45437
H 6.05687 6.82786 7.79299
H 7.24976 9.49569 8.76554
H 5.67012 8.83358 9.22453
10
 Atoms. Timestep: 1500
C 8.46068 6.38909 6.19274
C 8.1129 7.3186 7.17169
C 6.86236 7.59159 7.92796
C 6.56953 8.70038 8.7347
H 9.54186 6.39648 5.77099
H 7.69181 5.62331 5.87873
H 8.89117 8.10344 7.38574
H 6.0973 6.84835 7.77941
H 7.32813 9.45117 8.77499
H 5.54086 8.79933 9.1366
10
 Atoms. Timestep: 1520
C 8.43724 6.39832 6.25172
C 8.12756 7.3147 7.16984
C 6.85819 7.61867 7.88044
C 6.6089 8.66801 8.68319
H 9.35991 6.47785 5.82586
H 7.69833 5.61384 5.98679
H 8.87664 8.00484 7.33918
H 6.0682 6.85335 7.80148
H 7.32318 9.47737 8.93821
H 5.60642 8.79461 9.08635
10
 Atoms. Timestep: 1540
C 8.43365 6.30951 6.24581
C 8.12341 7.3618 7.17536
C 6.87301 7.6293 7.86073
C 6.57588 8.71188 8.70348
H 9.38969 6.36783 5.70177
H 7.76245 5.51524 5.95391
H 8.98203 8.08628 7.40135
H 6.02152 6.91732 7.71886
H 7.34027 9.46312 9.03327
H 5.59236 8.79526 9.1676
10
 Atoms. Timestep: 1560
C 8.41779 6.32955 6.30071
C 8.15933 7.32502 7.10526
C 6.85962 7.68662 7.8873
C 6.56687 8.69809 8.71292
H 9.3999 6.18037 5.72031
H 7.7476 5.53934 6.01769
H 8.93468 8.09156 7.37041
H 6.08381 7.02191 7.57406
H 7.31647 9.3804 8.97794
H 5.61984 8.77071 9.19148
10
 Atoms. Timestep: 1580
C 8.41885 6.2915 6.28949
C 8.13864 7.39393 7.14964
C 6.88586 7.67253 7.80474
C 6.59559 8.67451 8.73345
H 9.43504 6.15204 5.92036
H 7.54944 5.57725 6.16268
H 8.97006 8.04042 7.22638
H 6.02474 7.02844 7.52683
H 7.3583 9.45143 9.00015
H 5.55284 8.77563 9.18864
10
 Atoms. Timestep: 1600
C 8.38475 6.29188 6.34187
C 8.16471 7.37856 7.10141
C 6.8677 7.71928 7.77935
C 6.61664 8.6572 8.73343
H 9.32452 6.08465 6.03313
H 7.59426 5.56673 6.16982
H 8.99686 8.1178 7.25056
H 6.04711 6.99757 7.53628
H 7.33986 9.4169 9.06208
H 5.61857 8.75485 9.10077
10
 Atoms. Timestep: 1620
C 8.40288 6.21926 6.33463
C 8.14767 7.38449 7.06879
C 6.88014 7.76274 7.79108
C 6.57241 8.72083 8.75976
H 9.46872 5.9309 5.90417
H 7.62703 5.48219 6.123
H 8.96591 8.10477 7.33073
H 6.10258 7.07493 7.53995
H 7.37093 9.34785 9.12148
H 5.57019 8.75539 9.14416
10
 Atoms. Timestep: 1640
C 8.39606 6.24786 6.3898
C 8.1324 7.36525 7.08641
C 6.89404 7.75326 7.78421
C 6.60951 8.70206 8.68743
H 9.35048 6.0188 5.91315
H 7.64486 5.5089 6.15018
H 8.98808 7.96602 7.24193
H 6.00493 7.16648 7.51423
H 7.32443 9.3596 9.19491
H 5.61918 8.78956 9.18753
10
 Atoms. Timestep: 1660
C 8.39374 6.20991 6.35417
C 8.15302 7.33519 7.14128
C 6.86302 7.72859 7.76123
C 6.62873 8.75461 8.71961
H 9.36199 6.17499 5.96858
H 7.55238 5.48282 6.20968
H 9.03711 8.02494 7.20867
H 5.94421 7.1611 7.42228
H 7.43005 9.41786 9.13743
H 5.56715 8.78851 9.08458
10
 Atoms. Timestep: 1680
C 8.36826 6.23101 6.35811
C 8.14908 7.2914 7.16526
C 6.85243 7.7728 7.79658
C 6.63286 8.72856 8.69416
H 9.37668 6.09436 5.90537
H 7.65201 5.432 6.17095
H 8.91981 8.07376 7.31573
H 6.05856 7.17825 7.42676
H 7.42699 9.35017 8.99091
H 5.67418 8.94883 8.99464
10
 Atoms. Timestep: 1700
C 8.3925 6.22383 6.35077
C 8.11129 7.31132 7.18367
C 6.87508 7.71057 7.77792
C 6.62656 8.7738 8.68919
H 9.38721 5.9856 5.84187
H 7.68331 5.45054 6.12018
H 8.94658 7.95282 7.39614
H 5.96172 7.15397 7.48638
H 7.50516 9.40123 8.99711
H 5.60737 9.15866 9.03801
10
 Atoms. Timestep: 1720
C 8.40051 6.21958 6.35782
C 8.14679 7.28127 7.15371
C 6.79443 7.71966 7.84469
C 6.67381 8.79027 8.60931
H 9.36393 6.11055 6.00083
H 7.56076 5.56052 6.08626
H 9.03639 7.87528 7.46112
H 5.89002 7.1081 7.53991
H 7.49705 9.4004 9.0136
H 5.68266 9.10048 8.99408
10
 Atoms. Timestep: 1740
C 8.38739 6.20462 6.34634
C 8.1057 7.25453 7.20564
C 6.84322 7.69985 7.81354
C 6.66042 8.86219 8.6163
H 9.44307 6.06727 6.05405
H 7.5366 5.58471 5.94111
H 8.97894 7.87261 7.49715
H 5.95119 7.13805 7.6253
H 7.54862 9.39734 8.90192
H 5.68519 9.03292 8.97858
10
 Atoms. Timestep: 1760
C 8.34715 6.22643 6.35241
C 8.08867 7.21581 7.2523
C 6.88126 7.75574 7.80841
C 6.66835 8.82592 8.58408
H 9.38058 5.91741 6.05311
H 7.69069 5.59617 5.83861
H 8.91347 7.82784 7.55069
H 6.01922 7.11734 7.63896
H 7.4919 9.52799 8.80289
H 5.71553 9.08981 9.02153
10
 Atoms. Timestep: 1780
C 8.36014 6.17472 6.32211
C 8.1517 7.20537 7.23967
C 6.8245 7.75778 7.81688
C 6.67732 8.87674 8.60434
H 9.41121 5.96637 6.11162
H 7.53537 5.5967 5.83251
H 9.07654 7.69603 7.64141
H 5.93879 7.06999 7.60412
H 7.44521 9.6754 8.75573
H 5.63492 9.1278 9.0456
10
 Atoms. Timestep: 1800
C 8.34488 6.21257 6.37617
C 8.14967 7.21131 7.22991
C 6.85829 7.73294 7.81795
C 6.66817 8.87615 8.55638
H 9.31882 5.94818 6.08626
H 7.46464 5.68069 5.92291
H 9.10923 7.52938 7.67202
H 5.94734 7.18567 7.64563
H 7.42846 9.57993 8.72988
H 5.72946 9.09833 8.94981
10
 Atoms. Timestep: 1820
C 8.32031 6.16567 6.34386
C 8.13644 7.2213 7.29265
C 6.91228 7.7542 7.82446
C 6.6462 8.90115 8.53252
H 9.32619 5.80677 5.99556
H 7.46325 5.69585 5.92566
H 9.01684 7.66944 7.72066
H 6.04163 7.152 7.62027
H 7.54114 9.52498 8.785
H 5.64357 9.11703 8.88096
10
 Atoms. Timestep: 1840
C 8.28523 6.18133 6.37277
C 8.20621 7.15175 7.28617
C 6.87755 7.77015 7.82123
C 6.67669 8.91341 8.52408
H 9.2425 5.78729 6.02526
H 7.43572 5.68662 5.92605
H 9.02001 7.80204 7.66558
H 6.04598 7.05317 7.53012
H 7.48819 9.57777 8.92806
H 5.61754 9.21333 8.78843
10
 Atoms. Timestep: 1860
C 8.30216 6.14486 6.3871
C 8.16851 7.19513 7.30892
C 6.9087 7.73858 7.78939
C 6.67175 8.91816 8.54325
H 9.26808 5.80876 6.03619
H 7.31257 5.68855 6.0084
H 9.18361 7.66057 7.52217
H 5.97545 7.23311 7.50253
H 7.41359 9.55606 8.93345
H 5.664 9.29265 8.71429
10
 Atoms. Timestep: 1880
C 8.28461 6.1222 6.43213
C 8.16326 7.18687 7.247
C 6.9231 7.81047 7.80672
C 6.65762 8.90243 8.55136
H 9.22609 5.82249 6.04258
H 7.41757 5.6108 6.08253
H 9.08954 7.5885 7.58172
H 6.03672 7.36495 7.40992
H 7.51542 9.48875 8.89012
H 5.66711 9.2127 8.65887
10
 Atoms. Timestep: 1900
C 8.25544 6.07336 6.43733
C 8.16555 7.20125 7.24813
C 6.91001 7.84074 7.74778
C 6.69402 8.92464 8.57111
H 9.28366 5.75745 6.08503
H 7.4453 5.45803 6.07264
H 9.04671 7.69789 7.67592
H 6.02419 7.31628 7.28879
H 7.56048 9.54638 8.99166
H 5.61358 9.20406 8.74885
10
 Atoms. Timestep: 1920
C 8.27508 6.09278 6.47499
C 8.12396 7.19307 7.2671
C 6.89174 7.85446 7.66263
C 6.74283 8.90018 8.54108
H 9.25624 5.68116 6.23748
H 7.39908 5.47246 6.11845
H 9.09562 7.71796 7.56816
H 5.96238 7.36817 7.32356
H 7.43898 9.48198 9.0526
H 5.77008 9.25535 8.91401
10
 Atoms. Timestep: 1940
C 8.31765 6.03747 6.48879
C 8.12409 7.17624 7.2248
C 6.85651 7.89357 7.65939
C 6.71754 8.94549 8.56698
H 9.29248 5.63317 6.34564
H 7.39082 5.57639 6.16788
H 9.02615 7.66677 7.49682
H 5.93309 7.46305 7.32675
H 7.66326 9.34961 9.01955
H 5.72353 9.21437 8.89262
10
 Atoms. Timestep: 1960
C 8.27802 6.01908 6.5401
C 8.11829 7.23054 7.19606
C 6.8473 7.90091 7.68151
C 6.74529 8.91113 8.54691
H 9.26952 5.59739 6.37185
H 7.48076 5.45633 6.10283
H 9.01101 7.7139 7.58244
H 5.90942 7.51215 7.22636
H 7.72952 9.29129 8.98585
H 5.7904 9.27898 8.83218
10
 Atoms. Timestep: 1980
C 8.26023 6.01097 6.55038
C 8.08214 7.23232 7.20506
C 6.8634 7.85186 7.62945
C 6.78591 8.92755 8.56848
H 9.30537 5.63088 6.40044
H 7.46146 5.35103 6.10003
H 9.02145 7.74575 7.63491
H 5.92149 7.51094 7.15071
H 7.61657 9.369 9.04187
H 5.84757 9.47618 8.84083
10
 Atoms. Timestep: 2000
C 8.29442 6.00722 6.52103
C 8.08401 7.12955 7.22968
C 6.8387 7.93535 7.66053
C 6.779 8.94382 8.54477
H 9.30466 5.68786 6.41324
H 7.41725 5.43482 6.22819
H 8.96612 7.64916 7.53458
H 5.96517 7.53459 7.18677
H 7.65708 9.33078 9.05438
H 5.83692 9.48715 8.73587
10
 Atoms. Timestep: 2020
C 8.27319 6.00581 6.51992
C 8.07653 7.14277 7.30297
C 6.87016 7.91699 7.65449
C 6.76896 8.98296 8.50547
H 9.27833 5.62612 6.31058
H 7.461 5.3821 6.19217
H 9.03005 7.5919 7.54117
H 5.86596 7.64166 7.23831
H 7.7393 9.26574 9.05025
H 5.81637 9.42129 8.65942
10
 Atoms. Timestep: 2040
C 8.21728 6.00424 6.556
C 8.09978 7.14095 7.30371
C 6.88146 7.8757 7.65862
C 6.80426 8.99608 8.46858
H 9.22201 5.63545 6.246
H 7.43235 5.38083 6.09327
H 9.05545 7.64306 7.72655
H 5.93408 7.59686 7.16755
H 7.60923 9.4012 9.04761
H 5.85423 9.46082 8.68657
10
 Atoms. Timestep: 2060
C 8.22629 5.95664 6.53654
C 8.11769 7.11224 7.29261
C 6.88907 7.90472 7.68788
C 6.79414 9.02182 8.4725
H 9.23517 5.62298 6.30764
H 7.27583 5.57681 6.10633
H 8.97715 7.54183 7.77239
H 6.07381 7.46478 7.13884
H 7.61495 9.50726 8.97973
H 5.78395 9.53382 8.64688
10
 Atoms. Timestep: 2080
C 8.20671 6.01341 6.54153
C 8.12289 7.11585 7.34676
C 6.93901 7.89835 7.67045
C 6.76062 9.01439 8.45455
H 9.08683 5.45903 6.36844
H 7.30899 5.64906 6.06953
H 9.08596 7.3895 7.73018
H 5.96645 7.4854 7.26619
H 7.69465 9.5056 8.84381
H 5.80576 9.47935 8.53108
10
 Atoms. Timestep: 2100
C 8.17153 6.00576 6.50843
C 8.16703 7.10291 7.38178
C 6.92391 7.90223 7.67899
C 6.7677 9.04494 8.4241
H 9.0627 5.31931 6.42916
H 7.28925 5.62741 5.9686
H 9.17933 7.41388 7.84184
H 5.97339 7.49664 7.34994
H 7.6392 9.56608 8.82588
H 5.79914 9.46167 8.5138
10
 Atoms. Timestep: 2120
C 8.17029 5.98157 6.5251
C 8.16469 7.04261 7.33831