LAMMPS (2 Aug 2023 - Update 2)
#13 Butadiene
units           metal
boundary        p p p
atom_style      atomic

neighbor        2.0 bin
neigh_modify    delay 0 every 1 check yes

read_data       restart.lmp
Reading data file ...
  orthogonal box = (0 0 0) to (15 15 15)
  1 by 2 by 2 MPI processor grid
  reading atoms ...
  10 atoms
  reading velocities ...
  10 velocities
  read_data CPU = 0.017 seconds
mass            1 12.0
mass            2 2

variable        sysvol          equal vol
variable        sysmass         equal mass(all)/6.0221367e+23
variable        sysdensity      equal v_sysmass/v_sysvol/1.0e-24
variable	out_freq 	equal 100

pair_style      deepmd ../files/frozen_model_1_compressed.pb ../files/frozen_model_2_compressed.pb ../files/frozen_model_3_compressed.pb ../files/frozen_model_3_compressed.pb out_file md.out out_freq 10 atomic relative 1.0
Summary of lammps deepmd module ...
  >>> Info of deepmd-kit:
  installed to:       /rs1/researchers/w/wjpfaend/rahul/MLP/DeePMD-kit/deepmd_cpu
  source:             v2.2.8-dirty
  source branch:      master
  source commit:      b875ea8
  source commit at:   2024-01-22 22:28:58 -0500
  support model ver.: 1.1 
  build variant:      cpu
  build with tf inc:  /rs1/researchers/w/wjpfaend/rahul/MLP/DeePMD-kit/tensorflow/lib/python3.11/site-packages/tensorflow/include;/rs1/researchers/w/wjpfaend/rahul/MLP/DeePMD-kit/tensorflow/lib/python3.11/site-packages/tensorflow/include
  build with tf lib:  /rs1/researchers/w/wjpfaend/rahul/MLP/DeePMD-kit/tensorflow/lib/python3.11/site-packages/tensorflow/libtensorflow_cc.so.2
  set tf intra_op_parallelism_threads: 0
  set tf inter_op_parallelism_threads: 0
  >>> Info of lammps module:
  use deepmd-kit at:  /rs1/researchers/w/wjpfaend/rahul/MLP/DeePMD-kit/deepmd_cpu
  source:             v2.2.8-dirty
  source branch:      master
  source commit:      b875ea8
  source commit at:   2024-01-22 22:28:58 -0500
  build float prec:   double
  build with tf inc:  /rs1/researchers/w/wjpfaend/rahul/MLP/DeePMD-kit/tensorflow/lib/python3.11/site-packages/tensorflow/include;/rs1/researchers/w/wjpfaend/rahul/MLP/DeePMD-kit/tensorflow/lib/python3.11/site-packages/tensorflow/include
  build with tf lib:  /rs1/researchers/w/wjpfaend/rahul/MLP/DeePMD-kit/tensorflow/lib/python3.11/site-packages/tensorflow/libtensorflow_cc.so.2
pair_coeff	* *

#
velocity        all create 300.0 2345678 rot no dist gaussian
fix             1 all nvt temp 300.0 300.0 0.05
fix             2 all plumed plumedfile plumed.dat outfile PLUMED.log

timestep        0.0005
thermo_style    custom step pe ke etotal v_sysdensity temp press vol
thermo          10

dump            10 all custom 100 btd.dump id type x y z
dump		101 all xyz 20 btd.xyz
dump_modify	101 element C H

fix		extra all print 20 "$(step), $(ke), $(pe), $(etotal), $(temp), $(press), $(vol)" file logfile screen no

restart	        20000 dump.restart

run             50000

CITE-CITE-CITE-CITE-CITE-CITE-CITE-CITE-CITE-CITE-CITE-CITE-CITE

Your simulation uses code contributions which should be cited:

- USER-DEEPMD package:

@article{Wang_ComputPhysCommun_2018_v228_p178,
  author = {Wang, Han and Zhang, Linfeng and Han, Jiequn and E, Weinan},
  doi = {10.1016/j.cpc.2018.03.016},
  url = {https://doi.org/10.1016/j.cpc.2018.03.016},
  year = 2018,
  month = {jul},
  publisher = {Elsevier {BV}},
  volume = 228,
  journal = {Comput. Phys. Commun.},
  title = {{DeePMD-kit: A deep learning package for many-body potential energy representation and molecular dynamics}},
  pages = {178--184}
}
@misc{Zeng_JChemPhys_2023_v159_p054801,
  title  = {{DeePMD-kit v2: A software package for deep potential models}},
  author =   {Jinzhe Zeng and Duo Zhang and Denghui Lu and Pinghui Mo and Zeyu Li
         and Yixiao Chen and Mari{\'a}n Rynik and Li'ang Huang and Ziyao Li and 
         Shaochen Shi and Yingze Wang and Haotian Ye and Ping Tuo and Jiabin
         Yang and Ye Ding and Yifan Li and Davide Tisi and Qiyu Zeng and Han 
         Bao and Yu Xia and Jiameng Huang and Koki Muraoka and Yibo Wang and 
         Junhan Chang and Fengbo Yuan and Sigbj{\o}rn L{\o}land Bore and Chun
         Cai and Yinnian Lin and Bo Wang and Jiayan Xu and Jia-Xin Zhu and 
         Chenxing Luo and Yuzhi Zhang and Rhys E A Goodall and Wenshuo Liang
         and Anurag Kumar Singh and Sikai Yao and Jingchao Zhang and Renata
         Wentzcovitch and Jiequn Han and Jie Liu and Weile Jia and Darrin M
         York and Weinan E and Roberto Car and Linfeng Zhang and Han Wang},
  journal =  {J. Chem. Phys.},
  volume =   159,
  issue =    5,  
  year =    2023,
  pages  =   054801,
  doi =      {10.1063/5.0155600},
}

CITE-CITE-CITE-CITE-CITE-CITE-CITE-CITE-CITE-CITE-CITE-CITE-CITE

Generated 0 of 1 mixed pair_coeff terms from geometric mixing rule
Neighbor list info ...
  update: every = 1 steps, delay = 0 steps, check = yes
  max neighbors/atom: 2000, page size: 100000
  master list distance cutoff = 8
  ghost atom cutoff = 8
  binsize = 4, bins = 4 4 4
  1 neighbor lists, perpetual/occasional/extra = 1 0 0
  (1) pair deepmd, perpetual
      attributes: full, newton on
      pair build: full/bin/atomonly
      stencil: full/bin/3d
      bin: standard
Per MPI rank memory allocation (min/avg/max) = 3.09 | 3.09 | 3.09 Mbytes
   Step         PotEng         KinEng         TotEng      v_sysdensity       Temp          Press          Volume    
         0  -56.387888      0.34900239    -56.038885      0.029520714    300           -3041.8324      3375         
        10  -56.585273      0.57482576    -56.010447      0.029520714    494.11618      762.05033      3375         
        20  -56.420232      0.44192896    -55.978303      0.029520714    379.87902      2913.0026      3375         
        30  -56.375934      0.39371079    -55.982223      0.029520714    338.43102     -422.57381      3375         
        40  -56.443228      0.43983939    -56.003388      0.029520714    378.08284     -2388.1395      3375         
        50  -56.54009       0.51364212    -56.026448      0.029520714    441.52315      550.57788      3375         
        60  -56.281697      0.25194699    -56.02975       0.029520714    216.57186      1705.5837      3375         
        70  -56.547777      0.503792      -56.043985      0.029520714    433.05606     -1467.2928      3375         
        80  -56.421713      0.35125168    -56.070462      0.029520714    301.93347     -1050.3198      3375         
        90  -56.481145      0.3732812     -56.107864      0.029520714    320.86989      2052.9865      3375         
       100  -56.464338      0.39994939    -56.064389      0.029520714    343.79368      1573.8293      3375         
       110  -56.509986      0.37063316    -56.139353      0.029520714    318.59366     -2310.2362      3375         
       120  -56.451133      0.32228161    -56.128852      0.029520714    277.031       -2464.9102      3375         
       130  -56.596809      0.40695186    -56.189857      0.029520714    349.81296      1511.6835      3375         
       140  -56.519675      0.33952755    -56.180148      0.029520714    291.85549      2906.8865      3375         
       150  -56.591863      0.39310675    -56.198756      0.029520714    337.9118      -657.50397      3375         
       160  -56.49933       0.26901415    -56.230315      0.029520714    231.24267     -2395.4442      3375         
       170  -56.571748      0.31430802    -56.25744       0.029520714    270.17696      778.56785      3375         
       180  -56.629508      0.36731905    -56.262189      0.029520714    315.74487      1508.9009      3375         
       190  -56.550033      0.26762079    -56.282412      0.029520714    230.04495     -1337.7976      3375         
       200  -56.536731      0.24163054    -56.2951        0.029520714    207.70391     -880.84648      3375         
       210  -56.612081      0.29475568    -56.317325      0.029520714    253.36991      1633.8367      3375         
       220  -56.543575      0.25715379    -56.286421      0.029520714    221.04759      760.85188      3375         
       230  -56.54677       0.23482254    -56.311948      0.029520714    201.8518      -2050.7446      3375         
       240  -56.627799      0.31135722    -56.316442      0.029520714    267.64047     -846.05631      3375         
       250  -56.581942      0.25798232    -56.32396       0.029520714    221.75978      2280.0095      3375         
       260  -56.644624      0.34494255    -56.299682      0.029520714    296.51019      1469.8055      3375         
       270  -56.546601      0.23672246    -56.309878      0.029520714    203.48496     -2338.9863      3375         
       280  -56.565556      0.25712828    -56.308427      0.029520714    221.02566     -2288.0465      3375         
       290  -56.669072      0.33787329    -56.331199      0.029520714    290.43351      1875.4189      3375         
       300  -56.594626      0.31113347    -56.283493      0.029520714    267.44814      2273.9477      3375         
       310  -56.496085      0.20257199    -56.293513      0.029520714    174.12946     -793.97518      3375         
       320  -56.702472      0.40695417    -56.295518      0.029520714    349.81494     -1153.4223      3375         
       330  -56.516817      0.22169005    -56.295126      0.029520714    190.56321      719.57729      3375         
       340  -56.559828      0.28077433    -56.279054      0.029520714    241.35164     -193.50217      3375         
       350  -56.62086       0.34177045    -56.279089      0.029520714    293.78347     -1982.2254      3375         
       360  -56.570831      0.28470909    -56.286122      0.029520714    244.73393     -27.704439      3375         
       370  -56.482161      0.20847447    -56.273686      0.029520714    179.20319      3239.4985      3375         
       380  -56.648826      0.40824125    -56.240585      0.029520714    350.9213       1141.2756      3375         
       390  -56.508628      0.25322779    -56.2554        0.029520714    217.67283     -3062.6226      3375         
       400  -56.575563      0.3289387     -56.246624      0.029520714    282.75339     -1624.1872      3375         
       410  -56.497624      0.23863335    -56.25899       0.029520714    205.12755      2004.1895      3375         
       420  -56.618449      0.41560622    -56.202842      0.029520714    357.25218      1323.8442      3375         
       430  -56.535939      0.31724321    -56.218696      0.029520714    272.70003     -1493.661       3375         
       440  -56.527191      0.31734368    -56.209847      0.029520714    272.7864      -857.54019      3375         
       450  -56.459626      0.25079533    -56.20883       0.029520714    215.5819       1818.3318      3375         
       460  -56.635798      0.45317365    -56.182624      0.029520714    389.54488      379.5425       3375         
       470  -56.364227      0.18558684    -56.17864       0.029520714    159.52914     -1930.3191      3375         
       480  -56.616837      0.43984554    -56.176991      0.029520714    378.08813     -321.12849      3375         
       490  -56.563474      0.40616669    -56.157308      0.029520714    349.13803      2131.7862      3375         
       500  -56.51627       0.37481952    -56.14145       0.029520714    322.19222     -284.5017       3375         
       510  -56.444351      0.30816935    -56.136181      0.029520714    264.90021     -2412.2736      3375         
       520  -56.655752      0.50066822    -56.155084      0.029520714    430.37088      637.57788      3375         
       530  -56.381224      0.25944368    -56.12178       0.029520714    223.01596      3072.3447      3375         
       540  -56.62501       0.54275121    -56.082259      0.029520714    466.54512      339.4631       3375         
       550  -56.387221      0.27276408    -56.114457      0.029520714    234.46608     -3451.4283      3375         
       560  -56.479786      0.38694364    -56.092842      0.029520714    332.61403     -1298.8466      3375         
       570  -56.485039      0.37849397    -56.106545      0.029520714    325.35076      2606.2397      3375         
       580  -56.500545      0.42536674    -56.075178      0.029520714    365.64225      743.03816      3375         
       590  -56.347691      0.2667156     -56.080975      0.029520714    229.26686     -1316.4427      3375         
       600  -56.618097      0.53675886    -56.081338      0.029520714    461.39414      415.35757      3375         
       610  -56.279954      0.2168025     -56.063152      0.029520714    186.3619       1354.8325      3375         
       620  -56.486113      0.42091082    -56.065202      0.029520714    361.81198     -1297.8106      3375         
       630  -56.490262      0.43318378    -56.057078      0.029520714    372.36173     -2061.6912      3375         
       640  -56.496618      0.41680727    -56.079811      0.029520714    358.2846       891.94345      3375         
       650  -56.373556      0.33683729    -56.036719      0.029520714    289.54296      2961.4815      3375         
       660  -56.621994      0.60111353    -56.020881      0.029520714    516.71296     -402.73087      3375         
       670  -56.377356      0.34487213    -56.032484      0.029520714    296.44966     -3253.2077      3375         
       680  -56.594995      0.55359846    -56.041397      0.029520714    475.86934      501.18553      3375         
       690  -56.406992      0.38235712    -56.024635      0.029520714    328.67149      2928.023       3375         
       700  -56.458512      0.44036563    -56.018147      0.029520714    378.53519     -396.3755       3375         
       710  -56.410591      0.38213544    -56.028456      0.029520714    328.48094     -2400.7265      3375         
       720  -56.5279        0.48787838    -56.040022      0.029520714    419.37683     -100.96232      3375         
       730  -56.354128      0.31577776    -56.03835       0.029520714    271.44034      1600.799       3375         
       740  -56.546362      0.50829787    -56.038064      0.029520714    436.92928     -58.028989      3375         
       750  -56.347541      0.2934176     -56.054124      0.029520714    252.21971     -774.68687      3375         
       760  -56.591259      0.51075886    -56.080501      0.029520714    439.04472      840.11815      3375         
       770  -56.389947      0.32612041    -56.063826      0.029520714    280.33081      1529.2918      3375         
       780  -56.407676      0.31339408    -56.094282      0.029520714    269.39135     -1994.3583      3375         
       790  -56.504443      0.4082318     -56.096211      0.029520714    350.91318     -2918.4298      3375         
       800  -56.626592      0.47267006    -56.153922      0.029520714    406.30386      1892.245       3375         
       810  -56.288449      0.17289994    -56.115549      0.029520714    148.62357      3502.3289      3375         
       820  -56.611713      0.46647114    -56.145242      0.029520714    400.97531     -737.81733      3375         
       830  -56.560574      0.38730496    -56.173269      0.029520714    332.92462     -2615.3181      3375         
       840  -56.488283      0.29398075    -56.194302      0.029520714    252.70379     -147.98936      3375         
       850  -56.545214      0.33422493    -56.210989      0.029520714    287.2974       1117.5393      3375         
       860  -56.608159      0.39227152    -56.215887      0.029520714    337.19384     -223.93144      3375         
       870  -56.461163      0.22348273    -56.23768       0.029520714    192.10419     -419.22578      3375         
       880  -56.619716      0.35539716    -56.264319      0.029520714    305.4969       1236.2496      3375         
       890  -56.574088      0.32294116    -56.251146      0.029520714    277.59795      1018.0993      3375         
       900  -56.565638      0.28739693    -56.278241      0.029520714    247.04438     -1844.1453      3375         
       910  -56.555357      0.26413886    -56.291218      0.029520714    227.0519      -1750.4564      3375         
       920  -56.628433      0.32033437    -56.308099      0.029520714    275.35717      1812.5119      3375         
       930  -56.626252      0.33563068    -56.290621      0.029520714    288.50577      2133.2481      3375         
       940  -56.506414      0.19435912    -56.312055      0.029520714    167.06973     -1879.9425      3375         
       950  -56.510066      0.19829363    -56.311772      0.029520714    170.45181     -1943.8322      3375         
       960  -56.714668      0.36997425    -56.344693      0.029520714    318.02726      1477.9336      3375         
       970  -56.564762      0.25669989    -56.308062      0.029520714    220.65742      1517.2556      3375         
       980  -56.512841      0.20034707    -56.312493      0.029520714    172.21693     -633.54797      3375         
       990  -56.658364      0.33524096    -56.323123      0.029520714    288.17077     -1305.647       3375         
      1000  -56.594204      0.26754068    -56.326664      0.029520714    229.97609      620.7714       3375         
      1010  -56.582065      0.26819898    -56.313866      0.029520714    230.54196      977.16643      3375         
      1020  -56.602434      0.28706502    -56.315369      0.029520714    246.75907     -1224.1013      3375         
      1030  -56.615844      0.29927838    -56.316565      0.029520714    257.25759     -761.77654      3375         
      1040  -56.605557      0.29894725    -56.30661       0.029520714    256.97295      2103.73        3375         
      1050  -56.576724      0.29568617    -56.281038      0.029520714    254.16975      781.68956      3375         
      1060  -56.513519      0.22177507    -56.291744      0.029520714    190.63629     -2780.6818      3375         
      1070  -56.657366      0.38726275    -56.270103      0.029520714    332.88834     -1035.598       3375         
      1080  -56.562603      0.27064286    -56.29196       0.029520714    232.64269      2577.8564      3375         
      1090  -56.510518      0.30602349    -56.204495      0.029520714    263.05564      1498.3593      3375         
      1100  -56.547148      0.32645862    -56.220689      0.029520714    280.62153     -1769.5904      3375         
      1110  -56.497028      0.29598283    -56.201045      0.029520714    254.42476     -1798.017       3375         
      1120  -56.437302      0.25596763    -56.181335      0.029520714    220.02797      1148.1057      3375         
      1130  -56.593721      0.44344882    -56.150272      0.029520714    381.18548      1491.7449      3375         
      1140  -56.400275      0.2843866     -56.115888      0.029520714    244.45672     -1062.7551      3375         
      1150  -56.551851      0.455003      -56.096848      0.029520714    391.11738     -734.48268      3375         
      1160  -56.456543      0.38522384    -56.071319      0.029520714    331.1357       2010.2449      3375         
      1170  -56.511877      0.48438194    -56.027495      0.029520714    416.37131     -84.443619      3375         
      1180  -56.411721      0.38516983    -56.026551      0.029520714    331.08928     -2937.9789      3375         
      1190  -56.459164      0.44459456    -56.01457       0.029520714    382.17035     -197.13785      3375         
      1200  -56.396791      0.38971419    -56.007077      0.029520714    334.99557      2923.244       3375         
      1210  -56.58956       0.62375889    -55.965801      0.029520714    536.17875      1066.6181      3375         
      1220  -56.24683       0.26321567    -55.983615      0.029520714    226.25834     -2739.0346      3375         
      1230  -56.51198       0.5234646     -55.988516      0.029520714    449.96649     -1309.6477      3375         
      1240  -56.449465      0.44966841    -55.999797      0.029520714    386.5318       2835.7078      3375         
      1250  -56.416941      0.45145131    -55.965489      0.029520714    388.06437      1210.5539      3375         
      1260  -56.315125      0.32025765    -55.994868      0.029520714    275.29122     -2596.8863      3375         
      1270  -56.597583      0.5977709     -55.999812      0.029520714    513.83966     -1196.8059      3375         
      1280  -56.267787      0.24697563    -56.020811      0.029520714    212.29851      2207.6         3375         
      1290  -56.528241      0.53486245    -55.993378      0.029520714    459.764        441.00307      3375         
      1300  -56.394992      0.37084198    -56.02415       0.029520714    318.77316     -1849.2273      3375         
      1310  -56.455536      0.41063672    -56.044899      0.029520714    352.98043      573.45232      3375         
      1320  -56.402694      0.36707939    -56.035615      0.029520714    315.53886      2460.0904      3375         
      1330  -56.639532      0.58491395    -56.054618      0.029520714    502.78791     -915.15038      3375         
      1340  -56.297926      0.22893129    -56.068995      0.029520714    196.78772     -3542.9036      3375         
      1350  -56.567145      0.46950499    -56.09764       0.029520714    403.58319     -425.05539      3375         
      1360  -56.42811       0.3086178     -56.119492      0.029520714    265.28569      3619.2339      3375         
      1370  -56.525647      0.4608028     -56.064844      0.029520714    396.10284      1807.3096      3375         
      1380  -56.433478      0.31054278    -56.122935      0.029520714    266.94039     -2264.3186      3375         
      1390  -56.589205      0.45736588    -56.131839      0.029520714    393.1485      -1058.5981      3375         
      1400  -56.435762      0.28984097    -56.145921      0.029520714    249.14526      1518.1931      3375         
      1410  -56.618709      0.46873567    -56.149973      0.029520714    402.92188     -709.29257      3375         
      1420  -56.407241      0.24194087    -56.1653        0.029520714    207.97067     -2179.8736      3375         
      1430  -56.644906      0.45427691    -56.190629      0.029520714    390.49323      945.93769      3375         
      1440  -56.43837       0.25507402    -56.183296      0.029520714    219.25984      2874.4033      3375         
      1450  -56.542873      0.35829534    -56.184578      0.029520714    307.98815     -550.76736      3375         
      1460  -56.462131      0.26282222    -56.199309      0.029520714    225.92013     -2160.7649      3375         
      1470  -56.632069      0.4043706     -56.227698      0.029520714    347.59412      341.57232      3375         
      1480  -56.39002       0.18964022    -56.200379      0.029520714    163.0134       1831.1124      3375         
      1490  -56.572476      0.36641054    -56.206065      0.029520714    314.96392     -568.09046      3375         
      1500  -56.496435      0.28019065    -56.216244      0.029520714    240.84991     -2492.8058      3375         
      1510  -56.62967       0.39806776    -56.231602      0.029520714    342.17624      398.18199      3375         
      1520  -56.453187      0.22440038    -56.228787      0.029520714    192.89299      3050.9038      3375         
      1530  -56.548054      0.34859362    -56.19946       0.029520714    299.64862      252.7978       3375         
      1540  -56.57245       0.35044554    -56.222004      0.029520714    301.24052     -2309.7364      3375         
      1550  -56.591802      0.36531298    -56.226489      0.029520714    314.02046     -155.37843      3375         
      1560  -56.428946      0.21425274    -56.214694      0.029520714    184.17014      1192.0225      3375         
      1570  -56.717797      0.4958655     -56.221932      0.029520714    426.24249     -1492.3129      3375         
      1580  -56.540535      0.31114056    -56.229394      0.029520714    267.45423     -1009.3018      3375         
      1590  -56.50102       0.25925976    -56.241761      0.029520714    222.85786      2302.607       3375         
      1600  -56.510444      0.31370376    -56.19674       0.029520714    269.65754      2219.2305      3375         
      1610  -56.60694       0.39620852    -56.210731      0.029520714    340.57806     -1446.9495      3375         
      1620  -56.40785       0.19088066    -56.216969      0.029520714    164.07967     -2697.6189      3375         
      1630  -56.572682      0.34904782    -56.223635      0.029520714    300.03905      219.75286      3375         
      1640  -56.562261      0.34813957    -56.214122      0.029520714    299.25833      2282.2665      3375         
      1650  -56.509591      0.31297864    -56.196612      0.029520714    269.03423     -312.21826      3375         
      1660  -56.478586      0.27326859    -56.205317      0.029520714    234.89976     -2032.2046      3375         
      1670  -56.601522      0.38266907    -56.218853      0.029520714    328.93964      1122.1035      3375         
      1680  -56.51287       0.32922396    -56.183646      0.029520714    282.9986       1953.0192      3375         
      1690  -56.512453      0.31770131    -56.194752      0.029520714    273.09381     -1431.291       3375         
      1700  -56.496846      0.30082724    -56.196019      0.029520714    258.58898     -1421.3914      3375         
      1710  -56.627355      0.42780395    -56.199551      0.029520714    367.73727      1272.9581      3375         
      1720  -56.47583       0.2930212     -56.182809      0.029520714    251.87897      953.42369      3375         
      1730  -56.480833      0.29757461    -56.183259      0.029520714    255.79304     -1714.897       3375         
      1740  -56.612717      0.42752508    -56.185192      0.029520714    367.49755     -1140.9402      3375         
      1750  -56.565999      0.35260464    -56.213394      0.029520714    303.09647      2223.1358      3375         
      1760  -56.457866      0.30507245    -56.152794      0.029520714    262.23813      2392.7615      3375         
      1770  -56.569392      0.3818849     -56.187507      0.029520714    328.26558     -1903.8977      3375         
      1780  -56.481319      0.30525429    -56.176065      0.029520714    262.39444     -3077.7949      3375         
      1790  -56.518309      0.32654781    -56.191761      0.029520714    280.6982       993.00603      3375         
      1800  -56.50883       0.33418675    -56.174643      0.029520714    287.26458      1948.6231      3375         
      1810  -56.487271      0.31815353    -56.169117      0.029520714    273.48254     -691.71377      3375         
      1820  -56.585246      0.41119773    -56.174049      0.029520714    353.46267     -506.80027      3375         
      1830  -56.505375      0.32250583    -56.182869      0.029520714    277.22374      1141.2683      3375         
      1840  -56.461017      0.30037091    -56.160646      0.029520714    258.19672      259.64998      3375         
      1850  -56.540494      0.37299655    -56.167497      0.029520714    320.62521     -1774.9525      3375         
      1860  -56.504852      0.33117237    -56.173679      0.029520714    284.67344     -1017.6946      3375         
      1870  -56.502692      0.32712618    -56.175566      0.029520714    281.19536      2340.6822      3375         
      1880  -56.582593      0.44183332    -56.14076       0.029520714    379.79681      1799.313       3375         
      1890  -56.434034      0.27279315    -56.161241      0.029520714    234.49108     -2593.8205      3375         
      1900  -56.587815      0.42750475    -56.16031       0.029520714    367.48007     -1770.7122      3375         
      1910  -56.571143      0.39809519    -56.173048      0.029520714    342.19982      2249.6753      3375         
      1920  -56.494864      0.35164097    -56.143223      0.029520714    302.26811      1392.1824      3375         
      1930  -56.529011      0.37883896    -56.150172      0.029520714    325.6473      -1716.6027      3375         
      1940  -56.544579      0.39068701    -56.153892      0.029520714    335.8318      -1184.5978      3375         
      1950  -56.404983      0.23091631    -56.174067      0.029520714    198.49404      1485.3035      3375         
      1960  -56.610357      0.46610498    -56.144252      0.029520714    400.66056      707.93981      3375         
      1970  -56.460216      0.30089365    -56.159322      0.029520714    258.64607     -1146.7553      3375         
      1980  -56.443956      0.27377436    -56.170182      0.029520714    235.33451     -600.93277      3375         
      1990  -56.518827      0.36499138    -56.153836      0.029520714    313.74402      1704.9207      3375         
      2000  -56.596807      0.44359824    -56.153209      0.029520714    381.31393      552.19412      3375         
      2010  -56.396655      0.23514444    -56.161511      0.029520714    202.12851     -2666.862       3375         
      2020  -56.579498      0.41411831    -56.165379      0.029520714    355.97319     -535.47994      3375         
      2030  -56.490386      0.3041326     -56.186254      0.029520714    261.43025      2960.903       3375         
      2040  -56.574053      0.4463565     -56.127697      0.029520714    383.68491      707.47433      3375         
      2050  -56.485131      0.31876945    -56.166361      0.029520714    274.01197     -2690.5455      3375         
      2060  -56.549183      0.3866078     -56.162576      0.029520714    332.32534     -1094.24        3375         
      2070  -56.549169      0.37410598    -56.175063      0.029520714    321.57887      2075.7667      3375         
      2080  -56.65261       0.49300875    -56.159601      0.029520714    423.78685      1110.8347      3375         
      2090  -56.382631      0.21050131    -56.17213       0.029520714    180.94545     -1066.0384      3375         
      2100  -56.592591      0.41207169    -56.180519      0.029520714    354.21392     -551.95917      3375         
      2110  -56.517482      0.3357135     -56.181769      0.029520714    288.57696      1067.5424      3375         
      2120  -56.503974      0.32325281    -56.180721      0.029520714    277.86584     -298.61734      3375         
      2130  -56.429477      0.23953283    -56.189944      0.029520714    205.90073     -2207.833       3375         
      2140  -56.63743       0.4279229     -56.209507      0.029520714    367.83952      425.5653       3375         
      2150  -56.477236      0.27633222    -56.200904      0.029520714    237.53324      3277.1824      3375         
      2160  -56.552129      0.37361815    -56.178511      0.029520714    321.15953     -47.789262      3375         
      2170  -56.421049      0.21792752    -56.203122      0.029520714    187.32896     -3154.9804      3375         
      2180  -56.658493      0.4462826     -56.212211      0.029520714    383.62139     -302.31131      3375         
      2190  -56.488541      0.27887135    -56.20967       0.029520714    239.71585      1958.3655      3375         
      2200  -56.524026      0.32072551    -56.2033        0.029520714    275.69339      460.67071      3375         
      2210  -56.576533      0.36562466    -56.210908      0.029520714    314.28839     -1139.8049      3375         
      2220  -56.583406      0.36220613    -56.2212        0.029520714    311.34984     -333.62839      3375         
      2230  -56.40189       0.18182482    -56.220065      0.029520714    156.29534      1456.4911      3375         
      2240  -56.666397      0.45944839    -56.206949      0.029520714    394.93861     -74.133827      3375         
      2250  -56.549606      0.3306956     -56.218911      0.029520714    284.26361     -1895.3843      3375         
      2260  -56.505293      0.27290748    -56.232385      0.029520714    234.58935      576.84391      3375         
      2270  -56.53615       0.32388249    -56.212267      0.029520714    278.40711      2106.6372      3375         
      2280  -56.635119      0.41697988    -56.218139      0.029520714    358.43297     -1250.3279      3375         
      2290  -56.384135      0.16527686    -56.218858      0.029520714    142.07083     -2453.2275      3375         
      2300  -56.671736      0.43272113    -56.239014      0.029520714    371.96404      1153.3527      3375         
      2310  -56.513359      0.29916458    -56.214195      0.029520714    257.15977      2910.3505      3375         
      2320  -56.598254      0.40263414    -56.19562       0.029520714    346.10147     -96.670759      3375         
      2330  -56.492687      0.28063558    -56.212052      0.029520714    241.23237     -2582.521       3375         
      2340  -56.522925      0.30618034    -56.216744      0.029520714    263.19046     -642.23672      3375         
      2350  -56.519709      0.31328623    -56.206423      0.029520714    269.29864      1421.2285      3375         
      2360  -56.575121      0.38306885    -56.192053      0.029520714    329.28329      138.2288       3375         
      2370  -56.410088      0.21666178    -56.193426      0.029520714    186.24094     -705.60311      3375         
      2380  -56.623752      0.43549585    -56.188256      0.029520714    374.34917      1380.89        3375         
      2390  -56.462381      0.29158301    -56.170798      0.029520714    250.6427       1295.2039      3375         
      2400  -56.546533      0.3756423     -56.170891      0.029520714    322.89948     -2497.7066      3375         
      2410  -56.514643      0.36145257    -56.153191      0.029520714    310.70209     -2372.2509      3375         
      2420  -56.560593      0.37902572    -56.181567      0.029520714    325.80784      1695.5563      3375         
      2430  -56.486951      0.37954461    -56.107407      0.029520714    326.25387      2851.5615      3375         
      2440  -56.554083      0.44117044    -56.112912      0.029520714    379.227       -982.27504      3375         
      2450  -56.402781      0.29570444    -56.107076      0.029520714    254.18546     -2094.0296      3375         
      2460  -56.599615      0.48336926    -56.116245      0.029520714    415.50082      1431.082       3375         
      2470  -56.456373      0.38322515    -56.073147      0.029520714    329.41764      1647.1143      3375         
      2480  -56.350464      0.28406764    -56.066396      0.029520714    244.18254     -1303.1023      3375         
      2490  -56.595671      0.53260435    -56.063066      0.029520714    457.82295     -2167.1543      3375         
      2500  -56.429004      0.37653932    -56.052464      0.029520714    323.67055      761.6403       3375         
      2510  -56.355687      0.32130008    -56.034387      0.029520714    276.18729      1610.9687      3375         
      2520  -56.507845      0.48276337    -56.025081      0.029520714    414.98        -967.42243      3375         
      2530  -56.375304      0.34684784    -56.028456      0.029520714    298.14796     -278.29778      3375         
      2540  -56.43668       0.42691831    -56.009761      0.029520714    366.97598      2198.8188      3375         
      2550  -56.471747      0.50305599    -55.968691      0.029520714    432.42339      294.56746      3375         
      2560  -56.376301      0.3889112     -55.987389      0.029520714    334.30533     -3584.2039      3375         
      2570  -56.464754      0.49622735    -55.968527      0.029520714    426.55354     -1689.8096      3375         
      2580  -56.549633      0.55537079    -55.994263      0.029520714    477.39282      2901.763       3375         
      2590  -56.392361      0.44055606    -55.951805      0.029520714    378.69889      3121.9998      3375         
      2600  -56.418689      0.47606723    -55.942622      0.029520714    409.22404     -854.14966      3375         
      2610  -56.420779      0.45589137    -55.964887      0.029520714    391.88101     -2795.9294      3375         
      2620  -56.40864       0.42430598    -55.984334      0.029520714    364.73044      387.04459      3375         
      2630  -56.471445      0.49863116    -55.972813      0.029520714    428.61984      937.11877      3375         
      2640  -56.30785       0.30935069    -55.998499      0.029520714    265.91567     -1471.9246      3375         
      2650  -56.57912       0.54633411    -56.032786      0.029520714    469.62496     -63.48192       3375         
      2660  -56.41478       0.37834306    -56.036437      0.029520714    325.22103      2431.9267      3375         
      2670  -56.378511      0.3260399     -56.052472      0.029520714    280.2616       105.47704      3375         
      2680  -56.485852      0.39611876    -56.089733      0.029520714    340.5009      -2148.7537      3375         
      2690  -56.540976      0.41885742    -56.122118      0.029520714    360.04689     -534.22618      3375         
      2700  -56.373269      0.21122179    -56.162047      0.029520714    181.56476      1752.3632      3375         
      2710  -56.533142      0.38486823    -56.148274      0.029520714    330.83002      1226.8765      3375         
      2720  -56.571453      0.36912643    -56.202327      0.029520714    317.29848     -2111.3419      3375         
      2730  -56.502325      0.28271945    -56.219606      0.029520714    243.02365     -1745.5772      3375         
      2740  -56.574578      0.3187695     -56.255809      0.029520714    274.01202      2163.8893      3375         
      2750  -56.639257      0.40273379    -56.236523      0.029520714    346.18713      1869.4664      3375         
      2760  -56.473583      0.20265837    -56.270924      0.029520714    174.20371     -1433.0804      3375         
      2770  -56.65494       0.37106409    -56.283876      0.029520714    318.96408     -1115.1754      3375         
      2780  -56.537486      0.24049762    -56.296989      0.029520714    206.73006      956.18099      3375         
      2790  -56.648187      0.34777622    -56.300411      0.029520714    298.94599     -418.72771      3375         
      2800  -56.544538      0.23673871    -56.307799      0.029520714    203.49893     -1342.3978      3375         
      2810  -56.630874      0.3075626     -56.323311      0.029520714    264.37864      820.67804      3375         
      2820  -56.632452      0.31283649    -56.319616      0.029520714    268.91205      2211.8131      3375         
      2830  -56.583271      0.28064901    -56.302622      0.029520714    241.24391      279.05974      3375         
      2840  -56.486322      0.16569024    -56.320632      0.029520714    142.42617     -2384.5516      3375         
      2850  -56.65802       0.33144987    -56.32657       0.029520714    284.91197     -1262.9717      3375         
      2860  -56.562804      0.23820349    -56.3246        0.029520714    204.75804      1795.7434      3375         
      2870  -56.507388      0.2067208     -56.300667      0.029520714    177.69575      1338.192       3375         
      2880  -56.566204      0.25969017    -56.306514      0.029520714    223.22785     -1574.2744      3375         
      2890  -56.643643      0.3394091     -56.304234      0.029520714    291.75367     -561.82691      3375         
      2900  -56.471684      0.16865332    -56.303031      0.029520714    144.97321      1620.5035      3375         
      2910  -56.696929      0.41813666    -56.278792      0.029520714    359.42733     -332.40587      3375         
      2920  -56.496263      0.21979643    -56.276467      0.029520714    188.93547     -1446.8279      3375         
      2930  -56.61854       0.33915639    -56.279383      0.029520714    291.53644      497.47593      3375         
      2940  -56.561051      0.31647066    -56.24458       0.029520714    272.03595      1661.2926      3375         
      2950  -56.566657      0.32788765    -56.238769      0.029520714    281.84992     -360.73378      3375         
      2960  -56.519299      0.29315606    -56.226143      0.029520714    251.99488     -1941.0539      3375         
      2970  -56.644728      0.41644012    -56.228288      0.029520714    357.96899      25.317495      3375         
      2980  -56.47436       0.27299861    -56.201362      0.029520714    234.66768      2344.6904      3375         
      2990  -56.542594      0.3725833     -56.17001       0.029520714    320.26999      492.05552      3375         
      3000  -56.487901      0.31543207    -56.172468      0.029520714    271.14319     -2705.0581      3375         
      3010  -56.479188      0.32418351    -56.155004      0.029520714    278.66586     -605.04872      3375         
      3020  -56.455584      0.30191623    -56.153668      0.029520714    259.52507      2198.4348      3375         
      3030  -56.559567      0.44883507    -56.110732      0.029520714    385.81547      124.29862      3375         
      3040  -56.341248      0.23305313    -56.108195      0.029520714    200.33083     -1066.506       3375         
      3050  -56.548966      0.4472068     -56.10176       0.029520714    384.41582      18.588744      3375         
      3060  -56.419872      0.35286095    -56.067011      0.029520714    303.31679      943.59386      3375         
      3070  -56.546286      0.48837701    -56.057909      0.029520714    419.80544     -497.94639      3375         
      3080  -56.413426      0.3670289     -56.046398      0.029520714    315.49546     -1473.0513      3375         
      3090  -56.461575      0.40643391    -56.055141      0.029520714    349.36773      962.2867       3375         
      3100  -56.459448      0.43634969    -56.023098      0.029520714    375.08312      2715.2925      3375         
      3110  -56.476378      0.4642881     -56.01209       0.029520714    399.09878     -993.0107       3375         
      3120  -56.348851      0.32634581    -56.022505      0.029520714    280.52456     -3504.2621      3375         
      3130  -56.495299      0.46696357    -56.028336      0.029520714    401.3986       303.0724       3375         
      3140  -56.431574      0.40654736    -56.025027      0.029520714    349.46525      2762.2029      3375         
      3150  -56.482731      0.47564197    -56.007089      0.029520714    408.85849      664.60418      3375         
      3160  -56.40574       0.38090759    -56.024832      0.029520714    327.42548     -1343.5019      3375         
      3170  -56.495671      0.45845689    -56.037214      0.029520714    394.08631     -681.88169      3375         
      3180  -56.335273      0.29982629    -56.035447      0.029520714    257.72857      751.29021      3375         
      3190  -56.557546      0.52065979    -56.036886      0.029520714    447.55549     -375.6439       3375         
      3200  -56.310953      0.26236216    -56.04859       0.029520714    225.52467     -1184.2706      3375         
      3210  -56.534794      0.47180286    -56.062991      0.029520714    405.55842      992.81404      3375         
      3220  -56.509884      0.46119525    -56.048688      0.029520714    396.44019      2395.6707      3375         
      3230  -56.413853      0.35589732    -56.057956      0.029520714    305.92683     -1185.5672      3375         
      3240  -56.430554      0.3646866     -56.065867      0.029520714    313.48203     -2746.1216      3375         
      3250  -56.503912      0.41224632    -56.091665      0.029520714    354.36404      1002.817       3375         
      3260  -56.386577      0.31931312    -56.067264      0.029520714    274.47932      2215.9439      3375         
      3270  -56.524541      0.44781775    -56.076723      0.029520714    384.94099     -545.32349      3375         
      3280  -56.407875      0.320923      -56.086952      0.029520714    275.86315     -1935.1199      3375         
      3290  -56.53636       0.43154547    -56.104815      0.029520714    370.95345     -71.338052      3375         
      3300  -56.496395      0.39026267    -56.106133      0.029520714    335.46705      1589.5012      3375         
      3310  -56.529496      0.43275236    -56.096744      0.029520714    371.99088      442.1392       3375         
      3320  -56.470953      0.35527966    -56.115673      0.029520714    305.39589     -730.15932      3375         
      3330  -56.601823      0.47162037    -56.130203      0.029520714    405.40155      247.71645      3375         
      3340  -56.438615      0.30184506    -56.13677       0.029520714    259.46389      563.86925      3375         
      3350  -56.525123      0.37491057    -56.150213      0.029520714    322.27049     -1635.0946      3375         
      3360  -56.557541      0.39228415    -56.165257      0.029520714    337.2047      -1462.964       3375         
      3370  -56.453531      0.25885197    -56.194679      0.029520714    222.50733      2086.2795      3375         
      3380  -56.473746      0.31880082    -56.154945      0.029520714    274.03894      2460.9879      3375         
      3390  -56.54903       0.36057222    -56.188458      0.029520714    309.94534     -1411.7915      3375         
      3400  -56.48297       0.29142774    -56.191542      0.029520714    250.50923     -2418.9552      3375         
      3410  -56.566863      0.34556349    -56.2213        0.029520714    297.04394      457.62523      3375         
      3420  -56.489827      0.27867873    -56.211148      0.029520714    239.55027      1322.0413      3375         
      3430  -56.583673      0.37134647    -56.212327      0.029520714    319.20681     -84.948204      3375         
      3440  -56.536566      0.31054807    -56.226017      0.029520714    266.94493     -624.89028      3375         
      3450  -56.550669      0.31355651    -56.237113      0.029520714    269.53097      637.9533       3375         
      3460  -56.594212      0.35420697    -56.240005      0.029520714    304.47382      876.59991      3375         
      3470  -56.646277      0.39677073    -56.249507      0.029520714    341.06133     -1185.1848      3375         
      3480  -56.531858      0.26891488    -56.262943      0.029520714    231.15734     -1070.6704      3375         
      3490  -56.573413      0.29473259    -56.27868       0.029520714    253.35006      1287.2324      3375         
      3500  -56.624082      0.36689747    -56.257184      0.029520714    315.38248      833.352        3375         
      3510  -56.492326      0.20999138    -56.282335      0.029520714    180.50712     -1800.7831      3375         
      3520  -56.600562      0.31409168    -56.286471      0.029520714    269.991       -817.94868      3375         
      3530  -56.604389      0.28936492    -56.315024      0.029520714    248.73605      2106.9862      3375         
      3540  -56.512023      0.23869229    -56.273331      0.029520714    205.17822      1487.6906      3375         
      3550  -56.580117      0.28422779    -56.295889      0.029520714    244.32021     -1376.8798      3375         
      3560  -56.561949      0.25896347    -56.302986      0.029520714    222.60318     -1876.099       3375         
      3570  -56.587753      0.27977558    -56.307977      0.029520714    240.49312      410.46821      3375         
      3580  -56.623185      0.31421066    -56.308974      0.029520714    270.09327      1241.1039      3375         
      3590  -56.51483       0.20986983    -56.30496       0.029520714    180.40263     -263.95808      3375         
      3600  -56.627257      0.31654209    -56.310715      0.029520714    272.09735     -102.23107      3375         
      3610  -56.598523      0.28849179    -56.310031      0.029520714    247.98551      1103.7992      3375         
      3620  -56.538342      0.24391657    -56.294425      0.029520714    209.66897     -411.91684      3375         
      3630  -56.576394      0.27609053    -56.300304      0.029520714    237.32548     -2287.2724      3375         
      3640  -56.703295      0.40247294    -56.300822      0.029520714    345.96291     -259.32697      3375         
      3650  -56.497239      0.20829891    -56.28894       0.029520714    179.05228      2527.0386      3375         
      3660  -56.636319      0.3795317     -56.256787      0.029520714    326.24278      1159.271       3375         
      3670  -56.55089       0.29616403    -56.254726      0.029520714    254.58052     -1735.1775      3375         
      3680  -56.538992      0.29430836    -56.244684      0.029520714    252.9854      -1193.1852      3375         
      3690  -56.582113      0.34984994    -56.232263      0.029520714    300.72855      1076.9866      3375         
      3700  -56.509334      0.31206097    -56.197273      0.029520714    268.24541      888.05639      3375         
      3710  -56.505196      0.32104923    -56.184147      0.029520714    275.97166     -945.14467      3375         
      3720  -56.584537      0.42417345    -56.160364      0.029520714    364.61652     -640.43315      3375         
      3730  -56.432437      0.29091657    -56.141521      0.029520714    250.06983      1110.735       3375         
      3740  -56.462707      0.34969705    -56.11301       0.029520714    300.59712      5.8997434      3375         
      3750  -56.437883      0.34405365    -56.093829      0.029520714    295.7461      -1437.7767      3375         
      3760  -56.529533      0.44916665    -56.080366      0.029520714    386.10049      439.93984      3375         
      3770  -56.39118       0.34421195    -56.046968      0.029520714    295.88217      1985.0519      3375         
      3780  -56.527128      0.50257301    -56.024555      0.029520714    432.00822     -581.18634      3375         
      3790  -56.320119      0.30719854    -56.012921      0.029520714    264.0657      -2471.1658      3375         
      3800  -56.561986      0.5455799     -56.016406      0.029520714    468.97664     -55.790142      3375         
      3810  -56.465851      0.46150652    -56.004345      0.029520714    396.70775      2753.3243      3375         
      3820  -56.445827      0.50293844    -55.942889      0.029520714    432.32235      1309.1289      3375         
      3830  -56.483248      0.50244712    -55.980801      0.029520714    431.90001     -2202.255       3375         
      3840  -56.366836      0.39568367    -55.971152      0.029520714    340.12689     -1417.7855      3375         
      3850  -56.468786      0.49015511    -55.978631      0.029520714    421.33389      1075.8196      3375         
      3860  -56.501915      0.51738067    -55.984535      0.029520714    444.73678      39.435032      3375         
      3870  -56.237559      0.24746533    -55.990094      0.029520714    212.71945     -882.9276       3375         
      3880  -56.532661      0.53063002    -56.002031      0.029520714    456.12583      1110.2094      3375         
      3890  -56.374542      0.37423782    -56.000304      0.029520714    321.6922       1762.3697      3375         
      3900  -56.472129      0.45286891    -56.01926       0.029520714    389.28293     -1309.3156      3375         
      3910  -56.342668      0.31464607    -56.028022      0.029520714    270.46755     -2074.0193      3375         
      3920  -56.524995      0.45319213    -56.071803      0.029520714    389.56076      368.26589      3375         
      3930  -56.414608      0.35834043    -56.056267      0.029520714    308.02692      2160.7681      3375         
      3940  -56.536035      0.47136936    -56.064666      0.029520714    405.18578      124.43398      3375         
      3950  -56.448194      0.34656348    -56.101631      0.029520714    297.90353     -2116.0582      3375         
      3960  -56.514827      0.38961004    -56.125217      0.029520714    334.90605      335.0567       3375         
      3970  -56.634495      0.48647606    -56.148018      0.029520714    418.1714       1918.9218      3375         
      3980  -56.461821      0.29967881    -56.162142      0.029520714    257.6018      -425.57783      3375         
      3990  -56.497635      0.31066708    -56.186968      0.029520714    267.04724     -1870.3032      3375         
      4000  -56.633531      0.41515864    -56.218372      0.029520714    356.86744      109.84702      3375         
      4010  -56.48308       0.26434826    -56.218732      0.029520714    227.2319       1147.922       3375         
      4020  -56.581226      0.33853042    -56.242696      0.029520714    290.99837     -476.20146      3375         
      4030  -56.487506      0.22361267    -56.263893      0.029520714    192.21588     -230.92456      3375         
      4040  -56.634185      0.35937324    -56.274811      0.029520714    308.91471      1288.9736      3375         
      4050  -56.526045      0.26031937    -56.265725      0.029520714    223.7687       851.44657      3375         
      4060  -56.58021       0.29570854    -56.284502      0.029520714    254.18898     -1640.136       3375         
      4070  -56.617747      0.32617009    -56.291577      0.029520714    280.37352     -2058.2582      3375         
      4080  -56.571635      0.26393754    -56.307698      0.029520714    226.87886      1041.5539      3375         
      4090  -56.535169      0.23665832    -56.298511      0.029520714    203.42982      2345.5795      3375         
      4100  -56.605039      0.31308731    -56.291952      0.029520714    269.12765     -300.20859      3375         
      4110  -56.604546      0.30354181    -56.301004      0.029520714    260.92241     -1716.7056      3375         
      4120  -56.489139      0.17913979    -56.309999      0.029520714    153.9873       394.11615      3375         
      4130  -56.614323      0.32547758    -56.288845      0.029520714    279.77824      560.24608      3375         
      4140  -56.618405      0.32427522    -56.29413       0.029520714    278.7447      -995.47672      3375         
      4150  -56.502549      0.20625219    -56.296296      0.029520714    177.29293     -29.05095       3375         
      4160  -56.629673      0.33921905    -56.290454      0.029520714    291.59031      1445.9676      3375         
      4170  -56.584899      0.30756669    -56.277332      0.029520714    264.38216      548.93142      3375         
      4180  -56.604662      0.32985289    -56.274809      0.029520714    283.53922     -1433.3828      3375         
      4190  -56.560686      0.28650104    -56.274185      0.029520714    246.27427     -1138.1567      3375         
      4200  -56.586083      0.30514504    -56.280938      0.029520714    262.30053      1242.5429      3375         
      4210  -56.602701      0.35225666    -56.250444      0.029520714    302.79734      1656.8272      3375         
      4220  -56.582121      0.32290423    -56.259217      0.029520714    277.5662      -1470.7148      3375         
      4230  -56.54607       0.29267669    -56.253394      0.029520714    251.58283     -1782.7617      3375         
      4240  -56.529781      0.26865971    -56.261121      0.029520714    230.938        1333.5147      3375         
      4250  -56.620121      0.38555235    -56.234569      0.029520714    331.41809      1186.89        3375         
      4260  -56.454659      0.2297564     -56.224903      0.029520714    197.49699     -763.12721      3375         
      4270  -56.523023      0.29472905    -56.228294      0.029520714    253.34702     -668.0571       3375         
      4280  -56.534904      0.30620811    -56.228696      0.029520714    263.21434      904.33447      3375         
      4290  -56.529409      0.32927379    -56.200136      0.029520714    283.04143      419.76795      3375         
      4300  -56.540929      0.34439304    -56.196536      0.029520714    296.03783     -1516.0658      3375         
      4310  -56.531875      0.33123336    -56.200642      0.029520714    284.72587     -428.51703      3375         
      4320  -56.599135      0.42501498    -56.17412       0.029520714    365.33989      2100.0332      3375         
      4330  -56.516976      0.36189442    -56.155082      0.029520714    311.0819       855.72804      3375         
      4340  -56.427932      0.26863955    -56.159293      0.029520714    230.92066     -2468.691       3375         
      4350  -56.616892      0.46869493    -56.148197      0.029520714    402.88687     -1254.092       3375         
      4360  -56.495061      0.33966603    -56.155395      0.029520714    291.97453      1927.8563      3375         
      4370  -56.46473       0.34712595    -56.117604      0.029520714    298.38703      1278.6007      3375         
      4380  -56.471971      0.35823478    -56.113736      0.029520714    307.9361      -1281.2141      3375         
      4390  -56.586461      0.4716633     -56.114798      0.029520714    405.43846     -953.46124      3375         
      4400  -56.331331      0.21545939    -56.115872      0.029520714    185.20738      1437.0602      3375         
      4410  -56.567205      0.47771366    -56.089491      0.029520714    410.6393       328.08809      3375         
      4420  -56.473847      0.38117053    -56.092676      0.029520714    327.65151     -1375.0179      3375         
      4430  -56.445996      0.35130829    -56.094687      0.029520714    301.98214     -101.63459      3375         
      4440  -56.523134      0.45472006    -56.068414      0.029520714    390.87416      1848.9808      3375         
      4450  -56.447579      0.38502167    -56.062557      0.029520714    330.96192      96.408388      3375         
      4460  -56.418777      0.35549638    -56.063281      0.029520714    305.58219     -2652.2959      3375         
      4470  -56.625833      0.57210579    -56.053727      0.029520714    491.77811     -399.66335      3375         
      4480  -56.40221       0.33585902    -56.066351      0.029520714    288.70205      2516.1485      3375         
      4490  -56.451442      0.44192615    -56.009516      0.029520714    379.87661      671.73542      3375         
      4500  -56.410726      0.38367148    -56.027054      0.029520714    329.8013      -2204.196       3375         
      4510  -56.55737       0.53024257    -56.027127      0.029520714    455.79278     -759.74727      3375         
      4520  -56.300456      0.28568371    -56.014773      0.029520714    245.57171      2173.6784      3375         
      4530  -56.517164      0.52315747    -55.994007      0.029520714    449.70248      842.48376      3375         
      4540  -56.387656      0.39358836    -55.994068      0.029520714    338.32579     -1334.0695      3375         
      4550  -56.522093      0.53035836    -55.991735      0.029520714    455.89231     -846.52869      3375         
      4560  -56.416238      0.42629819    -55.98994       0.029520714    366.44292      994.80324      3375         
      4570  -56.418773      0.44072124    -55.978051      0.029520714    378.84087      66.184369      3375         
      4580  -56.410405      0.42193352    -55.988471      0.029520714    362.69108     -1747.9498      3375         
      4590  -56.399524      0.39122538    -56.008298      0.029520714    336.29458      699.74686      3375         
      4600  -56.396174      0.4050239     -55.99115       0.029520714    348.1557       2781.5963      3375         
      4610  -56.474499      0.47404693    -56.000452      0.029520714    407.48741     -692.09782      3375         
      4620  -56.270559      0.25500371    -56.015556      0.029520714    219.1994      -3187.8056      3375         
      4630  -56.543422      0.50664234    -56.036779      0.029520714    435.50619     -523.36708      3375         
      4640  -56.431325      0.3753914     -56.055934      0.029520714    322.6838       2417.1722      3375         
      4650  -56.495744      0.45405567    -56.041688      0.029520714    390.30306      1471.0838      3375         
      4660  -56.40513       0.33404068    -56.071089      0.029520714    287.13902     -882.94455      3375         
      4670  -56.572141      0.47328017    -56.09886       0.029520714    406.82831     -865.0041       3375         
      4680  -56.492916      0.37031363    -56.122602      0.029520714    318.31899      761.82505      3375         
      4690  -56.531192      0.39754391    -56.133648      0.029520714    341.72595     -493.98488      3375         
      4700  -56.477931      0.31505504    -56.162876      0.029520714    270.8191      -1616.5565      3375         
      4710  -56.61663       0.42479518    -56.191835      0.029520714    365.15094      670.00637      3375         
      4720  -56.55344       0.35525427    -56.198185      0.029520714    305.37407      2098.1317      3375         
      4730  -56.506559      0.28452251    -56.222037      0.029520714    244.57355     -464.59228      3375         
      4740  -56.555868      0.31601429    -56.239854      0.029520714    271.64366     -1871.5848      3375         
      4750  -56.616211      0.34711896    -56.269092      0.029520714    298.38102      342.60183      3375         
      4760  -56.435264      0.16997744    -56.265287      0.029520714    146.11141      1758.8352      3375         
      4770  -56.611637      0.34993241    -56.261705      0.029520714    300.79943     -213.96807      3375         
      4780  -56.489138      0.20620021    -56.282937      0.029520714    177.24825     -1903.1482      3375         
      4790  -56.609078      0.30880205    -56.300276      0.029520714    265.44407      37.480322      3375         
      4800  -56.625973      0.32860712    -56.297366      0.029520714    282.46837      1816.7666      3375         
      4810  -56.598696      0.30268119    -56.296015      0.029520714    260.18262      315.45949      3375         
      4820  -56.552619      0.24953282    -56.303086      0.029520714    214.49666     -1012.6693      3375         
      4830  -56.647044      0.33724526    -56.309799      0.029520714    289.89366     -24.276057      3375         
      4840  -56.542879      0.23069162    -56.312187      0.029520714    198.3009       271.70703      3375         
      4850  -56.586208      0.27288607    -56.313322      0.029520714    234.57094     -1278.8796      3375         
      4860  -56.630781      0.31344757    -56.317333      0.029520714    269.43732     -889.42987      3375         
      4870  -56.577901      0.23482669    -56.343074      0.029520714    201.85537      1751.3117      3375         
      4880  -56.562331      0.2806565     -56.281675      0.029520714    241.25035      2089.7714      3375         
      4890  -56.649303      0.35120031    -56.298102      0.029520714    301.88932     -846.86868      3375         
      4900  -56.479643      0.18123943    -56.298403      0.029520714    155.79214     -1953.7655      3375         
      4910  -56.651755      0.35248744    -56.299267      0.029520714    302.99572      95.746282      3375         
      4920  -56.583941      0.2972167     -56.286724      0.029520714    255.48538      1168.0754      3375         
      4930  -56.549674      0.28229984    -56.267374      0.029520714    242.66296     -250.58376      3375         
      4940  -56.578621      0.32115287    -56.257468      0.029520714    276.06075     -1010.2918      3375         
      4950  -56.558742      0.30999312    -56.248749      0.029520714    266.46791      606.21847      3375         
      4960  -56.530163      0.3061431     -56.22402       0.029520714    263.15845      1112.9123      3375         
      4970  -56.570462      0.37273948    -56.197722      0.029520714    320.40423     -816.69999      3375         
      4980  -56.550045      0.3665277     -56.183517      0.029520714    315.06463     -794.97483      3375         
      4990  -56.437633      0.27282968    -56.164803      0.029520714    234.52247      1085.8742      3375         
      5000  -56.495622      0.38749585    -56.108126      0.029520714    333.08871      258.16413      3375         
      5010  -56.450153      0.3548416     -56.095312      0.029520714    305.01934     -1744.2928      3375         
      5020  -56.418839      0.33809013    -56.080749      0.029520714    290.6199      -545.16987      3375         
      5030  -56.452677      0.39681602    -56.055861      0.029520714    341.10026      2142.607       3375         
      5040  -56.457968      0.45201154    -56.005957      0.029520714    388.54594      2027.8865      3375         
      5050  -56.592639      0.60266204    -55.989977      0.029520714    518.04405     -1257.4117      3375         
      5060  -56.322747      0.34614833    -55.976599      0.029520714    297.54667     -2466.4588      3375         
      5070  -56.458919      0.48509258    -55.973826      0.029520714    416.98217     -107.99949      3375         
      5080  -56.536824      0.57465513    -55.962169      0.029520714    493.96951      840.92278      3375         
      5090  -56.289931      0.32819218    -55.961739      0.029520714    282.11169     -91.765906      3375         
      5100  -56.513973      0.54215942    -55.971814      0.029520714    466.03643      478.77629      3375         
      5110  -56.401875      0.43858074    -55.963294      0.029520714    377.00092      1483.3623      3375         
      5120  -56.395463      0.43262544    -55.962837      0.029520714    371.88179     -264.83737      3375         
      5130  -56.318621      0.34430583    -55.974315      0.029520714    295.96287     -2033.0988      3375         
      5140  -56.502696      0.5177321     -55.984964      0.029520714    445.03887     -882.24022      3375         
      5150  -56.394361      0.38712334    -56.007238      0.029520714    332.7685       1935.1475      3375         
      5160  -56.379789      0.40363032    -55.976159      0.029520714    346.95779      1456.2846      3375         
      5170  -56.519659      0.50991053    -56.009748      0.029520714    438.31551     -1721.5714      3375         
      5180  -56.361312      0.34217472    -56.019138      0.029520714    294.13098     -1246.3498      3375         
      5190  -56.506778      0.46749493    -56.039283      0.029520714    401.85535      1201.4807      3375         
      5200  -56.406271      0.37658233    -56.029688      0.029520714    323.70753      1298.09        3375         
      5210  -56.511856      0.46013919    -56.051717      0.029520714    395.53241     -808.20969      3375         
      5220  -56.619848      0.54751771    -56.072331      0.029520714    470.64237     -1129.6735      3375         
      5230  -56.355678      0.26713427    -56.088543      0.029520714    229.62674      612.63238      3375         
      5240  -56.574806      0.47024376    -56.104562      0.029520714    404.21823      69.599044      3375         
      5250  -56.448061      0.33079667    -56.117264      0.029520714    284.35049     -893.49622      3375         
      5260  -56.483714      0.34707456    -56.13664       0.029520714    298.34285      388.84667      3375         
      5270  -56.447584      0.30297266    -56.144612      0.029520714    260.43317      2006.1336      3375         
      5280  -56.542293      0.4076661     -56.134627      0.029520714    350.42691      342.27767      3375         
      5290  -56.519005      0.35546952    -56.163535      0.029520714    305.5591      -2342.654       3375         
      5300  -56.508302      0.33550931    -56.172793      0.029520714    288.40144     -1052.0677      3375         
      5310  -56.53979       0.35092265    -56.188867      0.029520714    301.65064      1501.1912      3375         
      5320  -56.440034      0.26425167    -56.175782      0.029520714    227.14888      1152.7077      3375         
      5330  -56.638077      0.4510438     -56.187033      0.029520714    387.71407     -1175.7679      3375         
      5340  -56.501642      0.30202831    -56.199613      0.029520714    259.62141     -840.76268      3375         
      5350  -56.458072      0.24849495    -56.209577      0.029520714    213.60451      989.72663      3375         
      5360  -56.702056      0.4951298     -56.206926      0.029520714    425.61009      385.85678      3375         
      5370  -56.424563      0.21413888    -56.210424      0.029520714    184.07228     -522.05824      3375         
      5380  -56.560577      0.33796511    -56.222612      0.029520714    290.51243      73.761508      3375         
      5390  -56.52662       0.31624438    -56.210376      0.029520714    271.84144      903.70482      3375         
      5400  -56.615422      0.39677384    -56.218648      0.029520714    341.064       -605.20626      3375         
      5410  -56.505054      0.2848273     -56.220227      0.029520714    244.83555     -1625.0666      3375         
      5420  -56.583741      0.34745294    -56.236288      0.029520714    298.6681       412.47644      3375         
      5430  -56.579362      0.35036307    -56.228999      0.029520714    301.16963      2302.5217      3375         
      5440  -56.518333      0.30801596    -56.210317      0.029520714    264.76836      350.01135      3375         
      5450  -56.51974       0.29153543    -56.228205      0.029520714    250.6018      -2366.1373      3375         
      5460  -56.558786      0.33327262    -56.225513      0.029520714    286.4788      -699.78645      3375         
      5470  -56.649085      0.41633964    -56.232745      0.029520714    357.88262      1286.5649      3375         
      5480  -56.466269      0.24845356    -56.217816      0.029520714    213.56894      435.61806      3375         
      5490  -56.455066      0.22957858    -56.225487      0.029520714    197.34413     -563.01455      3375         
      5500  -56.63553       0.40680875    -56.228721      0.029520714    349.68994     -25.19637       3375         
      5510  -56.402817      0.19368252    -56.209134      0.029520714    166.48814      978.29689      3375         
      5520  -56.601623      0.39306506    -56.208558      0.029520714    337.87596     -325.21889      3375         
      5530  -56.507037      0.30075062    -56.206287      0.029520714    258.52312     -1123.0329      3375         
      5540  -56.581713      0.377946      -56.203767      0.029520714    324.87972      501.2726       3375         
      5550  -56.558298      0.36851408    -56.189783      0.029520714    316.77211      1305.233       3375         
      5560  -56.51883       0.34231435    -56.176516      0.029520714    294.25101     -849.67761      3375         
      5570  -56.487004      0.31597798    -56.171026      0.029520714    271.61245     -2022.2931      3375         
      5580  -56.604369      0.43624985    -56.168119      0.029520714    374.9973       539.50182      3375         
      5590  -56.519136      0.38431357    -56.134823      0.029520714    330.35324      2553.1066      3375         
      5600  -56.454621      0.35254071    -56.102081      0.029520714    303.04151      592.37781      3375         
      5610  -56.497653      0.41781965    -56.079833      0.029520714    359.15483     -2085.7022      3375         
      5620  -56.458192      0.41228893    -56.045903      0.029520714    354.40067     -970.94314      3375         
      5630  -56.274829      0.25810692    -56.016722      0.029520714    221.86689      814.22666      3375         
      5640  -56.563522      0.61269791    -55.950824      0.029520714    526.67081     -132.85259      3375         
      5650  -56.249001      0.34353657    -55.905464      0.029520714    295.30162     -216.50013      3375         
      5660  -56.41772       0.5378007     -55.87992       0.029520714    462.2897       1526.3923      3375         
      5670  -56.329876      0.51006029    -55.819815      0.029520714    438.44423      1655.2969      3375         
      5680  -56.383529      0.58131627    -55.802213      0.029520714    499.69538     -1798.0581      3375         
      5690  -56.192814      0.41920865    -55.773605      0.029520714    360.34881     -2999.7696      3375         
      5700  -56.38145       0.59660549    -55.784845      0.029520714    512.83788      399.82598      3375         
      5710  -56.498555      0.74670169    -55.751853      0.029520714    641.85952      2474.9569      3375         
      5720  -56.232521      0.47639547    -55.756125      0.029520714    409.5062       468.27811      3375         
      5730  -56.293894      0.52052133    -55.773373      0.029520714    447.43648     -1669.7573      3375         
      5740  -56.396809      0.59415065    -55.802659      0.029520714    510.72772      408.47379      3375         
      5750  -56.279469      0.47151282    -55.807956      0.029520714    405.3091       1672.5119      3375         
      5760  -56.370034      0.54961465    -55.82042       0.029520714    472.44489     -710.99197      3375         
      5770  -56.205046      0.35134044    -55.853706      0.029520714    302.00977     -2088.1655      3375         
      5780  -56.512188      0.61967491    -55.892513      0.029520714    532.66819      298.19332      3375         
      5790  -56.359328      0.44267758    -55.91665       0.029520714    380.52253      1974.0376      3375         
      5800  -56.526223      0.5737026     -55.952521      0.029520714    493.15072     -778.22617      3375         
      5810  -56.290717      0.29911529    -55.991601      0.029520714    257.1174      -976.97717      3375         
      5820  -56.503981      0.48352893    -56.020452      0.029520714    415.63807      1404.6456      3375         
      5830  -56.555335      0.51870376    -56.036632      0.029520714    445.8741       1132.3444      3375         
      5840  -56.343579      0.27281096    -56.070768      0.029520714    234.50638     -1527.1812      3375         
      5850  -56.494901      0.41021621    -56.084684      0.029520714    352.61896     -2399.9008      3375         
      5860  -56.534915      0.4010289     -56.133886      0.029520714    344.72162      653.78686      3375         
      5870  -56.446966      0.32506779    -56.121899      0.029520714    279.42598      2497.2306      3375         
      5880  -56.448657      0.32761755    -56.121039      0.029520714    281.61774      427.15522      3375         
      5890  -56.485429      0.3387737     -56.146655      0.029520714    291.20749     -1340.9513      3375         
      5900  -56.616172      0.45306825    -56.163104      0.029520714    389.45428      242.67408      3375         
      5910  -56.405823      0.23788985    -56.167933      0.029520714    204.48844      648.37813      3375         
      5920  -56.648265      0.46665281    -56.181612      0.029520714    401.13147     -1780.5627      3375         
      5930  -56.479631      0.28474761    -56.194884      0.029520714    244.76705     -940.77092      3375         
      5940  -56.555237      0.34217742    -56.21306       0.029520714    294.1333       1660.6722      3375         
      5950  -56.585853      0.39179468    -56.194058      0.029520714    336.78395      1591.082       3375         
      5960  -56.562256      0.3528686     -56.209388      0.029520714    303.32337     -907.79959      3375         
      5970  -56.581209      0.36072299    -56.220486      0.029520714    310.07495     -1490.7337      3375         
      5980  -56.484888      0.24010999    -56.244778      0.029520714    206.39686      840.11988      3375         
      5990  -56.565576      0.34232445    -56.223252      0.029520714    294.25969      1174.8279      3375         
      6000  -56.538431      0.30161059    -56.23682       0.029520714    259.26234     -1034.1405      3375         
      6010  -56.500504      0.25786816    -56.242636      0.029520714    221.66165     -1463.6371      3375         
      6020  -56.558329      0.30855485    -56.249774      0.029520714    265.23158      960.37065      3375         
      6030  -56.555222      0.30966909    -56.245553      0.029520714    266.18937      1528.2168      3375         
      6040  -56.574406      0.33360352    -56.240802      0.029520714    286.76323     -442.57847      3375         
      6050  -56.505587      0.25796749    -56.247619      0.029520714    221.74704     -638.139        3375         
      6060  -56.640396      0.38651234    -56.253884      0.029520714    332.24329      463.72257      3375         
      6070  -56.504557      0.26704704    -56.23751       0.029520714    229.55176     -170.31761      3375         
      6080  -56.54362       0.29888815    -56.244732      0.029520714    256.92215     -1823.1871      3375         
      6090  -56.694144      0.44007093    -56.254073      0.029520714    378.28188     -296.23197      3375         
      6100  -56.465605      0.219265      -56.24634       0.029520714    188.47865      2493.0537      3375         
      6110  -56.599058      0.37578086    -56.223277      0.029520714    323.01859      1636.4823      3375         
      6120  -56.51329       0.28697429    -56.226316      0.029520714    246.68108     -1434.1075      3375         
      6130  -56.547461      0.32061926    -56.226841      0.029520714    275.60206     -2117.2931      3375         
      6140  -56.529972      0.30018724    -56.229785      0.029520714    258.03884      552.94248      3375         
      6150  -56.536504      0.3359354     -56.200569      0.029520714    288.76771      1116.5498      3375         
      6160  -56.524997      0.33253691    -56.19246       0.029520714    285.84639     -743.31034      3375         
      6170  -56.552901      0.36458277    -56.188318      0.029520714    313.39278     -170.71087      3375         
      6180  -56.493592      0.32863728    -56.164955      0.029520714    282.49429      1333.2807      3375         
      6190  -56.436414      0.30041719    -56.135996      0.029520714    258.2365      -11.795695      3375         
      6200  -56.563762      0.44355879    -56.120203      0.029520714    381.28001     -1562.342       3375         
      6210  -56.536624      0.44094628    -56.095677      0.029520714    379.03432     -145.53752      3375         
      6220  -56.370139      0.31085416    -56.059285      0.029520714    267.20805      1718.8867      3375         
      6230  -56.531795      0.50654113    -56.025254      0.029520714    435.41919      393.2381       3375         
      6240  -56.352362      0.34210546    -56.010256      0.029520714    294.07144     -2370.881       3375         
      6250  -56.536603      0.55139947    -55.985204      0.029520714    473.9791      -1027.5873      3375         
      6260  -56.318184      0.33363161    -55.984552      0.029520714    286.78738      2780.4756      3375         
      6270  -56.407817      0.51544465    -55.892372      0.029520714    443.07259      1746.7992      3375         
      6280  -56.445043      0.52750032    -55.917542      0.029520714    453.43557     -1967.7842      3375         
      6290  -56.363895      0.46587523    -55.898019      0.029520714    400.46307     -1212.0734      3375         
      6300  -56.439756      0.54742708    -55.892329      0.029520714    470.56446      862.04215      3375         
      6310  -56.418599      0.52821681    -55.890383      0.029520714    454.05146     -89.013888      3375         
      6320  -56.361174      0.47764658    -55.883528      0.029520714    410.58164     -1029.3162      3375         
      6330  -56.455875      0.5622854     -55.89359       0.029520714    483.33657      386.38249      3375         
      6340  -56.425215      0.51960575    -55.905609      0.029520714    446.64945      1650.2873      3375         
      6350  -56.299617      0.3999844     -55.899632      0.029520714    343.82377      148.96791      3375         
      6360  -56.340513      0.41542074    -55.925092      0.029520714    357.09275     -1998.568       3375         
[...]
     48420  -56.549573      0.39232728    -56.157246      0.029520714    337.24177     -224.5629       3375         
     48430  -56.505869      0.33856293    -56.167306      0.029520714    291.02631      649.47205      3375         
     48440  -56.505728      0.32652184    -56.179206      0.029520714    280.67588      180.94429      3375         
     48450  -56.570688      0.38725273    -56.183435      0.029520714    332.87972      137.9821       3375         
     48460  -56.512269      0.3163354     -56.195934      0.029520714    271.91968      56.576173      3375         
     48470  -56.4628        0.25597872    -56.206821      0.029520714    220.03751     -422.78947      3375         
     48480  -56.537247      0.33614875    -56.201098      0.029520714    288.9511      -154.59953      3375         
     48490  -56.650583      0.43701768    -56.213565      0.029520714    375.65732     -393.51793      3375         
     48500  -56.548598      0.32124985    -56.227348      0.029520714    276.14411     -230.5441       3375         
     48510  -56.474356      0.2478014     -56.226554      0.029520714    213.00834      1204.2129      3375         
     48520  -56.592116      0.35871156    -56.233404      0.029520714    308.34593      549.88228      3375         
     48530  -56.509093      0.268346      -56.240747      0.029520714    230.66833     -1014.6393      3375         
     48540  -56.436711      0.19764736    -56.239064      0.029520714    169.89628     -382.45963      3375         
     48550  -56.590824      0.34460968    -56.246214      0.029520714    296.22406      365.11752      3375         
     48560  -56.6583        0.4143843     -56.243916      0.029520714    356.20183     -57.7816        3375         
     48570  -56.522662      0.27561582    -56.247046      0.029520714    236.91742      286.52609      3375         
     48580  -56.519451      0.26436407    -56.255087      0.029520714    227.24549      449.31851      3375         
     48590  -56.621061      0.36633503    -56.254726      0.029520714    314.89902     -183.66681      3375         
     48600  -56.542039      0.28896409    -56.253075      0.029520714    248.3915      -358.79391      3375         
     48610  -56.524835      0.26439006    -56.260445      0.029520714    227.26783     -743.41589      3375         
     48620  -56.576067      0.31380732    -56.26226       0.029520714    269.74656     -455.15501      3375         
     48630  -56.530224      0.26989531    -56.260329      0.029520714    232.00011      1103.1411      3375         
     48640  -56.514065      0.25033859    -56.263727      0.029520714    215.18929      829.33444      3375         
     48650  -56.559385      0.30323039    -56.256155      0.029520714    260.65471     -464.02541      3375         
     48660  -56.622449      0.36580706    -56.256642      0.029520714    314.44518     -1.9625824      3375         
     48670  -56.550987      0.29774802    -56.253239      0.029520714    255.9421       67.794865      3375         
     48680  -56.600533      0.35874592    -56.241787      0.029520714    308.37547     -819.40498      3375         
     48690  -56.530156      0.28829309    -56.241863      0.029520714    247.81471     -166.20551      3375         
     48700  -56.483983      0.24363566    -56.240347      0.029520714    209.4275       539.24235      3375         
     48710  -56.559883      0.33565789    -56.224225      0.029520714    288.52916      386.80952      3375         
     48720  -56.491315      0.27442341    -56.216891      0.029520714    235.89243      207.38774      3375         
     48730  -56.540437      0.3315917     -56.208846      0.029520714    285.03389     -494.83796      3375         
     48740  -56.611691      0.42534918    -56.186342      0.029520714    365.62716     -294.02774      3375         
     48750  -56.567456      0.39503231    -56.172423      0.029520714    339.567        425.85174      3375         
     48760  -56.427113      0.26679104    -56.160322      0.029520714    229.3317      -580.99635      3375         
     48770  -56.501054      0.35122245    -56.149832      0.029520714    301.90835     -670.71364      3375         
     48780  -56.497013      0.35451822    -56.142494      0.029520714    304.74137      1004.8693      3375         
     48790  -56.368612      0.24790886    -56.120703      0.029520714    213.10071      987.23663      3375         
     48800  -56.559888      0.47028349    -56.089604      0.029520714    404.25238      19.350788      3375         
     48810  -56.546144      0.46326808    -56.082876      0.029520714    398.22198     -156.36457      3375         
     48820  -56.408875      0.34219331    -56.066682      0.029520714    294.14697     -756.0709       3375         
     48830  -56.49046       0.43372244    -56.056738      0.029520714    372.82476     -772.60252      3375         
     48840  -56.481551      0.43489674    -56.046654      0.029520714    373.83418     -10.808167      3375         
     48850  -56.455518      0.41628466    -56.039233      0.029520714    357.83536      38.983795      3375         
     48860  -56.506248      0.48736271    -56.018885      0.029520714    418.93356      753.94556      3375         
     48870  -56.430431      0.41600796    -56.014423      0.029520714    357.59752      985.69625      3375         
     48880  -56.273832      0.26675085    -56.007081      0.029520714    229.29715     -333.39396      3375         
     48890  -56.485757      0.47801597    -56.007741      0.029520714    410.89916     -763.88598      3375         
     48900  -56.494941      0.48450973    -56.010431      0.029520714    416.48116     -132.3077       3375         
     48910  -56.376747      0.37220489    -56.004542      0.029520714    319.94471     -126.47679      3375         
     48920  -56.614677      0.61610588    -55.998571      0.029520714    529.60028     -93.908089      3375         
     48930  -56.463812      0.45013427    -56.013678      0.029520714    386.93225      245.38703      3375         
     48940  -56.225766      0.20898393    -56.016782      0.029520714    179.64111      697.97688      3375         
     48950  -56.50727       0.48385348    -56.023417      0.029520714    415.91704      661.58745      3375         
     48960  -56.553323      0.5142962     -56.039026      0.029520714    442.0854      -279.31879      3375         
     48970  -56.318607      0.26961742    -56.04899       0.029520714    231.76124     -1022.5278      3375         
     48980  -56.499357      0.4335762     -56.065781      0.029520714    372.69905     -922.79336      3375         
     48990  -56.703155      0.60917097    -56.093984      0.029520714    523.63908     -268.72489      3375         
     49000  -56.395124      0.2825227     -56.112601      0.029520714    242.85453      564.04828      3375         
     49010  -56.377994      0.24954594    -56.128448      0.029520714    214.50793      1151.7223      3375         
     49020  -56.588168      0.4321488     -56.156019      0.029520714    371.47207      957.47378      3375         
     49030  -56.487323      0.32620022    -56.161122      0.029520714    280.39942     -18.727333      3375         
     49040  -56.422981      0.23253278    -56.190449      0.029520714    199.88355     -1128.6134      3375         
     49050  -56.596258      0.38524823    -56.21101       0.029520714    331.15667     -1194.456       3375         
     49060  -56.632059      0.40218663    -56.229872      0.029520714    345.7168      -24.21484       3375         
     49070  -56.49265       0.24254175    -56.250109      0.029520714    208.48719      926.47369      3375         
     49080  -56.567984      0.30077255    -56.267211      0.029520714    258.54197      696.58735      3375         
     49090  -56.647941      0.37449218    -56.273449      0.029520714    321.91084      2.3191652      3375         
     49100  -56.595915      0.30259124    -56.293324      0.029520714    260.1053      -417.44711      3375         
     49110  -56.553775      0.24433319    -56.309441      0.029520714    210.02709     -533.3793       3375         
     49120  -56.556439      0.25263702    -56.303802      0.029520714    217.165       -95.326174      3375         
     49130  -56.586877      0.27132636    -56.315551      0.029520714    233.23023      182.6507       3375         
     49140  -56.568883      0.244126      -56.324757      0.029520714    209.84899      203.2082       3375         
     49150  -56.587409      0.27112059    -56.316288      0.029520714    233.05335      352.77267      3375         
     49160  -56.654598      0.33021417    -56.324384      0.029520714    283.84978      81.994129      3375         
     49170  -56.625843      0.29903164    -56.326812      0.029520714    257.0455      -236.02409      3375         
     49180  -56.558678      0.24337707    -56.315301      0.029520714    209.20522      114.60508      3375         
     49190  -56.571313      0.250244      -56.321069      0.029520714    215.10798      77.109578      3375         
     49200  -56.586415      0.26775016    -56.318665      0.029520714    230.15615     -468.91907      3375         
     49210  -56.540662      0.22704042    -56.313621      0.029520714    195.16235     -443.55639      3375         
     49220  -56.622827      0.30810965    -56.314717      0.029520714    264.84888     -68.850098      3375         
     49230  -56.635519      0.32534908    -56.31017       0.029520714    279.66778      531.76492      3375         
     49240  -56.565045      0.28282038    -56.282224      0.029520714    243.11041      781.00099      3375         
     49250  -56.546844      0.26089069    -56.285953      0.029520714    224.2598      -170.05593      3375         
     49260  -56.556572      0.27688454    -56.279687      0.029520714    238.008       -758.69521      3375         
     49270  -56.554871      0.28337515    -56.271496      0.029520714    243.58728      107.11899      3375         
     49280  -56.518643      0.24979119    -56.268851      0.029520714    214.71875      188.35611      3375         
     49290  -56.549883      0.29845402    -56.251429      0.029520714    256.54898     -99.58481       3375         
     49300  -56.570321      0.33167347    -56.238647      0.029520714    285.10418      447.7756       3375         
     49310  -56.533705      0.30190833    -56.231797      0.029520714    259.51827      166.37144      3375         
     49320  -56.553742      0.33422477    -56.219517      0.029520714    287.29726     -483.0725       3375         
     49330  -56.544381      0.33049386    -56.213887      0.029520714    284.0902      -309.95372      3375         
     49340  -56.561202      0.34916336    -56.212038      0.029520714    300.13836     -224.10326      3375         
     49350  -56.576337      0.37820788    -56.198129      0.029520714    325.10484      309.29011      3375         
     49360  -56.532794      0.34626263    -56.186531      0.029520714    297.64492      537.47807      3375         
     49370  -56.46287       0.27483727    -56.188033      0.029520714    236.24819     -640.61197      3375         
     49380  -56.489676      0.30671088    -56.182966      0.029520714    263.64652     -206.58478      3375         
     49390  -56.526635      0.34611488    -56.180521      0.029520714    297.51792      992.26798      3375         
     49400  -56.539878      0.36197136    -56.177907      0.029520714    311.14803      21.264958      3375         
     49410  -56.567396      0.3999575     -56.167439      0.029520714    343.80065     -530.84096      3375         
     49420  -56.514766      0.34568367    -56.169082      0.029520714    297.14725      169.49043      3375         
     49430  -56.502271      0.33278136    -56.16949       0.029520714    286.05652     -143.67332      3375         
     49440  -56.516911      0.35099537    -56.165915      0.029520714    301.71315     -142.22586      3375         
     49450  -56.441647      0.27576169    -56.165885      0.029520714    237.04281      261.15747      3375         
     49460  -56.568257      0.39951118    -56.168746      0.029520714    343.417       -327.4175       3375         
     49470  -56.598849      0.43652849    -56.16232       0.029520714    375.23682      90.107845      3375         
     49480  -56.435145      0.27284077    -56.162305      0.029520714    234.53201      183.23319      3375         
     49490  -56.54022       0.37731234    -56.162908      0.029520714    324.33504     -899.78815      3375         
     49500  -56.661961      0.4965923     -56.165369      0.029520714    426.86725      288.55466      3375         
     49510  -56.354203      0.18938065    -56.164823      0.029520714    162.79028      1625.9095      3375         
     49520  -56.399805      0.2426874     -56.157118      0.029520714    208.61238     -175.90868      3375         
     49530  -56.671009      0.50973504    -56.161274      0.029520714    438.16466     -945.50285      3375         
     49540  -56.452891      0.28914485    -56.163746      0.029520714    248.54688     -272.31566      3375         
     49550  -56.43202       0.26983445    -56.162185      0.029520714    231.94779     -350.47108      3375         
     49560  -56.664195      0.50514989    -56.159045      0.029520714    434.2233       292.29003      3375         
     49570  -56.506406      0.34290937    -56.163496      0.029520714    294.76248      873.34327      3375         
     49580  -56.396385      0.2357859     -56.160599      0.029520714    202.6799       190.14678      3375         
     49590  -56.604459      0.44385925    -56.1606        0.029520714    381.53829     -232.36332      3375         
     49600  -56.617222      0.45084253    -56.166379      0.029520714    387.54107     -732.28333      3375         
     49610  -56.377973      0.20854174    -56.169431      0.029520714    179.26101     -970.1143       3375         
     49620  -56.438528      0.26981351    -56.168715      0.029520714    231.92979      359.51695      3375         
     49630  -56.564341      0.39189607    -56.172445      0.029520714    336.87111      1208.9848      3375         
     49640  -56.51743       0.35546664    -56.161963      0.029520714    305.55662      407.20964      3375         
     49650  -56.513825      0.34850796    -56.165317      0.029520714    299.57499      25.882604      3375         
     49660  -56.567077      0.39423295    -56.172844      0.029520714    338.87987     -37.059319      3375         
     49670  -56.555586      0.38548031    -56.170106      0.029520714    331.35617     -792.59005      3375         
     49680  -56.427202      0.2531305     -56.174071      0.029520714    217.58919     -556.39315      3375         
     49690  -56.501098      0.32103437    -56.180064      0.029520714    275.95889      218.0982       3375         
     49700  -56.563146      0.38642799    -56.176718      0.029520714    332.17078      16.359615      3375         
     49710  -56.502727      0.3218625     -56.180864      0.029520714    276.67074      12.998977      3375         
     49720  -56.52572       0.33144614    -56.194274      0.029520714    284.90877      372.03638      3375         
     49730  -56.540966      0.35494132    -56.186025      0.029520714    305.10506      538.1798       3375         
     49740  -56.576551      0.3930788     -56.183472      0.029520714    337.88777      253.80254      3375         
     49750  -56.543461      0.3478586     -56.195603      0.029520714    299.0168      -631.58663      3375         
     49760  -56.467075      0.2679499     -56.199125      0.029520714    230.32785     -939.80041      3375         
     49770  -56.531213      0.325274      -56.205939      0.029520714    279.60324     -34.922492      3375         
     49780  -56.567091      0.34599197    -56.221099      0.029520714    297.41226      601.7243       3375         
     49790  -56.467086      0.25901894    -56.208067      0.029520714    222.65086      660.09711      3375         
     49800  -56.531559      0.31813179    -56.213428      0.029520714    273.46385      727.19789      3375         
     49810  -56.632572      0.41217755    -56.220395      0.029520714    354.30492      23.213883      3375         
     49820  -56.512756      0.28421865    -56.228537      0.029520714    244.31235     -1294.1635      3375         
     49830  -56.484437      0.25677922    -56.227657      0.029520714    220.72561     -1239.389       3375         
     49840  -56.665072      0.41577157    -56.249301      0.029520714    357.39432      91.173886      3375         
     49850  -56.607146      0.36809666    -56.239049      0.029520714    316.4133       950.38089      3375         
     49860  -56.441259      0.19542581    -56.245833      0.029520714    167.98665      731.82823      3375         
     49870  -56.483339      0.23425791    -56.249081      0.029520714    201.36645      75.74327       3375         
     49880  -56.603181      0.35778608    -56.245395      0.029520714    307.5504       144.19977      3375         
     49890  -56.52093       0.26721689    -56.253713      0.029520714    229.69776      76.668536      3375         
     49900  -56.53417       0.27773954    -56.25643       0.029520714    238.74296     -769.55399      3375         
     49910  -56.653612      0.39751561    -56.256096      0.029520714    341.70162     -718.79967      3375         
     49920  -56.528669      0.26711248    -56.261557      0.029520714    229.60801      307.92222      3375         
     49930  -56.477262      0.22017213    -56.25709       0.029520714    189.25842      326.20567      3375         
     49940  -56.595793      0.34036059    -56.255433      0.029520714    292.57157      45.830888      3375         
     49950  -56.57564       0.316196      -56.259444      0.029520714    271.79986      506.32483      3375         
     49960  -56.506252      0.2547879     -56.251465      0.029520714    219.01389      587.3848       3375         
     49970  -56.629053      0.38462109    -56.244432      0.029520714    330.61758     -464.65059      3375         
     49980  -56.576644      0.33192636    -56.244718      0.029520714    285.32156     -1407.6641      3375         
     49990  -56.506434      0.26393306    -56.242501      0.029520714    226.875       -648.62788      3375         
     50000  -56.598169      0.36606467    -56.232105      0.029520714    314.66661      922.54996      3375         
Loop time of 243.178 on 4 procs for 50000 steps with 10 atoms

Performance: 8.882 ns/day, 2.702 hours/ns, 205.611 timesteps/s, 2.056 katom-step/s
93.3% CPU use with 4 MPI tasks x no OpenMP threads

MPI task timing breakdown:
Section |  min time  |  avg time  |  max time  |%varavg| %total
---------------------------------------------------------------
Pair    | 132.99     | 147.6      | 161.63     | 102.8 | 60.70
Neigh   | 0.00073226 | 0.00074654 | 0.00075782 |   0.0 |  0.00
Comm    | 64.943     | 76.705     | 89.066     | 118.4 | 31.54
Output  | 2.4879     | 2.5676     | 2.7188     |   5.6 |  1.06
Modify  | 11.492     | 14.181     | 16.591     |  60.3 |  5.83
Other   |            | 2.122      |            |       |  0.87

Nlocal:            2.5 ave           4 max           1 min
Histogram: 2 0 0 0 0 0 0 0 0 2
Nghost:           55.5 ave          59 max          53 min
Histogram: 1 0 0 2 0 0 0 0 0 1
Neighs:              0 ave           0 max           0 min
Histogram: 4 0 0 0 0 0 0 0 0 0
FullNghs:         22.5 ave          36 max           9 min
Histogram: 2 0 0 0 0 0 0 0 0 2

Total # of neighbors = 90
Ave neighs/atom = 9
Neighbor list builds = 107
Dangerous builds = 0

write_data	restart.data
System init for write_data ...
Generated 0 of 1 mixed pair_coeff terms from geometric mixing rule
#
Total wall time: 0:04:06
