LAMMPS data file via write_data, version 2 Aug 2023, timestep = 50000, units = metal

10 atoms
2 atom types

0 15 xlo xhi
0 15 ylo yhi
0 15 zlo zhi

Masses

1 12
2 2

Atoms # atomic

6 2 7.453025898860897 5.60495143892775 6.009312839976592 0 0 0
1 1 8.31239802813377 6.198464306196563 6.334245833490712 0 0 0
5 2 9.294307672461967 6.106561392760733 5.855004209411639 0 0 0
2 1 8.12586388583416 7.227617701491096 7.21625688134214 0 0 0
8 2 5.880996537686915 7.306950519499563 7.564527754424993 0 0 0
7 2 8.996305874474805 7.8832403869475725 7.47158408058949 0 0 0
9 2 7.658285880653045 9.29615103368532 8.829715220051504 0 0 0
4 1 6.729402886345842 8.802370249075832 8.67315556783553 0 0 0
10 2 5.809646828981806 9.162743134694695 9.004528855919602 0 0 0
3 1 6.837573750955207 7.748114759060334 7.802062890352579 0 0 0

Velocities

6 19.355735125030826 20.962897414468404 19.572569443256544
1 -2.815917018787843 -3.701830628518369 -1.2349977070532157
5 4.5462401377432995 6.7568543906623395 -3.819169376455372
2 -10.35437229894027 -0.09416176746788214 3.698837981969429
8 1.7792772291232932 14.608903788796157 -10.128299037080915
7 3.159680570839408 -3.461211326097344 -0.36089639650896765
9 7.045310720934253 8.79989889233655 -4.962614797908799
4 0.20459775646056244 -2.59420685974243 -1.0867642560260653
10 12.804819629834121 -1.0793985602687872 -22.350581814466953
3 4.850514325683304 -1.374458177587704 2.29775597763725
