10
 Atoms. Timestep: 0
C 7.26044 7.95503 8.3744
C 8.48357 7.83079 7.55556
C 7.93277 7.01665 6.66647
C 6.54722 7.17332 7.25745
H 6.91169 8.98757 8.57442
H 7.35677 7.4444 9.39645
H 9.43119 8.24759 7.76148
H 8.33858 6.51141 5.78744
H 5.89371 7.89747 6.70373
H 5.84808 6.27689 7.54223
10
 Atoms. Timestep: 20
C 7.17233 7.90186 8.37871
C 8.53428 7.86658 7.57438
C 7.93992 7.0044 6.67193
C 6.57158 7.22133 7.28359
H 6.86355 8.93189 8.56383
H 7.1435 7.40336 9.30011
H 9.54635 8.32949 7.59036
H 8.35389 6.3812 5.90399
H 5.90693 7.8392 6.70489
H 6.00112 6.36982 7.37413
10
 Atoms. Timestep: 40
C 7.18394 7.96408 8.39096
C 8.51907 7.83739 7.59263
C 7.98339 7.04186 6.69699
C 6.56831 7.20006 7.22644
H 6.71719 8.97138 8.64094
H 7.03848 7.26666 9.29361
H 9.51662 8.30754 7.58232
H 8.30909 6.33338 5.92095
H 5.9618 7.90799 6.57809
H 6.05252 6.17271 7.43096
10
 Atoms. Timestep: 60
C 7.14087 7.95937 8.29849
C 8.49667 7.85124 7.65528
C 7.96041 7.02581 6.693
C 6.61395 7.20782 7.23541
H 6.75615 8.88394 8.65889
H 7.18227 7.33554 9.21887
H 9.48027 8.26202 7.8346
H 8.39948 6.43384 5.84782
H 5.98936 7.74309 6.5442
H 6.04508 6.29604 7.49154
10
 Atoms. Timestep: 80
C 7.16062 7.96928 8.34171
C 8.4879 7.84994 7.65192
C 8.03758 7.03006 6.69498
C 6.5511 7.15531 7.171
H 6.73666 9.01527 8.54754
H 7.2276 7.41154 9.26317
H 9.4275 8.18209 8.09662
H 8.46328 6.59253 5.83112
H 5.86094 7.68114 6.4678
H 5.98484 6.30989 7.52502
10
 Atoms. Timestep: 100
C 7.10055 7.92963 8.29317
C 8.48813 7.84098 7.69705
C 8.05758 7.05897 6.67033
C 6.56825 7.18631 7.22401
H 6.77266 8.95134 8.33944
H 7.03566 7.54528 9.33796
H 9.48618 8.10611 8.1071
H 8.56332 6.6328 5.79475
H 5.89647 7.68137 6.51787
H 6.08264 6.20771 7.48451
10
 Atoms. Timestep: 120
C 7.10137 7.97914 8.32533
C 8.4927 7.76975 7.75363
C 8.02151 7.12778 6.67656
C 6.63107 7.12586 7.16102
H 6.71212 9.02101 8.21803
H 6.76783 7.62521 9.37489
H 9.49001 8.10288 7.98416
H 8.56493 6.64203 5.82319
H 5.89111 7.71627 6.56155
H 6.21817 6.09742 7.42791
10
 Atoms. Timestep: 140
C 7.04024 7.96764 8.29098
C 8.50982 7.72994 7.80556
C 8.04922 7.15545 6.68134
C 6.64497 7.13932 7.18387
H 6.74539 9.03228 8.16585
H 6.73733 7.68553 9.24333
H 9.50317 8.1363 8.01144
H 8.47122 6.70067 5.80587
H 5.87411 7.54686 6.54016
H 6.32732 6.16435 7.35183
10
 Atoms. Timestep: 160
C 7.05801 7.9844 8.28723
C 8.50353 7.76667 7.82676
C 8.08803 7.12942 6.68388
C 6.59879 7.13595 7.12876
H 6.77526 9.04066 8.1494
H 6.76196 7.6527 9.34491
H 9.47795 8.10408 8.24282
H 8.49986 6.79689 5.74459
H 5.80855 7.47301 6.39625
H 6.31028 6.05403 7.45125
10
 Atoms. Timestep: 180
C 7.04971 7.95162 8.23205
C 8.45938 7.79306 7.80206
C 8.08596 7.12482 6.71591
C 6.63503 7.13703 7.1324
H 6.73762 8.99068 8.1985
H 6.84975 7.67029 9.30285
H 9.34382 7.99811 8.37025
H 8.65181 6.87045 5.77874
H 5.90539 7.47491 6.41033
H 6.25521 6.1763 7.53381
10
 Atoms. Timestep: 200
C 7.02789 7.98588 8.27702
C 8.43984 7.80523 7.82214
C 8.11248 7.12399 6.68789
C 6.64837 7.10049 7.10822
H 6.61145 9.03408 8.1967
H 6.83499 7.59393 9.25592
H 9.39553 7.98736 8.3341
H 8.74114 6.76303 5.86649
H 5.92818 7.55884 6.38084
H 6.24124 6.1892 7.48338
10
 Atoms. Timestep: 220
C 6.9774 7.9705 8.25942
C 8.47099 7.80401 7.82789
C 8.15156 7.13036 6.71777
C 6.64521 7.15241 7.11926
H 6.56434 8.9677 8.23598
H 6.72472 7.52784 9.24966
H 9.45215 8.11249 8.2121
H 8.68523 6.60472 5.96025
H 5.9542 7.5675 6.37309
H 6.27243 6.09611 7.3119
10
 Atoms. Timestep: 240
C 6.9984 7.94165 8.26306
C 8.48323 7.84422 7.85096
C 8.11279 7.10571 6.77321
C 6.66281 7.14868 7.05111
H 6.58492 8.97821 8.29116
H 6.65759 7.49065 9.24913
H 9.421 8.27808 8.17653
H 8.66294 6.50948 5.99847
H 5.97681 7.61764 6.32996
H 6.27736 6.10447 7.21374
10
 Atoms. Timestep: 260
C 6.9948 7.92169 8.25221
C 8.43547 7.86877 7.84073
C 8.14371 7.06886 6.80346
C 6.66258 7.13708 7.05092
H 6.6295 8.9664 8.30945
H 6.75894 7.4362 9.16071
H 9.33344 8.36093 8.23432
H 8.70751 6.56186 6.01564
H 6.09508 7.70184 6.27761
H 6.18016 6.21437 7.20737
10
 Atoms. Timestep: 280
C 6.9689 7.94508 8.24747
C 8.40786 7.8797 7.82802
C 8.20612 7.03026 6.78904
C 6.65759 7.13972 7.06008
H 6.5383 8.94576 8.33696
H 6.8286 7.37324 9.21362
H 9.27744 8.35484 8.2973
H 8.82923 6.62698 6.02516
H 6.21341 7.74054 6.25317
H 5.99416 6.21008 7.21511
10
 Atoms. Timestep: 300
C 6.95466 7.93583 8.23961
C 8.42243 7.88457 7.8317
C 8.19367 7.03576 6.80989
C 6.67959 7.135 7.04137
H 6.40477 8.89567 8.36386
H 6.79749 7.43585 9.2499
H 9.29737 8.32794 8.27475
H 8.90956 6.6129 6.067
H 6.218 7.74068 6.25332
H 5.99476 6.26003 7.14475
10
 Atoms. Timestep: 320
C 6.95248 7.91435 8.24313
C 8.42691 7.894 7.86622
C 8.17263 7.0718 6.84279
C 6.68752 7.13842 7.01082
H 6.42204 8.88072 8.27418
H 6.73544 7.43291 9.15557
H 9.3684 8.32527 8.22848
H 8.8145 6.51138 6.13295
H 6.17439 7.74948 6.23273
H 6.17201 6.20886 7.08731
10
 Atoms. Timestep: 340
C 6.93058 7.93109 8.22913
C 8.43009 7.89216 7.90244
C 8.18952 7.09045 6.82945
C 6.68785 7.14831 7.00033
H 6.52144 8.94787 8.2331
H 6.63793 7.32907 9.14469
H 9.36271 8.33839 8.29267
H 8.72865 6.47044 6.15787
H 6.13942 7.68292 6.20966
H 6.30561 6.07926 7.08291
10
 Atoms. Timestep: 360
C 6.91703 7.9457 8.19675
C 8.42069 7.85798 7.90704
C 8.20931 7.11071 6.81027
C 6.71649 7.1356 7.00849
H 6.51734 8.97527 8.3194
H 6.57217 7.4219 9.12654
H 9.24321 8.29085 8.43981
H 8.83602 6.54067 6.11234
H 6.11111 7.55919 6.20223
H 6.26304 6.13217 7.1534
10
 Atoms. Timestep: 380
C 6.92337 7.96032 8.20374
C 8.38244 7.84277 7.93462
C 8.23333 7.10932 6.79593
C 6.71053 7.09961 6.98439
H 6.46837 8.97607 8.22392
H 6.60277 7.52795 9.11941
H 9.23034 8.18738 8.55029
H 8.992 6.73209 6.05658
H 6.10797 7.53868 6.14035
H 6.22449 6.18565 7.28636
10
 Atoms. Timestep: 400
C 6.89037 7.93959 8.15946
C 8.38418 7.82511 7.9541
C 8.25487 7.13475 6.83153
C 6.69829 7.12297 6.99613
H 6.5041 8.93042 7.98828
H 6.59529 7.54161 9.18913
H 9.27094 8.08839 8.55276
H 8.95208 6.88017 6.06664
H 6.15127 7.51848 6.15301
H 6.28406 6.12645 7.2918
10
 Atoms. Timestep: 420
C 6.88681 7.94819 8.18413
C 8.40977 7.82003 8.0163
C 8.21747 7.16016 6.82947
C 6.74189 7.08803 6.96431
H 6.51163 8.97777 7.90095
H 6.4093 7.64856 9.17763
H 9.29904 8.11209 8.54851
H 8.89579 6.85004 6.03554
H 6.10524 7.49405 6.13702
H 6.36735 6.03901 7.12411
10
 Atoms. Timestep: 440
C 6.86609 7.93014 8.16245
C 8.39814 7.79294 8.02456
C 8.2397 7.19852 6.83878
C 6.75133 7.08389 6.98791
H 6.56788 8.96811 7.98298
H 6.31532 7.72846 9.01773
H 9.25144 8.19578 8.5721
H 8.85862 6.75756 6.02741
H 6.14211 7.47568 6.16153
H 6.45712 6.06148 7.04499
10
 Atoms. Timestep: 460
C 6.86338 7.95174 8.16701
C 8.35989 7.80216 8.02767
C 8.27716 7.17497 6.82736
C 6.74692 7.08992 6.94231
H 6.60751 9.00528 7.9706
H 6.26918 7.55078 9.11082
H 9.18918 8.23925 8.63567
H 8.96613 6.77394 6.09393
H 6.16856 7.52354 6.11833
H 6.4393 6.01449 7.17352
10
 Atoms. Timestep: 480
C 6.84515 7.91963 8.11984
C 8.34284 7.83433 8.01868
C 8.28541 7.13657 6.86251
C 6.76922 7.12724 6.94085
H 6.47751 8.9554 8.03515
H 6.47278 7.49079 9.04974
H 9.1279 8.17626 8.66329
H 9.08891 6.84745 6.20327
H 6.17893 7.47365 6.07402
H 6.32229 6.16985 7.21224
10
 Atoms. Timestep: 500
C 6.84868 7.95072 8.14636
C 8.34792 7.87515 8.01857
C 8.30456 7.1209 6.91317
C 6.76245 7.09728 6.87387
H 6.25371 8.90105 8.13385
H 6.53166 7.4581 9.04646
H 9.15058 8.14735 8.68173
H 9.12128 6.78095 6.23268
H 6.23109 7.50358 5.96229
H 6.25394 6.1647 7.12015
10
 Atoms. Timestep: 520
C 6.80739 7.91597 8.09583
C 8.35186 7.91436 8.02443
C 8.30494 7.11809 6.9255
C 6.77093 7.13411 6.91578
H 6.269 8.8445 8.12902
H 6.46156 7.34807 9.03965
H 9.19971 8.24976 8.68886
H 9.02826 6.59621 6.29323
H 6.41929 7.58833 6.02518
H 6.33541 6.09798 6.94385
10
 Atoms. Timestep: 540
C 6.79815 7.90003 8.16016
C 8.33386 7.92193 8.02061
C 8.29433 7.11739 6.95148
C 6.83579 7.10399 6.87277
H 6.32415 8.93026 8.08569
H 6.35348 7.27886 8.96841
H 9.10406 8.41882 8.5939
H 8.9584 6.48878 6.40503
H 6.44727 7.763 6.00614
H 6.3639 6.08021 6.79976
10
 Atoms. Timestep: 560
C 6.80087 7.85433 8.10974
C 8.29764 7.92826 8.056
C 8.33506 7.08262 6.97485
C 6.8141 7.13588 6.86583
H 6.34205 8.84352 8.14946
H 6.35405 7.3646 8.92826
H 9.03554 8.54027 8.52847
H 9.13107 6.50348 6.44445
H 6.44662 7.74008 6.04881
H 6.32864 6.22146 6.75108
10
 Atoms. Timestep: 580
C 6.7855 7.90127 8.10245
C 8.29326 7.89547 8.04946
C 8.38069 7.06563 7.02125
C 6.80384 7.12034 6.80531
H 6.24445 8.86292 8.13765
H 6.39312 7.28406 9.04336
H 9.00187 8.56054 8.60069
H 9.25676 6.70458 6.47512
H 6.49289 7.77264 5.9803
H 6.15518 6.13896 6.78107
10
 Atoms. Timestep: 600
C 6.75703 7.88161 8.05335
C 8.27029 7.91509 8.07678
C 8.36071 7.06787 7.0131
C 6.83468 7.12368 6.86441
H 6.21116 8.83816 8.04796
H 6.46382 7.32548 8.90663
H 9.02003 8.41026 8.72678
H 9.24473 6.7988 6.45402
H 6.6176 7.70347 5.92349
H 6.23036 6.21439 6.78429
10
 Atoms. Timestep: 620
C 6.75647 7.90477 8.09387
C 8.27146 7.92822 8.10624
C 8.34628 7.13941 7.02838
C 6.89185 7.08053 6.79855
H 6.17625 8.87166 7.95611
H 6.27191 7.33687 8.9065
H 8.98669 8.24605 8.803
H 9.11895 6.67376 6.39187
H 6.6023 7.62886 5.87754
H 6.37153 6.14524 6.79169
10
 Atoms. Timestep: 640
C 6.72463 7.86956 8.01347
C 8.2759 7.90745 8.15969
C 8.38414 7.1898 7.00046
C 6.86951 7.13121 6.81918
H 6.29705 8.82883 7.9269
H 6.10965 7.41827 8.86535
H 9.00656 8.23698 8.94413
H 9.12242 6.58891 6.4569
H 6.49396 7.53318 5.9041
H 6.5693 6.0257 6.83476
10
 Atoms. Timestep: 660
C 6.71252 7.90786 8.03688
C 8.24056 7.82933 8.18101
C 8.4035 7.22503 6.99724
C 6.89992 7.09232 6.77541
H 6.35063 8.98355 7.84503
H 6.10679 7.41743 8.80818
H 8.91048 8.24903 8.97044
H 9.27014 6.74022 6.56738
H 6.33103 7.49921 5.8411
H 6.61596 6.0033 6.91362
10
 Atoms. Timestep: 680
C 6.73459 7.90483 7.97364
C 8.17348 7.79831 8.21066
C 8.41879 7.22361 7.01391
C 6.90573 7.08681 6.80084
H 6.37506 8.9365 7.83057
H 6.13677 7.49784 8.75204
H 8.81629 8.16735 8.95046
H 9.39907 7.01096 6.53078
H 6.44797 7.39544 5.89113
H 6.55332 6.13056 6.93971
10
 Atoms. Timestep: 700
C 6.69189 7.91167 7.97693
C 8.20102 7.81728 8.23549
C 8.44051 7.21192 7.05072
C 6.93002 7.07069 6.74725
H 6.3714 8.91595 7.75327
H 5.98703 7.52652 8.83112
H 8.8165 8.12552 9.09448
H 9.31737 7.16081 6.40377
H 6.58917 7.42527 5.74577
H 6.46195 5.99653 6.99825
10
 Atoms. Timestep: 720
C 6.66631 7.85465 7.95242
C 8.2114 7.83945 8.25786
C 8.41332 7.23005 7.07668
C 6.94886 7.0888 6.78792
H 6.3759 8.89477 7.63959
H 5.95787 7.56446 8.69925
H 8.82914 8.1211 9.16226
H 9.2237 7.08309 6.38226
H 6.71122 7.41979 5.74419
H 6.58682 6.05903 6.81225
10
 Atoms. Timestep: 740
C 6.6839 7.88453 7.98663
C 8.15148 7.83996 8.29142
C 8.40592 7.25922 7.084
C 6.99019 7.05539 6.73708
H 6.35883 8.8805 7.58731
H 5.90869 7.48181 8.66341
H 8.81458 8.1784 9.05036
H 9.28843 6.89783 6.5194
H 6.67494 7.5219 5.789
H 6.68965 6.02498 6.68477
10
 Atoms. Timestep: 760
C 6.65369 7.85612 7.90331
C 8.13783 7.83338 8.26805
C 8.47179 7.24731 7.11718
C 6.97113 7.10629 6.73396
H 6.30739 8.84449 7.73887
H 5.96044 7.41097 8.67093
H 8.7347 8.2902 9.04611
H 9.41431 6.82779 6.77685
H 6.60211 7.60291 5.85235
H 6.69837 5.98504 6.66886
10
 Atoms. Timestep: 780
C 6.63499 7.84852 7.92477
C 8.1207 7.88147 8.24737
C 8.50201 7.18134 7.14758
C 7.01189 7.11006 6.67114
H 6.14619 8.90942 7.87267
H 6.02029 7.2874 8.65045
H 8.6226 8.35977 9.14641
H 9.49777 6.83959 6.87676
H 6.63895 7.6028 5.70991
H 6.58072 6.0927 6.68763
10
 Atoms. Timestep: 800
C 6.65881 7.83883 7.90604
C 8.08953 7.93626 8.24445
C 8.46408 7.16345 7.21431
C 7.02733 7.13669 6.67866
H 6.05979 8.7365 7.85723
H 6.12828 7.16079 8.55476
H 8.57627 8.31092 9.12003
H 9.4352 6.82217 6.79375
H 6.94399 7.53891 5.68069
H 6.54204 6.19926 6.62174
10
 Atoms. Timestep: 820
C 6.61479 7.83915 7.88252
C 8.10834 7.96501 8.29144
C 8.42869 7.17217 7.23453
C 7.07435 7.12074 6.66758
H 5.97331 8.71352 7.77015
H 6.13386 7.06368 8.56552
H 8.65474 8.35676 9.12706
H 9.31887 6.7526 6.78617
H 7.13387 7.66925 5.69352
H 6.55231 6.08179 6.49014
10
 Atoms. Timestep: 840
C 6.57962 7.79958 7.84771
C 8.09955 7.94566 8.30326
C 8.46903 7.17801 7.25782
C 7.07761 7.11475 6.66896
H 5.91833 8.73164 7.72471
H 6.03052 7.16834 8.55098
H 8.70181 8.4673 9.10364
H 9.35978 6.67983 6.92699
H 7.0148 7.794 5.78159
H 6.74395 6.15094 6.33458
10
 Atoms. Timestep: 860
C 6.58881 7.79904 7.87959
C 8.03069 7.91903 8.27988
C 8.51012 7.17225 7.27497
C 7.10698 7.1358 6.63534
H 6.037 8.71359 7.69902
H 5.93339 7.20956 8.52101
H 8.5484 8.50109 9.03901
H 9.51397 6.69411 7.10639
H 6.88275 7.81266 5.82158
H 6.7889 6.13223 6.28333
10
 Atoms. Timestep: 880
C 6.60726 7.78463 7.83355
C 8.0022 7.91171 8.29929
C 8.51042 7.17701 7.28009
C 7.12249 7.133 6.63875
H 6.16574 8.76975 7.69826
H 5.93251 7.16163 8.48028
H 8.36224 8.48372 9.12095
H 9.54155 6.84834 7.13763
H 6.97871 7.81385 5.77634
H 6.68911 6.10466 6.36545
10
 Atoms. Timestep: 900
C 6.58767 7.79387 7.78717
C 8.00966 7.90235 8.35921
C 8.50701 7.21733 7.31186
C 7.12826 7.09005 6.61777
H 6.08939 8.82849 7.6717
H 5.94004 7.16816 8.41256
H 8.35678 8.40077 9.29018
H 9.48447 6.9572 6.96359
H 7.18132 7.69545 5.67579
H 6.67645 6.14824 6.41915
10
 Atoms. Timestep: 920
C 6.5717 7.83276 7.78263
C 7.96764 7.88691 8.39933
C 8.49705 7.24587 7.32344
C 7.18517 7.11042 6.62039
H 6.00558 8.71795 7.5505
H 5.863 7.22577 8.34151
H 8.4563 8.2279 9.33064
H 9.48228 6.99557 6.85815
H 7.2101 7.51099 5.61469
H 6.77741 6.08611 6.43881
10
 Atoms. Timestep: 940
C 6.55453 7.81641 7.74629
C 7.96307 7.85062 8.38995
C 8.50251 7.27815 7.31632
C 7.19401 7.13625 6.63929
H 6.06873 8.76154 7.44487
H 5.78664 7.23394 8.32264
H 8.3925 8.13256 9.32806
H 9.53309 7.01578 7.04767
H 7.10149 7.55035 5.61176
H 6.95681 6.03728 6.5829
10
 Atoms. Timestep: 960
C 6.54554 7.79412 7.74381
C 7.92766 7.83701 8.39564
C 8.5628 7.31555 7.30658
C 7.19257 7.09686 6.60337
H 6.22888 8.87604 7.46241
H 5.74048 7.27319 8.29956
H 8.24979 8.1479 9.40166
H 9.58311 7.01593 7.20998
H 6.95937 7.60491 5.61483
H 6.99093 6.04079 6.60412
10
 Atoms. Timestep: 980
C 6.58997 7.79199 7.72662
C 7.89283 7.82683 8.40051
C 8.55919 7.35051 7.34785
C 7.20348 7.09287 6.60143
H 6.25432 8.778 7.55495
H 5.74737 7.34642 8.22186
H 8.13717 8.17514 9.41067
H 9.60822 7.04626 7.15914
H 7.0091 7.47298 5.61864
H 6.895 6.02801 6.4652
10
 Atoms. Timestep: 1000
C 6.56103 7.80142 7.71374
C 7.89669 7.83693 8.44622
C 8.52132 7.3117 7.35573
C 7.25081 7.09346 6.59067
H 6.17973 8.8252 7.47973
H 5.70321 7.23716 8.23386
H 8.16487 8.20397 9.43064
H 9.58232 7.15483 7.05577
H 7.22294 7.5181 5.5529
H 6.89186 6.0197 6.4979
10
 Atoms. Timestep: 1020
C 6.52817 7.7762 7.6771
C 7.89513 7.84228 8.43898
C 8.51591 7.27346 7.39059
C 7.24089 7.12752 6.61761
H 6.11349 8.7747 7.35894
H 5.76547 7.20637 8.17594
H 8.26288 8.213 9.39852
H 9.52048 7.20032 7.06315
H 7.37038 7.6106 5.61924
H 7.01072 6.09828 6.52756
10
 Atoms. Timestep: 1040
C 6.51685 7.7928 7.71104
C 7.85732 7.8625 8.42249
C 8.53641 7.27514 7.4205
C 7.29306 7.11571 6.58501
H 6.04404 8.70374 7.37223
H 5.71322 7.19223 8.16293
H 8.26329 8.24424 9.36934
H 9.59235 7.09084 7.18036
H 7.27757 7.66757 5.63325
H 7.01162 6.04452 6.33668
10
 Atoms. Timestep: 1060
C 6.55712 7.73805 7.65219
C 7.85578 7.89125 8.42285
C 8.54958 7.29322 7.42543
C 7.27192 7.12232 6.58919
H 6.06146 8.71611 7.47478
H 5.75993 7.15346 8.18306
H 8.08328 8.33029 9.39524
H 9.61121 6.9292 7.39511
H 7.20325 7.699 5.67705
H 6.99845 6.12287 6.22577
10
 Atoms. Timestep: 1080
C 6.54026 7.73734 7.68351
C 7.84441 7.91002 8.40688
C 8.55114 7.28354 7.45388
C 7.30235 7.11572 6.53635
H 6.04898 8.7581 7.49453
H 5.86442 7.02063 8.1811
H 7.95846 8.3734 9.37988
H 9.53636 6.86913 7.45401
H 7.28809 7.83248 5.62153
H 6.9987 6.08655 6.27422
10
 Atoms. Timestep: 1100
C 6.53951 7.74014 7.64301
C 7.80357 7.92307 8.40908
C 8.53233 7.24392 7.47216
C 7.31817 7.1756 6.57593
H 5.93223 8.57517 7.47107
H 5.90239 7.01957 8.12593
H 8.06507 8.36733 9.38077
H 9.55661 6.89441 7.36784
H 7.43918 7.70911 5.66618
H 7.06702 6.15799 6.27614
10
 Atoms. Timestep: 1120
C 6.49043 7.7652 7.63631
C 7.83678 7.91508 8.4372
C 8.50527 7.24467 7.51267
C 7.37401 7.15629 6.56426
H 5.749 8.5977 7.35444
H 5.81409 6.94152 8.10531
H 8.15625 8.34915 9.38239
H 9.5669 6.98584 7.30822
H 7.52927 7.73273 5.62484
H 7.06956 6.12557 6.21115
10
 Atoms. Timestep: 1140
C 6.51362 7.71494 7.58093
C 7.80904 7.91904 8.46948
C 8.52853 7.26366 7.50636
C 7.31871 7.13946 6.57499
H 5.93095 8.61543 7.32496
H 5.8513 7.02166 8.03087
H 8.11475 8.36045 9.42658
H 9.59357 7.03455 7.41292
H 7.51324 7.81305 5.69501
H 7.10078 6.15228 6.20808
10
 Atoms. Timestep: 1160
C 6.52613 7.7261 7.65036
C 7.75847 7.88342 8.42592
C 8.54777 7.31055 7.51743
C 7.38821 7.11338 6.52905
H 6.11294 8.68985 7.34356
H 5.7339 7.04848 8.03954
H 7.90896 8.34756 9.3956
H 9.57478 7.03506 7.52254
H 7.37244 7.81099 5.68114
H 7.09748 6.08737 6.17005
10
 Atoms. Timestep: 1180
C 6.54045 7.69606 7.56961
C 7.73695 7.85135 8.44677
C 8.57348 7.32992 7.5054
C 7.37523 7.14781 6.57996
H 6.12472 8.70556 7.3921
H 5.65622 7.17368 8.02564
H 7.77588 8.31663 9.43434
H 9.65926 7.0513 7.53933
H 7.35551 7.68695 5.64522
H 7.19577 6.13499 6.24194
10
 Atoms. Timestep: 1200
C 6.47587 7.75359 7.56944
C 7.7433 7.82056 8.49482
C 8.56258 7.35128 7.54141
C 7.41481 7.12727 6.53749
H 6.02807 8.75796 7.26825
H 5.65869 7.1027 7.93443
H 7.85041 8.19893 9.5183
H 9.64413 7.16002 7.42319
H 7.50826 7.66974 5.49585
H 7.25502 6.01444 6.39011
10
 Atoms. Timestep: 1220
C 6.52916 7.7565 7.51423
C 7.69193 7.81806 8.5147
C 8.52091 7.37138 7.54156
C 7.41313 7.15167 6.57304
H 6.05647 8.6323 7.18425
H 5.7476 7.08356 7.79415
H 7.97028 8.01946 9.55428
H 9.56548 7.28938 7.40763
H 7.61332 7.51061 5.62773
H 7.24006 6.09901 6.45982
10
 Atoms. Timestep: 1240
C 6.50525 7.74277 7.54087
C 7.67835 7.8197 8.50284
C 8.5328 7.40094 7.55668
C 7.48286 7.12077 6.55176
H 6.09497 8.73905 7.14478
H 5.61129 7.05453 7.81594
H 7.81039 7.97399 9.5693
H 9.63153 7.33305 7.52406
H 7.61414 7.56553 5.49972
H 7.16611 6.04878 6.42232
10
 Atoms. Timestep: 1260
C 6.51092 7.66882 7.47493
C 7.6587 7.80587 8.48342
C 8.60573 7.42533 7.59746
C 7.42748 7.13529 6.55363
H 6.20663 8.70188 7.26774
H 5.61907 7.22808 7.85396
H 7.54929 8.08621 9.5417
H 9.72266 7.29148 7.67671
H 7.51856 7.6384 5.54245
H 7.29079 6.06207 6.34981
10
 Atoms. Timestep: 1280
C 6.50818 7.70613 7.52762
C 7.60484 7.78519 8.47598
C 8.58818 7.4158 7.61839
C 7.51293 7.12335 6.5052
H 6.1718 8.71144 7.22371
H 5.57634 7.1196 7.82713
H 7.5236 8.21736 9.4846
H 9.63557 7.26948 7.71834
H 7.49029 7.67217 5.59278
H 7.44161 6.04714 6.2793
10
 Atoms. Timestep: 1300
C 6.52273 7.68563 7.4328
C 7.6003 7.81446 8.52935
C 8.50224 7.3809 7.63294
C 7.52718 7.16482 6.57826
H 6.03914 8.61787 7.13074
H 5.73822 6.96612 7.6684
H 7.71077 8.24759 9.50685
H 9.57572 7.26962 7.67629
H 7.65412 7.71084 5.61356
H 7.49129 6.13308 6.2531
10
 Atoms. Timestep: 1320
C 6.45745 7.66457 7.42156
C 7.5975 7.87861 8.54411
C 8.51222 7.35532 7.70074
C 7.56395 7.1762 6.52743
H 5.87109 8.57486 7.05216
H 5.7518 6.84289 7.58502
H 7.75905 8.21686 9.58001
H 9.63801 7.22158 7.66312
H 7.90459 7.83339 5.63185
H 7.41278 6.08219 6.21383
10
 Atoms. Timestep: 1340
C 6.49486 7.64046 7.40525
C 7.57196 7.89662 8.47588
C 8.53823 7.34986 7.7249
C 7.57517 7.20405 6.53336
H 5.85388 8.43988 7.10578
H 5.75353 6.84064 7.683
H 7.52953 8.20714 9.54891
H 9.58934 7.14866 7.85211
H 7.90024 7.79601 5.76532
H 7.4161 6.24175 6.09754
10
 Atoms. Timestep: 1360
C 6.51392 7.63727 7.43278
C 7.51423 7.88053 8.44908
C 8.54341 7.3514 7.72078
C 7.6285 7.18869 6.53998
H 5.89638 8.50694 7.10794
H 5.85991 6.82903 7.79373
H 7.30297 8.26594 9.42366
H 9.52805 7.08087 8.03341
H 7.81776 7.97356 5.6832
H 7.51862 6.21634 5.99135
10
 Atoms. Timestep: 1380
C 6.52364 7.60051 7.35727
C 7.50946 7.87396 8.49098
C 8.51941 7.36715 7.78142
C 7.61376 7.1975 6.50967
H 5.92757 8.51635 7.08856
H 5.86059 6.82768 7.69754
H 7.33274 8.3541 9.44183
H 9.56759 7.04517 8.04594
H 7.7403 8.03872 5.75297
H 7.69753 6.20327 6.02616
10
 Atoms. Timestep: 1400
C 6.48591 7.60451 7.35738
C 7.47551 7.87319 8.51011
C 8.50714 7.3598 7.79813
C 7.67905 7.21957 6.52378
H 5.87776 8.4303 6.99009
H 5.71399 6.76431 7.46572
H 7.49203 8.37075 9.52804
H 9.56936 7.15333 7.96924
H 7.85815 7.92515 5.7683
H 7.72703 6.23378 6.03125
10
 Atoms. Timestep: 1420
C 6.48095 7.59972 7.327
C 7.45681 7.84607 8.5048
C 8.49542 7.38088 7.7901
C 7.68571 7.22596 6.59432
H 5.90528 8.43562 6.92478
H 5.78746 6.76713 7.36615
H 7.44969 8.25135 9.50539
H 9.53599 7.31375 7.95816
H 8.09326 7.89628 5.73573
H 7.63896 6.24009 6.10149
10
 Atoms. Timestep: 1440
C 6.51089 7.61574 7.29533
C 7.41493 7.80891 8.51281
C 8.51681 7.42827 7.82139
C 7.68994 7.19749 6.53205
H 5.96563 8.54919 6.93196
H 5.82326 6.77543 7.478
H 7.21454 8.12315 9.51409
H 9.61654 7.41141 8.03522
H 8.09707 7.90353 5.77082
H 7.61158 6.15478 6.18941
10
 Atoms. Timestep: 1460
C 6.54456 7.62443 7.29487
C 7.38595 7.78032 8.49925
C 8.51866 7.47427 7.84278
C 7.74287 7.19192 6.51306
H 6.04542 8.52603 6.97558
H 5.69178 6.91635 7.50749
H 7.01235 8.0123 9.54314
H 9.57845 7.41579 8.13726
H 7.90905 7.78479 5.65319
H 7.73467 6.13909 6.17254
10
 Atoms. Timestep: 1480
C 6.53361 7.59589 7.27122
C 7.36751 7.76195 8.50188
C 8.51494 7.50552 7.84127
C 7.74928 7.21329 6.56858
H 6.13425 8.56735 6.93133
H 5.65648 6.95911 7.33374
H 7.07491 7.93798 9.5416
H 9.51706 7.39916 8.18504
H 7.87783 7.73564 5.54992
H 7.87138 6.16086 6.24964
10
 Atoms. Timestep: 1500
C 6.48776 7.59187 7.23846
C 7.34891 7.73886 8.53358
C 8.49948 7.52982 7.84873
C 7.75537 7.21271 6.56696
H 6.17847 8.63944 6.84111
H 5.66577 6.84455 7.12768
H 7.21171 7.92875 9.56024
H 9.56156 7.43324 8.14203
H 8.0805 7.80696 5.67237
H 7.87685 6.12747 6.41918
10
 Atoms. Timestep: 1520
C 6.5254 7.60529 7.20132
C 7.32945 7.7175 8.5345
C 8.46652 7.5285 7.86729
C 7.7841 7.21748 6.58232
H 6.08606 8.5013 6.85786
H 5.7095 6.88098 7.10677
H 7.16319 7.96216 9.62175
H 9.54397 7.56419 8.07736
H 8.2008 7.75827 5.77298
H 7.7877 6.14053 6.33969
10
 Atoms. Timestep: 1540
C 6.53467 7.59981 7.21981
C 7.29104 7.73103 8.51781
C 8.48293 7.49775 7.89836
C 7.8375 7.2101 6.57263
H 6.04988 8.53584 6.87027
H 5.72131 6.84515 7.24967
H 6.94465 7.98119 9.55095
H 9.51632 7.66636 8.15532
H 8.24337 7.78848 5.64745
H 7.77166 6.17086 6.16364
10
 Atoms. Timestep: 1560
C 6.56764 7.55466 7.20025
C 7.28549 7.75875 8.48433
C 8.49073 7.48108 7.95003
C 7.79378 7.23465 6.54318
H 6.13448 8.54749 6.85495
H 5.77625 6.80172 7.30538
H 6.85385 7.99604 9.40346
H 9.51406 7.61375 8.32583
H 8.12771 7.87581 5.74083
H 7.89177 6.21034 6.19182
10
 Atoms. Timestep: 1580
C 6.51402 7.5509 7.19632
C 7.2774 7.77822 8.47429
C 8.48478 7.49421 7.94496
C 7.86277 7.23835 6.55535
H 6.06477 8.43676 6.77758
H 5.74742 6.74204 7.18258
H 6.90188 8.07475 9.47925
H 9.47478 7.40266 8.42571
H 8.06 8.00744 5.797
H 8.04139 6.1863 6.20132
10
 Atoms. Timestep: 1600
C 6.55206 7.52348 7.13692
C 7.25441 7.79589 8.49321
C 8.44555 7.50473 7.94969
C 7.85587 7.25511 6.62596
H 5.93515 8.34302 6.71277
H 5.83921 6.71088 7.08679
H 7.03543 8.14426 9.54328
H 9.41328 7.24611 8.3521
H 8.16099 7.97927 5.8281
H 8.09253 6.32119 6.13129
10
 Atoms. Timestep: 1620
C 6.52482 7.52768 7.14201
C 7.22589 7.82398 8.50978
C 8.42275 7.46926 7.98835
C 7.90208 7.27944 6.57615
H 5.88657 8.38024 6.65556
H 5.98303 6.52629 7.14196
H 6.96925 8.14622 9.48231
H 9.44511 7.2681 8.32095
H 8.32141 8.03196 5.88713
H 8.06539 6.26503 6.1034
10
 Atoms. Timestep: 1640
C 6.58311 7.53246 7.13148
C 7.21295 7.82573 8.47104
C 8.42259 7.41699 7.99714
C 7.88072 7.30649 6.56625
H 5.93929 8.21829 6.71827
H 6.05115 6.59956 7.22987
H 6.76053 8.13499 9.42742
H 9.42301 7.40039 8.44501
H 8.3333 8.05544 5.93383
H 8.02043 6.32131 6.1392
10
 Atoms. Timestep: 1660
C 6.56031 7.53073 7.15094
C 7.21677 7.79851 8.43226
C 8.42783 7.4385 8.02609
C 7.95526 7.28661 6.59728
H 5.85835 8.28955 6.64544
H 5.93107 6.60963 7.2119
H 6.68223 8.11485 9.36796
H 9.37494 7.43061 8.54493
H 8.251 8.11321 5.85186
H 8.06536 6.33606 6.02749
10
 Atoms. Timestep: 1680
C 6.57995 7.48411 7.06546
C 7.16729 7.78422 8.4631
C 8.45157 7.50142 8.05363
C 7.89871 7.2763 6.60635
H 6.02549 8.37005 6.65647
H 5.87222 6.6431 7.09043
H 6.80706 8.11142 9.42217
H 9.42315 7.37541 8.56899
H 8.20104 8.07317 5.96327
H 8.20998 6.37062 6.0564
10
 Atoms. Timestep: 1700
C 6.52758 7.48834 7.08501
C 7.16929 7.75361 8.48761
C 8.39215 7.5378 8.03569
C 7.97395 7.27087 6.60838
H 6.15618 8.37671 6.61729
H 5.84041 6.626 6.89684
H 6.82892 8.08514 9.4479
H 9.36719 7.42169 8.49005
H 8.26858 8.1267 5.95904
H 8.28492 6.28 6.17772
10
 Atoms. Timestep: 1720
C 6.61849 7.49184 7.07664
C 7.11932 7.71732 8.4812
C 8.39118 7.52771 8.01213
C 7.94881 7.29513 6.64159
H 6.10731 8.37674 6.61757
H 5.90102 6.72279 6.86134
H 6.67904 8.01276 9.48788
H 9.37141 7.60376 8.47774
H 8.383 7.97858 5.87368
H 8.21538 6.3333 6.30146
10
 Atoms. Timestep: 1740
C 6.57821 7.54011 7.05002
C 7.11808 7.67826 8.45987
C 8.40334 7.56068 8.10891
C 8.00828 7.29577 6.60195
H 6.0519 8.48372 6.65963
H 5.89265 6.62185 6.94413
H 6.54899 7.83454 9.36574
H 9.40797 7.76355 8.51944
H 8.45281 7.89083 5.77385
H 8.12226 6.17655 6.30164
10
 Atoms. Timestep: 1760
C 6.6209 7.54021 7.00521
C 7.09606 7.65526 8.43351
C 8.42291 7.61366 8.1011
C 7.97705 7.28368 6.63065
H 6.13305 8.38898 6.69111
H 5.91099 6.73987 6.93852
H 6.52261 7.67824 9.32959
H 9.33818 7.7779 8.69195
H 8.42378 7.84167 5.84391
H 8.09385 6.23648 6.37115
10
 Atoms. Timestep: 1780
C 6.59259 7.50241 7.04164
C 7.08991 7.65664 8.43133
C 8.37405 7.65089 8.06564
C 8.05394 7.28079 6.66183
H 6.19221 8.5039 6.54377
H 5.8198 6.73634 6.75529
H 6.56328 7.61092 9.41574
H 9.21792 7.67018 8.71342
H 8.4668 7.92749 5.79601
H 8.201 6.22684 6.46214
10
 Atoms. Timestep: 1800
C 6.64341 7.47254 6.97145
C 7.03765 7.65561 8.46968
C 8.32978 7.65613 8.104
C 7.99965 7.3141 6.65822
H 6.33891 8.43796 6.54019
H 5.8897 6.73829 6.65172
H 6.61237 7.68198 9.4937
H 9.32234 7.62078 8.6165
H 8.4954 7.88577 5.88298
H 8.40236 6.26494 6.4838
10
 Atoms. Timestep: 1820
C 6.59331 7.49092 6.95038
C 6.99984 7.64081 8.47949
C 8.32693 7.614 8.13438
C 8.1007 7.30975 6.6787
H 6.29244 8.41089 6.53104
H 5.9284 6.64596 6.63506
H 6.49196 7.81666 9.40153
H 9.33386 7.74799 8.57289
H 8.50792 7.99196 5.90178
H 8.44471 6.27363 6.38898
10
 Atoms. Timestep: 1840
C 6.69041 7.46882 6.96273
C 7.01294 7.63756 8.40243
C 8.33165 7.56236 8.15928
C 8.0754 7.30981 6.69718
H 6.09958 8.37652 6.5146
H 6.02458 6.66346 6.72491
H 6.32157 7.93025 9.21394
H 9.1545 7.88269 8.73474
H 8.5108 8.10235 6.05636
H 8.35055 6.39342 6.31469
10
 Atoms. Timestep: 1860
C 6.64962 7.4461 6.95363
C 6.98855 7.67443 8.35286
C 8.32751 7.54343 8.22037
C 8.12635 7.35374 6.68064
H 6.09848 8.30998 6.48937
H 6.06556 6.49072 6.7773
H 6.28701 7.97968 9.17042
H 9.13277 7.83232 8.95126
H 8.5807 8.19794 6.10947
H 8.40728 6.30317 6.14618
10
 Atoms. Timestep: 1880
C 6.67921 7.40164 6.87143
C 6.95811 7.73157 8.39213
C 8.2707 7.56604 8.25013
C 8.12025 7.3725 6.69075
H 6.17144 8.14411 6.38089
H 6.14274 6.44513 6.75991
H 6.35854 7.96511 9.23625
H 9.14923 7.52915 8.94871
H 8.54875 8.17534 6.1319
H 8.58369 6.53069 6.20468
10
 Atoms. Timestep: 1900
C 6.69165 7.39069 6.89582
C 6.90041 7.75566 8.38501
C 8.25729 7.56821 8.20233
C 8.18508 7.38582 6.75176
H 6.08645 8.10966 6.12644
H 6.24473 6.41363 6.70005
H 6.32453 7.93739 9.30335
H 9.05215 7.31879 8.83912
H 8.47977 8.31658 6.1592
H 8.72976 6.52164 6.35127
10
 Atoms. Timestep: 1920
C 6.73414 7.41582 6.87122
C 6.90954 7.73892 8.3346
C 8.21241 7.55952 8.23339
C 8.15392 7.42291 6.75156
H 6.10327 8.00225 6.21449
H 6.39995 6.37092 6.77394
H 6.21361 7.9057 9.18595
H 9.04141 7.30803 8.89905
H 8.523 8.31839 6.22773
H 8.78273 6.49164 6.44321
10
 Atoms. Timestep: 1940
C 6.70574 7.40232 6.83948
C 6.86766 7.71725 8.31425
C 8.22493 7.53974 8.29456
C 8.22384 7.44838 6.74309
H 6.05779 8.05202 6.2539
H 6.45608 6.30515 6.82363
H 6.09716 7.90305 9.05696
H 9.04267 7.47899 9.09327
H 8.66014 8.27242 6.19857
H 8.67717 6.56218 6.31437
10
 Atoms. Timestep: 1960
C 6.78308 7.37252 6.84066
C 6.8576 7.6793 8.31397
C 8.19789 7.56174 8.31301
C 8.22532 7.43927 6.77051
H 6.09124 8.05434 6.23053
H 6.35465 6.39773 6.62909
H 6.08321 7.89772 9.02624
H 8.89259 7.66949 9.09037
H 8.71129 8.29515 6.25254
H 8.60765 6.5886 6.23136
10
 Atoms. Timestep: 1980
C 6.76389 7.37396 6.82191
C 6.82833 7.62192 8.30179
C 8.1809 7.61216 8.29821
C 8.24624 7.41522 6.80219
H 6.3039 8.14406 6.2009
H 6.28541 6.42549 6.46113
H 6.1029 7.85777 9.10891
H 8.90865 7.80582 9.0809
H 8.63526 8.376 6.36615
H 8.77169 6.47125 6.32638
10
 Atoms. Timestep: 2000
C 6.7635 7.37852 6.75636
C 6.81616 7.58023 8.30712
C 8.1531 7.65002 8.30624
C 8.23985 7.39225 6.82847
H 6.45419 8.28124 6.23433
H 6.27083 6.4495 6.40552
H 6.08333 7.73617 9.10315
H 8.98867 7.8835 9.05277
H 8.60424 8.25746 6.31319
H 8.88712 6.60602 6.59093
10
 Atoms. Timestep: 2020
C 6.79459 7.37282 6.77455
C 6.79113 7.55545 8.29836
C 8.13946 7.68512 8.31985
C 8.26417 7.42164 6.84653
H 6.38152 8.29359 6.24891
H 6.25937 6.54333 6.32313
H 6.00166 7.58558 9.03042
H 8.89741 7.90159 9.03653
H 8.73443 8.18546 6.14857
H 8.91348 6.50025 6.66569
10
 Atoms. Timestep: 2040
C 6.83298 7.39308 6.79685
C 6.77502 7.52956 8.26868
C 8.12498 7.72967 8.33149
C 8.29712 7.44772 6.82416
H 6.33046 8.2173 6.30881
H 6.33384 6.51979 6.30079
H 5.94161 7.46235 8.98236
H 8.79272 7.93045 9.13962
H 8.8712 8.1338 6.16547
H 8.67351 6.35611 6.66484
10
 Atoms. Timestep: 2060
C 6.82098 7.40527 6.7381
C 6.80302 7.50889 8.2542
C 8.09954 7.7565 8.3452
C 8.29519 7.43018 6.84648
H 6.33532 8.27314 6.27128
H 6.46136 6.42619 6.37004
H 5.97519 7.38803 8.95397
H 8.75382 7.97618 9.26288
H 8.921 8.09517 6.26846
H 8.56491 6.45622 6.65848
10
 Atoms. Timestep: 2080
C 6.82188 7.39616 6.714
C 6.77258 7.50522 8.2343
C 8.11077 7.73932 8.3626
C 8.28428 7.45749 6.9024
H 6.35814 8.22895 6.11597
H 6.4315 6.46281 6.31048
H 5.9992 7.37136 8.98612
H 8.74996 8.00519 9.20619
H 8.93212 8.15708 6.27907
H 8.71599 6.40553 6.71143
10
 Atoms. Timestep: 2100
C 6.86517 7.3696 6.72847
C 6.73848 7.53073 8.24552
C 8.0654 7.70335 8.36779
C 8.31157 7.47081 6.88297
H 6.4491 8.15676 6.10605
H 6.36979 6.49017 6.23069
H 5.93551 7.42721 8.97073
H 8.74974 7.96156 9.11284
H 8.82898 8.23181 6.31467
H 8.90715 6.50557 6.80547
10
 Atoms. Timestep: 2120
C 6.86824 7.32857 6.72364
C 6.70028 7.53971 8.23571
C 8.04182 7.69484 8.35204