ITEM: TIMESTEP
0
ITEM: NUMBER OF ATOMS
10
ITEM: BOX BOUNDS pp pp pp
0.0000000000000000e+00 1.5000000000000000e+01
0.0000000000000000e+00 1.5000000000000000e+01
0.0000000000000000e+00 1.5000000000000000e+01
ITEM: ATOMS id type x y z
10 2 5.84808 6.27689 7.54223
4 1 6.54722 7.17332 7.25745
7 2 9.43119 8.24759 7.76148
8 2 8.33858 6.51141 5.78744
9 2 5.89371 7.89747 6.70373
1 1 7.26044 7.95503 8.3744
3 1 7.93277 7.01665 6.66647
2 1 8.48357 7.83079 7.55556
6 2 7.35677 7.4444 9.39645
5 2 6.91169 8.98757 8.57442
ITEM: TIMESTEP
100
ITEM: NUMBER OF ATOMS
10
ITEM: BOX BOUNDS pp pp pp
0.0000000000000000e+00 1.5000000000000000e+01
0.0000000000000000e+00 1.5000000000000000e+01
0.0000000000000000e+00 1.5000000000000000e+01
ITEM: ATOMS id type x y z
10 2 6.08264 6.20771 7.48451
4 1 6.56825 7.18631 7.22401
7 2 9.48618 8.10611 8.1071
8 2 8.56332 6.6328 5.79475
9 2 5.89647 7.68137 6.51787
1 1 7.10055 7.92963 8.29317
3 1 8.05758 7.05897 6.67033
2 1 8.48813 7.84098 7.69705
6 2 7.03566 7.54528 9.33796
5 2 6.77266 8.95134 8.33944
ITEM: TIMESTEP
200
ITEM: NUMBER OF ATOMS
10
ITEM: BOX BOUNDS pp pp pp
0.0000000000000000e+00 1.5000000000000000e+01
0.0000000000000000e+00 1.5000000000000000e+01
0.0000000000000000e+00 1.5000000000000000e+01
ITEM: ATOMS id type x y z
10 2 6.24124 6.1892 7.48338
4 1 6.64837 7.10049 7.10822
7 2 9.39553 7.98736 8.3341
8 2 8.74114 6.76303 5.86649
9 2 5.92818 7.55884 6.38084
1 1 7.02789 7.98588 8.27702
3 1 8.11248 7.12399 6.68789
2 1 8.43984 7.80523 7.82214
6 2 6.83499 7.59393 9.25592
5 2 6.61145 9.03408 8.1967
ITEM: TIMESTEP
300
ITEM: NUMBER OF ATOMS
10
ITEM: BOX BOUNDS pp pp pp
0.0000000000000000e+00 1.5000000000000000e+01
0.0000000000000000e+00 1.5000000000000000e+01
0.0000000000000000e+00 1.5000000000000000e+01
ITEM: ATOMS id type x y z
10 2 5.99476 6.26003 7.14475
4 1 6.67959 7.135 7.04137
7 2 9.29737 8.32794 8.27475
8 2 8.90956 6.6129 6.067
9 2 6.218 7.74068 6.25332
1 1 6.95466 7.93583 8.23961
3 1 8.19367 7.03576 6.80989
2 1 8.42243 7.88457 7.8317
6 2 6.79749 7.43585 9.2499
5 2 6.40477 8.89567 8.36386
ITEM: TIMESTEP
400
ITEM: NUMBER OF ATOMS
10
ITEM: BOX BOUNDS pp pp pp
0.0000000000000000e+00 1.5000000000000000e+01
0.0000000000000000e+00 1.5000000000000000e+01
0.0000000000000000e+00 1.5000000000000000e+01
ITEM: ATOMS id type x y z
10 2 6.28406 6.12645 7.2918
4 1 6.69829 7.12297 6.99613
7 2 9.27094 8.08839 8.55276
8 2 8.95208 6.88017 6.06664
9 2 6.15127 7.51848 6.15301
1 1 6.89037 7.93959 8.15946
3 1 8.25487 7.13475 6.83153
2 1 8.38418 7.82511 7.9541
6 2 6.59529 7.54161 9.18913
5 2 6.5041 8.93042 7.98828
ITEM: TIMESTEP
500
ITEM: NUMBER OF ATOMS
10
ITEM: BOX BOUNDS pp pp pp
0.0000000000000000e+00 1.5000000000000000e+01
0.0000000000000000e+00 1.5000000000000000e+01
0.0000000000000000e+00 1.5000000000000000e+01
ITEM: ATOMS id type x y z
10 2 6.25394 6.1647 7.12015
4 1 6.76245 7.09728 6.87387
7 2 9.15058 8.14735 8.68173
8 2 9.12128 6.78095 6.23268
9 2 6.23109 7.50358 5.96229
1 1 6.84868 7.95072 8.14636
3 1 8.30456 7.1209 6.91317
2 1 8.34792 7.87515 8.01857
6 2 6.53166 7.4581 9.04646
5 2 6.25371 8.90105 8.13385
ITEM: TIMESTEP
600
ITEM: NUMBER OF ATOMS
10
ITEM: BOX BOUNDS pp pp pp
0.0000000000000000e+00 1.5000000000000000e+01
0.0000000000000000e+00 1.5000000000000000e+01
0.0000000000000000e+00 1.5000000000000000e+01
ITEM: ATOMS id type x y z
10 2 6.23036 6.21439 6.78429
4 1 6.83468 7.12368 6.86441
7 2 9.02003 8.41026 8.72678
8 2 9.24473 6.7988 6.45402
9 2 6.6176 7.70347 5.92349
1 1 6.75703 7.88161 8.05335
3 1 8.36071 7.06787 7.0131
2 1 8.27029 7.91509 8.07678
6 2 6.46382 7.32548 8.90663
5 2 6.21116 8.83816 8.04796
ITEM: TIMESTEP
700
ITEM: NUMBER OF ATOMS
10
ITEM: BOX BOUNDS pp pp pp
0.0000000000000000e+00 1.5000000000000000e+01
0.0000000000000000e+00 1.5000000000000000e+01
0.0000000000000000e+00 1.5000000000000000e+01
ITEM: ATOMS id type x y z
10 2 6.46195 5.99653 6.99825
4 1 6.93002 7.07069 6.74725
7 2 8.8165 8.12552 9.09448
8 2 9.31737 7.16081 6.40377
9 2 6.58917 7.42527 5.74577
1 1 6.69189 7.91167 7.97693
3 1 8.44051 7.21192 7.05072
2 1 8.20102 7.81728 8.23549
6 2 5.98703 7.52652 8.83112
5 2 6.3714 8.91595 7.75327
ITEM: TIMESTEP
800
ITEM: NUMBER OF ATOMS
10
ITEM: BOX BOUNDS pp pp pp
0.0000000000000000e+00 1.5000000000000000e+01
0.0000000000000000e+00 1.5000000000000000e+01
0.0000000000000000e+00 1.5000000000000000e+01
ITEM: ATOMS id type x y z
10 2 6.54204 6.19926 6.62174
4 1 7.02733 7.13669 6.67866
7 2 8.57627 8.31092 9.12003
8 2 9.4352 6.82217 6.79375
9 2 6.94399 7.53891 5.68069
1 1 6.65881 7.83883 7.90604
3 1 8.46408 7.16345 7.21431
2 1 8.08953 7.93626 8.24445
6 2 6.12828 7.16079 8.55476
5 2 6.05979 8.7365 7.85723
ITEM: TIMESTEP
900
ITEM: NUMBER OF ATOMS
10
ITEM: BOX BOUNDS pp pp pp
0.0000000000000000e+00 1.5000000000000000e+01
0.0000000000000000e+00 1.5000000000000000e+01
0.0000000000000000e+00 1.5000000000000000e+01
ITEM: ATOMS id type x y z
10 2 6.67645 6.14824 6.41915
4 1 7.12826 7.09005 6.61777
7 2 8.35678 8.40077 9.29018
8 2 9.48447 6.9572 6.96359
9 2 7.18132 7.69545 5.67579
1 1 6.58767 7.79387 7.78717
3 1 8.50701 7.21733 7.31186
2 1 8.00966 7.90235 8.35921
6 2 5.94004 7.16816 8.41256
5 2 6.08939 8.82849 7.6717
ITEM: TIMESTEP
1000
ITEM: NUMBER OF ATOMS
10
ITEM: BOX BOUNDS pp pp pp
0.0000000000000000e+00 1.5000000000000000e+01
0.0000000000000000e+00 1.5000000000000000e+01
0.0000000000000000e+00 1.5000000000000000e+01
ITEM: ATOMS id type x y z
10 2 6.89186 6.0197 6.4979
4 1 7.25081 7.09346 6.59067
7 2 8.16487 8.20397 9.43064
8 2 9.58232 7.15483 7.05577
9 2 7.22294 7.5181 5.5529
1 1 6.56103 7.80142 7.71374
3 1 8.52132 7.3117 7.35573
2 1 7.89669 7.83693 8.44622
6 2 5.70321 7.23716 8.23386
5 2 6.17973 8.8252 7.47973
ITEM: TIMESTEP
1100
ITEM: NUMBER OF ATOMS
10
ITEM: BOX BOUNDS pp pp pp
0.0000000000000000e+00 1.5000000000000000e+01
0.0000000000000000e+00 1.5000000000000000e+01
0.0000000000000000e+00 1.5000000000000000e+01
ITEM: ATOMS id type x y z
10 2 7.06702 6.15799 6.27614
4 1 7.31817 7.1756 6.57593
7 2 8.06507 8.36733 9.38077
8 2 9.55661 6.89441 7.36784
9 2 7.43918 7.70911 5.66618
1 1 6.53951 7.74014 7.64301
3 1 8.53233 7.24392 7.47216
2 1 7.80357 7.92307 8.40908
6 2 5.90239 7.01957 8.12593
5 2 5.93223 8.57517 7.47107
ITEM: TIMESTEP
1200
ITEM: NUMBER OF ATOMS
10
ITEM: BOX BOUNDS pp pp pp
0.0000000000000000e+00 1.5000000000000000e+01
0.0000000000000000e+00 1.5000000000000000e+01
0.0000000000000000e+00 1.5000000000000000e+01
ITEM: ATOMS id type x y z
10 2 7.25502 6.01444 6.39011
4 1 7.41481 7.12727 6.53749
7 2 7.85041 8.19893 9.5183
8 2 9.64413 7.16002 7.42319
9 2 7.50826 7.66974 5.49585
1 1 6.47587 7.75359 7.56944
3 1 8.56258 7.35128 7.54141
2 1 7.7433 7.82056 8.49482
6 2 5.65869 7.1027 7.93443
5 2 6.02807 8.75796 7.26825
ITEM: TIMESTEP
1300
ITEM: NUMBER OF ATOMS
10
ITEM: BOX BOUNDS pp pp pp
0.0000000000000000e+00 1.5000000000000000e+01
0.0000000000000000e+00 1.5000000000000000e+01
0.0000000000000000e+00 1.5000000000000000e+01
ITEM: ATOMS id type x y z
10 2 7.49129 6.13308 6.2531
4 1 7.52718 7.16482 6.57826
7 2 7.71077 8.24759 9.50685
8 2 9.57572 7.26962 7.67629
9 2 7.65412 7.71084 5.61356
1 1 6.52273 7.68563 7.4328
3 1 8.50224 7.3809 7.63294
2 1 7.6003 7.81446 8.52935
6 2 5.73822 6.96612 7.6684
5 2 6.03914 8.61787 7.13074
ITEM: TIMESTEP
1400
ITEM: NUMBER OF ATOMS
10
ITEM: BOX BOUNDS pp pp pp
0.0000000000000000e+00 1.5000000000000000e+01
0.0000000000000000e+00 1.5000000000000000e+01
0.0000000000000000e+00 1.5000000000000000e+01
ITEM: ATOMS id type x y z
10 2 7.72703 6.23378 6.03125
4 1 7.67905 7.21957 6.52378
7 2 7.49203 8.37075 9.52804
8 2 9.56936 7.15333 7.96924
9 2 7.85815 7.92515 5.7683
1 1 6.48591 7.60451 7.35738
3 1 8.50714 7.3598 7.79813
2 1 7.47551 7.87319 8.51011
6 2 5.71399 6.76431 7.46572
5 2 5.87776 8.4303 6.99009
ITEM: TIMESTEP
1500
ITEM: NUMBER OF ATOMS
10
ITEM: BOX BOUNDS pp pp pp
0.0000000000000000e+00 1.5000000000000000e+01
0.0000000000000000e+00 1.5000000000000000e+01
0.0000000000000000e+00 1.5000000000000000e+01
ITEM: ATOMS id type x y z
10 2 7.87685 6.12747 6.41918
4 1 7.75537 7.21271 6.56696
7 2 7.21171 7.92875 9.56024
8 2 9.56156 7.43324 8.14203
9 2 8.0805 7.80696 5.67237
1 1 6.48776 7.59187 7.23846
3 1 8.49948 7.52982 7.84873
2 1 7.34891 7.73886 8.53358
6 2 5.66577 6.84455 7.12768
5 2 6.17847 8.63944 6.84111
ITEM: TIMESTEP
1600
ITEM: NUMBER OF ATOMS
10
ITEM: BOX BOUNDS pp pp pp
0.0000000000000000e+00 1.5000000000000000e+01
0.0000000000000000e+00 1.5000000000000000e+01
0.0000000000000000e+00 1.5000000000000000e+01
ITEM: ATOMS id type x y z
10 2 8.09253 6.32119 6.13129
4 1 7.85587 7.25511 6.62596
7 2 7.03543 8.14426 9.54328
8 2 9.41328 7.24611 8.3521
9 2 8.16099 7.97927 5.8281
1 1 6.55206 7.52348 7.13692
3 1 8.44555 7.50473 7.94969
2 1 7.25441 7.79589 8.49321
6 2 5.83921 6.71088 7.08679
5 2 5.93515 8.34302 6.71277
ITEM: TIMESTEP
1700
ITEM: NUMBER OF ATOMS
10
ITEM: BOX BOUNDS pp pp pp
0.0000000000000000e+00 1.5000000000000000e+01
0.0000000000000000e+00 1.5000000000000000e+01
0.0000000000000000e+00 1.5000000000000000e+01
ITEM: ATOMS id type x y z
10 2 8.28492 6.28 6.17772
4 1 7.97395 7.27087 6.60838
7 2 6.82892 8.08514 9.4479
8 2 9.36719 7.42169 8.49005
9 2 8.26858 8.1267 5.95904
1 1 6.52758 7.48834 7.08501
3 1 8.39215 7.5378 8.03569
2 1 7.16929 7.75361 8.48761
6 2 5.84041 6.626 6.89684
5 2 6.15618 8.37671 6.61729
ITEM: TIMESTEP
1800
ITEM: NUMBER OF ATOMS
10
ITEM: BOX BOUNDS pp pp pp
0.0000000000000000e+00 1.5000000000000000e+01
0.0000000000000000e+00 1.5000000000000000e+01
0.0000000000000000e+00 1.5000000000000000e+01
ITEM: ATOMS id type x y z
10 2 8.40236 6.26494 6.4838
4 1 7.99965 7.3141 6.65822
7 2 6.61237 7.68198 9.4937
8 2 9.32234 7.62078 8.6165
9 2 8.4954 7.88577 5.88298
1 1 6.64341 7.47254 6.97145
3 1 8.32978 7.65613 8.104
2 1 7.03765 7.65561 8.46968
6 2 5.8897 6.73829 6.65172
5 2 6.33891 8.43796 6.54019
ITEM: TIMESTEP
1900
ITEM: NUMBER OF ATOMS
10
ITEM: BOX BOUNDS pp pp pp
0.0000000000000000e+00 1.5000000000000000e+01
0.0000000000000000e+00 1.5000000000000000e+01
0.0000000000000000e+00 1.5000000000000000e+01
ITEM: ATOMS id type x y z
10 2 8.72976 6.52164 6.35127
4 1 8.18508 7.38582 6.75176
7 2 6.32453 7.93739 9.30335
8 2 9.05215 7.31879 8.83912
9 2 8.47977 8.31658 6.1592
1 1 6.69165 7.39069 6.89582
3 1 8.25729 7.56821 8.20233
2 1 6.90041 7.75566 8.38501
6 2 6.24473 6.41363 6.70005
5 2 6.08645 8.10966 6.12644
ITEM: TIMESTEP
2000
ITEM: NUMBER OF ATOMS
10
ITEM: BOX BOUNDS pp pp pp
0.0000000000000000e+00 1.5000000000000000e+01
0.0000000000000000e+00 1.5000000000000000e+01
0.0000000000000000e+00 1.5000000000000000e+01
ITEM: ATOMS id type x y z
10 2 8.88712 6.60602 6.59093
4 1 8.23985 7.39225 6.82847
7 2 6.08333 7.73617 9.10315
8 2 8.98867 7.8835 9.05277
9 2 8.60424 8.25746 6.31319
1 1 6.7635 7.37852 6.75636
3 1 8.1531 7.65002 8.30624
2 1 6.81616 7.58023 8.30712
6 2 6.27083 6.4495 6.40552
5 2 6.45419 8.28124 6.23433
ITEM: TIMESTEP
2100
ITEM: NUMBER OF ATOMS
10
ITEM: BOX BOUNDS pp pp pp
0.0000000000000000e+00 1.5000000000000000e+01
0.0000000000000000e+00 1.5000000000000000e+01
0.0000000000000000e+00 1.5000000000000000e+01
ITEM: ATOMS id type x y z
10 2 8.90715 6.50557 6.80547
4 1 8.31157 7.47081 6.88297
7 2 5.93551 7.42721 8.97073
8 2 8.74974 7.96156 9.11284
9 2 8.82898 8.23181 6.31467
1 1 6.86517 7.3696 6.72847
3 1 8.0654 7.70335 8.36779
2 1 6.73848 7.53073 8.24552
6 2 6.36979 6.49017 6.23069
5 2 6.4491 8.15676 6.10605
ITEM: TIMESTEP
2200
ITEM: NUMBER OF ATOMS
10
ITEM: BOX BOUNDS pp pp pp
0.0000000000000000e+00 1.5000000000000000e+01
0.0000000000000000e+00 1.5000000000000000e+01
0.0000000000000000e+00 1.5000000000000000e+01
ITEM: ATOMS id type x y z
10 2 9.18915 6.73658 6.71396
4 1 8.36844 7.5465 6.96525
7 2 5.77117 7.59796 8.81181
8 2 8.64529 7.65833 9.27069
9 2 8.79031 8.5089 6.50222
1 1 6.92078 7.30411 6.69199
3 1 7.96899 7.62532 8.37944
2 1 6.65497 7.60891 8.15916
6 2 6.77006 6.24182 6.51114
5 2 6.47897 7.96738 5.90406
ITEM: TIMESTEP
2300
ITEM: NUMBER OF ATOMS
10
ITEM: BOX BOUNDS pp pp pp
0.0000000000000000e+00 1.5000000000000000e+01
0.0000000000000000e+00 1.5000000000000000e+01
0.0000000000000000e+00 1.5000000000000000e+01
ITEM: ATOMS id type x y z
10 2 9.10927 6.72939 6.92978
4 1 8.41632 7.51164 7.03793
7 2 5.66067 7.35235 8.68089
8 2 8.41831 8.18585 9.26753
9 2 8.89204 8.43393 6.63539
1 1 7.051 7.30556 6.61732
3 1 7.88748 7.75846 8.42396
2 1 6.58204 7.41193 8.12436
6 2 6.76361 6.47664 6.09563
5 2 6.65905 8.11634 6.05837
ITEM: TIMESTEP
2400
ITEM: NUMBER OF ATOMS
10
ITEM: BOX BOUNDS pp pp pp
0.0000000000000000e+00 1.5000000000000000e+01
0.0000000000000000e+00 1.5000000000000000e+01
0.0000000000000000e+00 1.5000000000000000e+01
ITEM: ATOMS id type x y z
10 2 9.20457 6.81241 7.05427
4 1 8.4456 7.6139 7.17272
7 2 5.5609 7.26002 8.43872
8 2 8.1999 8.08053 9.45219
9 2 8.96794 8.56866 6.89338
1 1 7.08209 7.24719 6.57865
3 1 7.78306 7.76763 8.48296
2 1 6.57968 7.42056 7.96774
6 2 7.08937 6.19752 6.05478
5 2 6.75869 8.00515 5.78325
ITEM: TIMESTEP
2500
ITEM: NUMBER OF ATOMS
10
ITEM: BOX BOUNDS pp pp pp
0.0000000000000000e+00 1.5000000000000000e+01
0.0000000000000000e+00 1.5000000000000000e+01
0.0000000000000000e+00 1.5000000000000000e+01
ITEM: ATOMS id type x y z
10 2 9.32356 7.03995 7.25418
4 1 8.44772 7.74098 7.24601
7 2 5.49164 7.29095 8.17714
8 2 7.93921 7.76984 9.52837
9 2 8.8815 8.68568 7.12367
1 1 7.32704 7.23778 6.55186
3 1 7.60764 7.69088 8.50323
2 1 6.46433 7.44974 7.84063
6 2 7.4364 6.07565 6.38502
5 2 6.97129 7.64172 5.57026
ITEM: TIMESTEP
2600
ITEM: NUMBER OF ATOMS
10
ITEM: BOX BOUNDS pp pp pp
0.0000000000000000e+00 1.5000000000000000e+01
0.0000000000000000e+00 1.5000000000000000e+01
0.0000000000000000e+00 1.5000000000000000e+01
ITEM: ATOMS id type x y z
10 2 9.24807 6.95488 7.5556
4 1 8.52793 7.72933 7.41192
7 2 5.36716 6.99351 7.98519
8 2 7.4807 8.34112 9.39927
9 2 9.02168 8.68359 7.22474
1 1 7.42036 7.24619 6.52136
3 1 7.45251 7.80385 8.45283
2 1 6.47924 7.21434 7.7727
6 2 7.58341 6.27496 6.00345
5 2 7.14277 8.00972 5.7679
ITEM: TIMESTEP
2700
ITEM: NUMBER OF ATOMS
10
ITEM: BOX BOUNDS pp pp pp
0.0000000000000000e+00 1.5000000000000000e+01
0.0000000000000000e+00 1.5000000000000000e+01
0.0000000000000000e+00 1.5000000000000000e+01
ITEM: ATOMS id type x y z
10 2 9.39472 7.21217 7.69566
4 1 8.47059 7.7812 7.50511
7 2 5.41283 7.12255 7.73029
8 2 7.30511 8.14714 9.49697
9 2 8.88359 8.85006 7.33639
1 1 7.52083 7.20983 6.51373
3 1 7.35848 7.75069 8.49735
2 1 6.45965 7.24702 7.61192
6 2 7.84668 6.22113 6.29971
5 2 7.42375 7.73446 5.56126
ITEM: TIMESTEP
2800
ITEM: NUMBER OF ATOMS
10
ITEM: BOX BOUNDS pp pp pp
0.0000000000000000e+00 1.5000000000000000e+01
0.0000000000000000e+00 1.5000000000000000e+01
0.0000000000000000e+00 1.5000000000000000e+01
ITEM: ATOMS id type x y z
10 2 9.28987 7.15405 7.93584
4 1 8.43331 7.85463 7.54541
7 2 5.37828 6.95532 7.56855
8 2 7.11244 8.05456 9.56496
9 2 8.81672 8.91401 7.4478
1 1 7.67259 7.2112 6.52638
3 1 7.25468 7.73309 8.49758
2 1 6.45137 7.25823 7.50953
6 2 8.04753 6.18312 6.37064
5 2 7.60745 7.61605 5.52781
ITEM: TIMESTEP
2900
ITEM: NUMBER OF ATOMS
10
ITEM: BOX BOUNDS pp pp pp
0.0000000000000000e+00 1.5000000000000000e+01
0.0000000000000000e+00 1.5000000000000000e+01
0.0000000000000000e+00 1.5000000000000000e+01
ITEM: ATOMS id type x y z
10 2 9.1786 7.13295 8.14077
4 1 8.43034 7.86364 7.69152
7 2 5.47324 6.76233 7.445
8 2 6.84971 8.33172 9.29122
9 2 8.92736 8.81396 7.60045
1 1 7.73552 7.20443 6.51081
3 1 7.13857 7.81065 8.42584
2 1 6.49793 7.12466 7.46259
6 2 8.26842 6.27046 6.1903
5 2 7.61242 7.88825 5.67669
ITEM: TIMESTEP
3000
ITEM: NUMBER OF ATOMS
10
ITEM: BOX BOUNDS pp pp pp
0.0000000000000000e+00 1.5000000000000000e+01
0.0000000000000000e+00 1.5000000000000000e+01
0.0000000000000000e+00 1.5000000000000000e+01
ITEM: ATOMS id type x y z
10 2 9.24008 7.5273 8.20554
4 1 8.39402 7.8741 7.75124
7 2 5.4388 7.00165 7.11761
8 2 6.72281 8.12894 9.3833
9 2 8.59063 8.95709 7.62495
1 1 7.85239 7.19752 6.60754
3 1 7.07197 7.71623 8.38856
2 1 6.4907 7.17734 7.33918
6 2 8.34469 6.2433 6.49667
5 2 7.93255 7.57056 5.54178
ITEM: TIMESTEP
3100
ITEM: NUMBER OF ATOMS
10
ITEM: BOX BOUNDS pp pp pp
0.0000000000000000e+00 1.5000000000000000e+01
0.0000000000000000e+00 1.5000000000000000e+01
0.0000000000000000e+00 1.5000000000000000e+01
ITEM: ATOMS id type x y z
10 2 9.0691 7.32478 8.4955
4 1 8.36944 7.91858 7.83753
7 2 5.54699 6.67151 7.00814
8 2 6.54072 8.18853 9.21377
9 2 8.6725 8.99141 7.81375
1 1 7.94783 7.20027 6.60702
3 1 6.93947 7.79185 8.33911
2 1 6.52873 7.08559 7.24765
6 2 8.5714 6.22234 6.53896
5 2 8.01049 7.84369 5.63104
ITEM: TIMESTEP
3200
ITEM: NUMBER OF ATOMS
10
ITEM: BOX BOUNDS pp pp pp
0.0000000000000000e+00 1.5000000000000000e+01
0.0000000000000000e+00 1.5000000000000000e+01
0.0000000000000000e+00 1.5000000000000000e+01
ITEM: ATOMS id type x y z
10 2 8.89669 7.38117 8.65066
4 1 8.24709 7.97819 7.93213
7 2 5.6689 6.5218 6.81899
8 2 6.2903 8.18532 9.16702
9 2 8.68325 8.93713 7.98771
1 1 8.08111 7.19479 6.7006
3 1 6.84347 7.78688 8.24097
2 1 6.59835 7.05708 7.1138
6 2 8.72948 6.32615 6.50546
5 2 8.23523 7.76674 5.83413
ITEM: TIMESTEP
3300
ITEM: NUMBER OF ATOMS
10
ITEM: BOX BOUNDS pp pp pp
0.0000000000000000e+00 1.5000000000000000e+01
0.0000000000000000e+00 1.5000000000000000e+01
0.0000000000000000e+00 1.5000000000000000e+01
ITEM: ATOMS id type x y z
10 2 8.82848 7.63733 8.85241
4 1 8.19894 7.97485 8.02332
7 2 5.82033 6.73296 6.42047
8 2 6.12411 7.94809 9.04488
9 2 8.32482 9.08919 7.85337
1 1 8.18088 7.19913 6.77093
3 1 6.75492 7.72244 8.19452
2 1 6.64637 7.08206 7.0025
6 2 8.72303 6.28438 6.88566
5 2 8.61653 7.65712 5.8846
ITEM: TIMESTEP
3400
ITEM: NUMBER OF ATOMS
10
ITEM: BOX BOUNDS pp pp pp
0.0000000000000000e+00 1.5000000000000000e+01
0.0000000000000000e+00 1.5000000000000000e+01
0.0000000000000000e+00 1.5000000000000000e+01
ITEM: ATOMS id type x y z
10 2 8.63731 7.53987 9.02206
4 1 8.16462 7.95205 8.11214
7 2 5.94654 6.45087 6.36133
8 2 5.93786 8.17963 8.76461
9 2 8.48015 9.08971 8.11203
1 1 8.24305 7.24635 6.83062
3 1 6.64728 7.77135 8.04688
2 1 6.732 6.97318 6.98544
6 2 8.89513 6.34137 6.81787
5 2 8.50524 7.96096 5.96065
ITEM: TIMESTEP
3500
ITEM: NUMBER OF ATOMS
10
ITEM: BOX BOUNDS pp pp pp
0.0000000000000000e+00 1.5000000000000000e+01
0.0000000000000000e+00 1.5000000000000000e+01
0.0000000000000000e+00 1.5000000000000000e+01
ITEM: ATOMS id type x y z
10 2 8.49912 7.61564 9.07753
4 1 8.08454 8.04667 8.14845
7 2 6.10306 6.49721 6.23755
8 2 5.84023 7.95293 8.6985
9 2 8.35141 9.0439 8.10366
1 1 8.27215 7.22871 6.94119
3 1 6.65798 7.6967 8.01515
2 1 6.76693 7.02853 6.84184
6 2 8.92153 6.33261 6.95456
5 2 8.71904 7.77405 6.13744
ITEM: TIMESTEP
3600
ITEM: NUMBER OF ATOMS
10
ITEM: BOX BOUNDS pp pp pp
0.0000000000000000e+00 1.5000000000000000e+01
0.0000000000000000e+00 1.5000000000000000e+01
0.0000000000000000e+00 1.5000000000000000e+01
ITEM: ATOMS id type x y z
10 2 8.33166 7.72333 9.19236
4 1 8.0105 8.03674 8.19627
7 2 6.19476 6.44952 6.0324
8 2 5.69466 7.87485 8.58565
9 2 8.27454 9.08454 8.15861
1 1 8.38213 7.23979 6.9811
3 1 6.57287 7.6771 7.95638
2 1 6.84237 7.03687 6.78241
6 2 8.89643 6.28425 7.22293
5 2 8.88473 7.86046 6.20009
ITEM: TIMESTEP
3700
ITEM: NUMBER OF ATOMS
10
ITEM: BOX BOUNDS pp pp pp
0.0000000000000000e+00 1.5000000000000000e+01
0.0000000000000000e+00 1.5000000000000000e+01
0.0000000000000000e+00 1.5000000000000000e+01
ITEM: ATOMS id type x y z
10 2 8.06485 7.54871 9.32025
4 1 7.93232 7.94641 8.29959
7 2 6.43438 6.32032 6.07102
8 2 5.57538 8.13459 8.13454
9 2 8.18381 9.09157 8.21224
1 1 8.40103 7.31114 7.09562
3 1 6.52035 7.75086 7.77405
2 1 6.95086 6.90446 6.78421
6 2 9.20045 6.56472 7.07679
5 2 8.83772 8.08284 6.35329
ITEM: TIMESTEP
3800
ITEM: NUMBER OF ATOMS
10
ITEM: BOX BOUNDS pp pp pp
0.0000000000000000e+00 1.5000000000000000e+01
0.0000000000000000e+00 1.5000000000000000e+01
0.0000000000000000e+00 1.5000000000000000e+01
ITEM: ATOMS id type x y z
10 2 7.99818 7.86367 9.3839
4 1 7.80237 8.03228 8.30011
7 2 6.62543 6.45492 5.82678
8 2 5.4896 7.68629 8.15624
9 2 7.99228 9.13617 8.21308
1 1 8.45406 7.25695 7.20123
3 1 6.50235 7.60532 7.71126
2 1 7.06029 7.07129 6.64258
6 2 9.0104 6.36774 7.51572
5 2 9.09362 7.91615 6.66218
ITEM: TIMESTEP
3900
ITEM: NUMBER OF ATOMS
10
ITEM: BOX BOUNDS pp pp pp
0.0000000000000000e+00 1.5000000000000000e+01
0.0000000000000000e+00 1.5000000000000000e+01
0.0000000000000000e+00 1.5000000000000000e+01
ITEM: ATOMS id type x y z
10 2 7.76599 7.59839 9.36503
4 1 7.72586 8.05466 8.34852
7 2 6.83276 6.319 5.79081
8 2 5.44202 7.7104 7.85628
9 2 7.89328 9.08769 8.38322
1 1 8.50731 7.33577 7.3327
3 1 6.46451 7.61955 7.58413
2 1 7.13141 7.00599 6.58599
6 2 9.07983 6.43112 7.61637
5 2 9.13557 7.97761 6.7693
ITEM: TIMESTEP
4000
ITEM: NUMBER OF ATOMS
10
ITEM: BOX BOUNDS pp pp pp
0.0000000000000000e+00 1.5000000000000000e+01
0.0000000000000000e+00 1.5000000000000000e+01
0.0000000000000000e+00 1.5000000000000000e+01
ITEM: ATOMS id type x y z
10 2 7.63098 7.628 9.41642
4 1 7.63886 7.97185 8.37709
7 2 6.97986 6.36037 5.75375
8 2 5.3606 7.87114 7.55553
9 2 7.80499 9.10354 8.43394
1 1 8.4884 7.35054 7.35216
3 1 6.47432 7.65263 7.50311
2 1 7.23326 6.94376 6.63639
6 2 9.21382 6.56462 7.67834
5 2 9.1247 8.17962 6.8385
ITEM: TIMESTEP
4100
ITEM: NUMBER OF ATOMS
10
ITEM: BOX BOUNDS pp pp pp
0.0000000000000000e+00 1.5000000000000000e+01
0.0000000000000000e+00 1.5000000000000000e+01
0.0000000000000000e+00 1.5000000000000000e+01
ITEM: ATOMS id type x y z
10 2 7.5385 7.79797 9.40731
4 1 7.57768 8.02494 8.3614
7 2 7.09229 6.55445 5.5893
8 2 5.39643 7.60796 7.57767
9 2 7.68014 9.12762 8.29926
1 1 8.51718 7.34332 7.4575
3 1 6.43274 7.54334 7.47425
2 1 7.31511 7.03818 6.55816
6 2 9.02174 6.43045 7.80864
5 2 9.33861 8.00283 7.09895
ITEM: TIMESTEP
4200
ITEM: NUMBER OF ATOMS
10
ITEM: BOX BOUNDS pp pp pp
0.0000000000000000e+00 1.5000000000000000e+01
0.0000000000000000e+00 1.5000000000000000e+01
0.0000000000000000e+00 1.5000000000000000e+01
ITEM: ATOMS id type x y z
10 2 7.2661 7.36936 9.26236
4 1 7.49836 8.03276 8.37708
7 2 7.32871 6.2833 5.71393
8 2 5.33216 7.67525 7.2704
9 2 7.5574 9.07675 8.60585
1 1 8.54656 7.41488 7.5483
3 1 6.47221 7.58828 7.33013
2 1 7.37139 6.9891 6.56179
6 2 9.08256 6.5346 7.93929
5 2 9.22591 8.13059 7.19333
ITEM: TIMESTEP
4300
ITEM: NUMBER OF ATOMS
10
ITEM: BOX BOUNDS pp pp pp
0.0000000000000000e+00 1.5000000000000000e+01
0.0000000000000000e+00 1.5000000000000000e+01
0.0000000000000000e+00 1.5000000000000000e+01
ITEM: ATOMS id type x y z
10 2 7.07545 7.58945 9.43809
4 1 7.33926 7.94178 8.36615
7 2 7.61003 6.51262 5.63779
8 2 5.46093 7.69295 7.03919
9 2 7.40921 9.09411 8.57815
1 1 8.51517 7.43001 7.6167
3 1 6.48637 7.54947 7.2245
2 1 7.52652 6.99912 6.57671
6 2 9.07265 6.63039 8.13448
5 2 9.29185 8.17823 7.35697
ITEM: TIMESTEP
4400
ITEM: NUMBER OF ATOMS
10
ITEM: BOX BOUNDS pp pp pp
0.0000000000000000e+00 1.5000000000000000e+01
0.0000000000000000e+00 1.5000000000000000e+01
0.0000000000000000e+00 1.5000000000000000e+01
ITEM: ATOMS id type x y z
10 2 6.92728 7.58283 9.30558
4 1 7.25921 7.96389 8.37767
7 2 7.93323 6.71261 5.46153
8 2 5.42993 7.52735 6.86236
9 2 7.22694 9.09743 8.33883
1 1 8.47073 7.4367 7.78789
3 1 6.50748 7.45337 7.1491
2 1 7.6655 7.08053 6.51751
6 2 8.86972 6.57136 8.30229
5 2 9.31943 8.12144 7.62537
ITEM: TIMESTEP
4500
ITEM: NUMBER OF ATOMS
10
ITEM: BOX BOUNDS pp pp pp
0.0000000000000000e+00 1.5000000000000000e+01
0.0000000000000000e+00 1.5000000000000000e+01
0.0000000000000000e+00 1.5000000000000000e+01
ITEM: ATOMS id type x y z
10 2 6.80714 7.26273 9.13339
4 1 7.14131 7.9493 8.35279
7 2 8.1117 6.52641 5.7145
8 2 5.52505 7.63473 6.5868
9 2 6.9865 8.94376 8.6967
1 1 8.47172 7.47871 7.85309
3 1 6.54247 7.51878 6.99678
2 1 7.76459 7.03013 6.57084
6 2 9.00908 6.67552 8.49474
5 2 9.16399 8.31538 7.62192
ITEM: TIMESTEP
4600
ITEM: NUMBER OF ATOMS
10
ITEM: BOX BOUNDS pp pp pp
0.0000000000000000e+00 1.5000000000000000e+01
0.0000000000000000e+00 1.5000000000000000e+01
0.0000000000000000e+00 1.5000000000000000e+01
ITEM: ATOMS id type x y z
10 2 6.65229 7.41105 9.21404
4 1 7.07215 7.89637 8.29973
7 2 8.33183 6.74201 5.64655
8 2 5.61319 7.38321 6.53031
9 2 6.94416 8.96475 8.48184
1 1 8.41931 7.50716 7.89919
3 1 6.59424 7.46715 6.9637
2 1 7.8276 7.10851 6.59935
6 2 8.79555 6.63595 8.53302
5 2 9.30715 8.20788 7.91147
ITEM: TIMESTEP
4700
ITEM: NUMBER OF ATOMS
10
ITEM: BOX BOUNDS pp pp pp
0.0000000000000000e+00 1.5000000000000000e+01
0.0000000000000000e+00 1.5000000000000000e+01
0.0000000000000000e+00 1.5000000000000000e+01
ITEM: ATOMS id type x y z
10 2 6.55162 7.28359 9.08269
4 1 7.01347 7.88897 8.32768
7 2 8.46281 6.79732 5.75388
8 2 5.68069 7.44246 6.34164
9 2 6.78583 8.98787 8.51719
1 1 8.39626 7.51759 7.99279
3 1 6.64019 7.44907 6.8697
2 1 7.9063 7.09693 6.59069
6 2 8.75047 6.70147 8.56352
5 2 9.15525 8.29202 7.94496
ITEM: TIMESTEP
4800
ITEM: NUMBER OF ATOMS
10
ITEM: BOX BOUNDS pp pp pp
0.0000000000000000e+00 1.5000000000000000e+01
0.0000000000000000e+00 1.5000000000000000e+01
0.0000000000000000e+00 1.5000000000000000e+01
ITEM: ATOMS id type x y z
10 2 6.47646 7.11649 8.99616
4 1 6.91383 7.88343 8.25749
7 2 8.65253 6.78794 5.80438
8 2 5.83057 7.5267 6.10238
9 2 6.57857 8.8813 8.66178
1 1 8.34512 7.5183 8.05209
3 1 6.70509 7.44747 6.80071
2 1 8.00107 7.10551 6.6631
6 2 8.82156 6.79368 8.72227
5 2 8.97367 8.38557 7.9617
ITEM: TIMESTEP
4900
ITEM: NUMBER OF ATOMS
10
ITEM: BOX BOUNDS pp pp pp
0.0000000000000000e+00 1.5000000000000000e+01
0.0000000000000000e+00 1.5000000000000000e+01
0.0000000000000000e+00 1.5000000000000000e+01
ITEM: ATOMS id type x y z
10 2 6.25779 7.21822 8.97188
4 1 6.85464 7.83706 8.19373
7 2 8.86124 7.08099 5.89258
8 2 5.99473 7.12461 6.04126
9 2 6.60905 8.88267 8.35616
1 1 8.27388 7.57816 8.11723
3 1 6.72886 7.37687 6.76291
2 1 8.11531 7.2062 6.67123
6 2 8.47219 6.65029 8.7247
5 2 9.09284 8.2735 8.43184
ITEM: TIMESTEP
5000
ITEM: NUMBER OF ATOMS
10
ITEM: BOX BOUNDS pp pp pp
0.0000000000000000e+00 1.5000000000000000e+01
0.0000000000000000e+00 1.5000000000000000e+01
0.0000000000000000e+00 1.5000000000000000e+01
ITEM: ATOMS id type x y z
10 2 6.28054 6.98038 8.69338
4 1 6.75206 7.75612 8.1729
7 2 8.98007 6.91036 6.06781
8 2 6.10002 7.36255 5.7565
9 2 6.34015 8.71262 8.51373
1 1 8.22344 7.62369 8.22207
3 1 6.86164 7.43492 6.61395
2 1 8.16827 7.17355 6.76295
6 2 8.48863 6.79953 8.88893
5 2 8.9021 8.52488 8.33749
ITEM: TIMESTEP
5100
ITEM: NUMBER OF ATOMS
10
ITEM: BOX BOUNDS pp pp pp
0.0000000000000000e+00 1.5000000000000000e+01
0.0000000000000000e+00 1.5000000000000000e+01
0.0000000000000000e+00 1.5000000000000000e+01
ITEM: ATOMS id type x y z
10 2 6.14679 6.97271 8.59409
4 1 6.6698 7.74145 8.06474
7 2 9.12152 7.17099 6.197
8 2 6.43684 7.39502 5.69978
9 2 6.22414 8.68175 8.36324
1 1 8.13583 7.56078 8.26477
3 1 6.9524 7.35334 6.59183
2 1 8.24907 7.26938 6.82088
6 2 8.46319 6.9411 9.12433
5 2 8.68893 8.50876 8.45723
ITEM: TIMESTEP
5200
ITEM: NUMBER OF ATOMS
10
ITEM: BOX BOUNDS pp pp pp
0.0000000000000000e+00 1.5000000000000000e+01
0.0000000000000000e+00 1.5000000000000000e+01
0.0000000000000000e+00 1.5000000000000000e+01
ITEM: ATOMS id type x y z
10 2 5.89055 6.96192 8.55162
4 1 6.63986 7.6898 7.98869
7 2 9.29361 7.37319 6.3365
8 2 6.56412 7.03225 5.53048
9 2 6.21985 8.70298 8.12941
1 1 8.03406 7.62903 8.35902
3 1 7.04285 7.30575 6.54491
2 1 8.34299 7.37582 6.87863
6 2 8.18696 6.68143 8.93952
5 2 8.61035 8.46588 8.77396
ITEM: TIMESTEP
5300
ITEM: NUMBER OF ATOMS
10
ITEM: BOX BOUNDS pp pp pp
0.0000000000000000e+00 1.5000000000000000e+01
0.0000000000000000e+00 1.5000000000000000e+01
0.0000000000000000e+00 1.5000000000000000e+01
ITEM: ATOMS id type x y z
10 2 6.08242 6.64006 8.27815
4 1 6.56747 7.5848 7.91147
7 2 9.3861 7.07285 6.57367
8 2 6.80466 7.25638 5.47534
9 2 5.89119 8.4542 8.17239
1 1 7.95648 7.68627 8.38975
3 1 7.13146 7.44558 6.46798
2 1 8.40861 7.31901 6.99267
6 2 8.18628 6.96416 9.11179
5 2 8.3893 8.61841 8.70651
ITEM: TIMESTEP
5400
ITEM: NUMBER OF ATOMS
10
ITEM: BOX BOUNDS pp pp pp
0.0000000000000000e+00 1.5000000000000000e+01
0.0000000000000000e+00 1.5000000000000000e+01
0.0000000000000000e+00 1.5000000000000000e+01
ITEM: ATOMS id type x y z
10 2 5.88994 6.81177 8.20221
4 1 6.53884 7.59116 7.8073
7 2 9.48679 7.50188 6.65381
8 2 6.92658 7.15088 5.42792
9 2 5.93395 8.53844 7.91163
1 1 7.90118 7.60112 8.41691
3 1 7.22524 7.31501 6.48367
2 1 8.43005 7.45419 7.05665
6 2 8.12029 6.8801 9.21968
5 2 8.19459 8.56806 8.88661
ITEM: TIMESTEP
5500
ITEM: NUMBER OF ATOMS
10
ITEM: BOX BOUNDS pp pp pp
0.0000000000000000e+00 1.5000000000000000e+01
0.0000000000000000e+00 1.5000000000000000e+01
0.0000000000000000e+00 1.5000000000000000e+01
ITEM: ATOMS id type x y z
10 2 5.88763 6.68467 8.07969
4 1 6.52747 7.54308 7.77283
7 2 9.46911 7.57922 6.89364
8 2 7.07588 7.15452 5.37975
9 2 5.95745 8.42912 7.78663
1 1 7.78835 7.65456 8.47414
3 1 7.32757 7.32622 6.42333
2 1 8.46058 7.46332 7.10711
6 2 8.0808 6.79286 9.17529
5 2 8.02926 8.6565 8.9095
ITEM: TIMESTEP
5600
ITEM: NUMBER OF ATOMS
10
ITEM: BOX BOUNDS pp pp pp
0.0000000000000000e+00 1.5000000000000000e+01
0.0000000000000000e+00 1.5000000000000000e+01
0.0000000000000000e+00 1.5000000000000000e+01
ITEM: ATOMS id type x y z
10 2 6.05559 6.47806 7.88671
4 1 6.48346 7.43859 7.65021
7 2 9.64845 7.38645 7.23028
8 2 7.33401 7.25373 5.35235
9 2 5.70733 8.18447 7.72546
1 1 7.70678 7.70292 8.4415
3 1 7.41838 7.44786 6.42398
2 1 8.49015 7.44513 7.23055
6 2 7.99003 7.0061 9.27428
5 2 7.79588 8.70419 8.94251
ITEM: TIMESTEP
5700
ITEM: NUMBER OF ATOMS
10
ITEM: BOX BOUNDS pp pp pp
0.0000000000000000e+00 1.5000000000000000e+01
0.0000000000000000e+00 1.5000000000000000e+01
0.0000000000000000e+00 1.5000000000000000e+01
ITEM: ATOMS id type x y z
10 2 5.79259 6.60685 7.7203
4 1 6.48353 7.4461 7.50578
7 2 9.5724 7.86694 7.37786
8 2 7.57222 7.00791 5.37579
9 2 5.71149 8.31577 7.45584
1 1 7.59391 7.61905 8.47589
3 1 7.56001 7.27833 6.43859
2 1 8.53673 7.66618 7.3712
6 2 7.86916 6.81385 9.1416
5 2 7.56109 8.55075 9.06889
ITEM: TIMESTEP
5800
ITEM: NUMBER OF ATOMS
10
ITEM: BOX BOUNDS pp pp pp
0.0000000000000000e+00 1.5000000000000000e+01
0.0000000000000000e+00 1.5000000000000000e+01
0.0000000000000000e+00 1.5000000000000000e+01
ITEM: ATOMS id type x y z
10 2 5.99428 6.28374 7.56227