LAMMPS (2 Aug 2023 - Update 2)
#13 Butadiene
units           metal
boundary        p p p
atom_style      atomic

neighbor        2.0 bin
neigh_modify    delay 0 every 1 check yes

read_data       restart.lmp
Reading data file ...
  orthogonal box = (0 0 0) to (15 15 15)
  1 by 1 by 3 MPI processor grid
  reading atoms ...
  10 atoms
  reading velocities ...
  10 velocities
  read_data CPU = 0.001 seconds
mass            1 12.0
mass            2 2

variable        sysvol          equal vol
variable        sysmass         equal mass(all)/6.0221367e+23
variable        sysdensity      equal v_sysmass/v_sysvol/1.0e-24
variable	out_freq 	equal 100

pair_style      deepmd ../files/frozen_model_1_compressed.pb ../files/frozen_model_2_compressed.pb ../files/frozen_model_3_compressed.pb ../files/frozen_model_3_compressed.pb out_file md.out out_freq 10 atomic relative 1.0
Summary of lammps deepmd module ...
  >>> Info of deepmd-kit:
  installed to:       /rs1/researchers/w/wjpfaend/rahul/MLP/DeePMD-kit/deepmd_cpu
  source:             v2.2.8-dirty
  source branch:      master
  source commit:      b875ea8
  source commit at:   2024-01-22 22:28:58 -0500
  support model ver.: 1.1 
  build variant:      cpu
  build with tf inc:  /rs1/researchers/w/wjpfaend/rahul/MLP/DeePMD-kit/tensorflow/lib/python3.11/site-packages/tensorflow/include;/rs1/researchers/w/wjpfaend/rahul/MLP/DeePMD-kit/tensorflow/lib/python3.11/site-packages/tensorflow/include
  build with tf lib:  /rs1/researchers/w/wjpfaend/rahul/MLP/DeePMD-kit/tensorflow/lib/python3.11/site-packages/tensorflow/libtensorflow_cc.so.2
  set tf intra_op_parallelism_threads: 0
  set tf inter_op_parallelism_threads: 0
  >>> Info of lammps module:
  use deepmd-kit at:  /rs1/researchers/w/wjpfaend/rahul/MLP/DeePMD-kit/deepmd_cpu
  source:             v2.2.8-dirty
  source branch:      master
  source commit:      b875ea8
  source commit at:   2024-01-22 22:28:58 -0500
  build float prec:   double
  build with tf inc:  /rs1/researchers/w/wjpfaend/rahul/MLP/DeePMD-kit/tensorflow/lib/python3.11/site-packages/tensorflow/include;/rs1/researchers/w/wjpfaend/rahul/MLP/DeePMD-kit/tensorflow/lib/python3.11/site-packages/tensorflow/include
  build with tf lib:  /rs1/researchers/w/wjpfaend/rahul/MLP/DeePMD-kit/tensorflow/lib/python3.11/site-packages/tensorflow/libtensorflow_cc.so.2
pair_coeff	* *

#
velocity        all create 300.0 2345678 rot no dist gaussian
fix             1 all nvt temp 300.0 300.0 0.05
fix             2 all plumed plumedfile plumed.dat outfile PLUMED.log

timestep        0.0005
thermo_style    custom step pe ke etotal v_sysdensity temp press vol
thermo          10

dump            10 all custom 100 btd.dump id type x y z
dump		101 all xyz 20 btd.xyz
dump_modify	101 element C H

fix		extra all print 20 "$(step), $(ke), $(pe), $(etotal), $(temp), $(press), $(vol)" file logfile screen no

restart	        20000 dump.restart

run             50000

CITE-CITE-CITE-CITE-CITE-CITE-CITE-CITE-CITE-CITE-CITE-CITE-CITE

Your simulation uses code contributions which should be cited:

- USER-DEEPMD package:

@article{Wang_ComputPhysCommun_2018_v228_p178,
  author = {Wang, Han and Zhang, Linfeng and Han, Jiequn and E, Weinan},
  doi = {10.1016/j.cpc.2018.03.016},
  url = {https://doi.org/10.1016/j.cpc.2018.03.016},
  year = 2018,
  month = {jul},
  publisher = {Elsevier {BV}},
  volume = 228,
  journal = {Comput. Phys. Commun.},
  title = {{DeePMD-kit: A deep learning package for many-body potential energy representation and molecular dynamics}},
  pages = {178--184}
}
@misc{Zeng_JChemPhys_2023_v159_p054801,
  title  = {{DeePMD-kit v2: A software package for deep potential models}},
  author =   {Jinzhe Zeng and Duo Zhang and Denghui Lu and Pinghui Mo and Zeyu Li
         and Yixiao Chen and Mari{\'a}n Rynik and Li'ang Huang and Ziyao Li and 
         Shaochen Shi and Yingze Wang and Haotian Ye and Ping Tuo and Jiabin
         Yang and Ye Ding and Yifan Li and Davide Tisi and Qiyu Zeng and Han 
         Bao and Yu Xia and Jiameng Huang and Koki Muraoka and Yibo Wang and 
         Junhan Chang and Fengbo Yuan and Sigbj{\o}rn L{\o}land Bore and Chun
         Cai and Yinnian Lin and Bo Wang and Jiayan Xu and Jia-Xin Zhu and 
         Chenxing Luo and Yuzhi Zhang and Rhys E A Goodall and Wenshuo Liang
         and Anurag Kumar Singh and Sikai Yao and Jingchao Zhang and Renata
         Wentzcovitch and Jiequn Han and Jie Liu and Weile Jia and Darrin M
         York and Weinan E and Roberto Car and Linfeng Zhang and Han Wang},
  journal =  {J. Chem. Phys.},
  volume =   159,
  issue =    5,  
  year =    2023,
  pages  =   054801,
  doi =      {10.1063/5.0155600},
}

CITE-CITE-CITE-CITE-CITE-CITE-CITE-CITE-CITE-CITE-CITE-CITE-CITE

Generated 0 of 1 mixed pair_coeff terms from geometric mixing rule
Neighbor list info ...
  update: every = 1 steps, delay = 0 steps, check = yes
  max neighbors/atom: 2000, page size: 100000
  master list distance cutoff = 8
  ghost atom cutoff = 8
  binsize = 4, bins = 4 4 4
  1 neighbor lists, perpetual/occasional/extra = 1 0 0
  (1) pair deepmd, perpetual
      attributes: full, newton on
      pair build: full/bin/atomonly
      stencil: full/bin/3d
      bin: standard
Per MPI rank memory allocation (min/avg/max) = 2.958 | 2.999 | 3.083 Mbytes
   Step         PotEng         KinEng         TotEng      v_sysdensity       Temp          Press          Volume    
         0  -56.268242      0.34900239    -55.91924       0.029520714    300           -934.12221      3375         
        10  -56.06877       0.54696515    -55.521805      0.029520714    470.1674      -543.84768      3375         
        20  -55.774923      0.22656509    -55.548358      0.029520714    194.75375      1198.9446      3375         
        30  -56.001546      0.42993881    -55.571607      0.029520714    369.57238     -470.01212      3375         
        40  -55.766691      0.20356583    -55.563126      0.029520714    174.98375     -1670.0591      3375         
        50  -56.011528      0.48294815    -55.52858       0.029520714    415.13883      902.49557      3375         
        60  -55.922882      0.36262143    -55.560261      0.029520714    311.70683      1729.5623      3375         
        70  -56.133192      0.52831602    -55.604876      0.029520714    454.13674     -447.76519      3375         
        80  -55.800212      0.23371326    -55.566499      0.029520714    200.89827     -1161.6004      3375         
        90  -56.023164      0.46689269    -55.556271      0.029520714    401.33767      185.58082      3375         
       100  -56.02032       0.4259788     -55.594341      0.029520714    366.16838      680.11168      3375         
       110  -56.1335        0.47838551    -55.655114      0.029520714    411.21682     -771.93737      3375         
       120  -55.967822      0.37039821    -55.597424      0.029520714    318.39169     -995.41832      3375         
       130  -55.967199      0.32159495    -55.645604      0.029520714    276.44076      1612.5774      3375         
       140  -55.934917      0.25914932    -55.675768      0.029520714    222.76293      1614.5227      3375         
       150  -56.039884      0.32677169    -55.713112      0.029520714    280.89065     -1765.5499      3375         
       160  -56.012336      0.31745514    -55.694881      0.029520714    272.88221     -1850.8516      3375         
       170  -56.021213      0.296189      -55.725024      0.029520714    254.60198      1104.542       3375         
       180  -56.016042      0.25583729    -55.760205      0.029520714    219.91593      1410.453       3375         
       190  -56.02344       0.21930571    -55.804134      0.029520714    188.51364     -424.66199      3375         
       200  -56.044035      0.28289361    -55.761141      0.029520714    243.17335     -608.7351       3375         
       210  -56.107699      0.30737674    -55.800322      0.029520714    264.21888      607.62995      3375         
       220  -56.173181      0.33686389    -55.836317      0.029520714    289.56583      267.53324      3375         
       230  -56.066643      0.20733035    -55.859312      0.029520714    178.21971     -1215.8405      3375         
       240  -56.116819      0.30117349    -55.815645      0.029520714    258.88662     -643.47405      3375         
       250  -56.051633      0.19623015    -55.855402      0.029520714    168.67805      1345.8733      3375         
       260  -56.217938      0.33370366    -55.884234      0.029520714    286.84932      864.12038      3375         
       270  -56.092288      0.22363087    -55.868657      0.029520714    192.23152     -999.4184       3375         
       280  -56.103672      0.24633714    -55.857335      0.029520714    211.74967     -360.84818      3375         
       290  -55.965592      0.092024593   -55.873567      0.029520714    79.103693      810.02677      3375         
       300  -56.163985      0.2756919     -55.888293      0.029520714    236.98282     -351.54756      3375         
       310  -56.059981      0.17982202    -55.880159      0.029520714    154.57375     -967.55213      3375         
       320  -56.153804      0.31138818    -55.842416      0.029520714    267.66709      543.23982      3375         
       330  -56.051785      0.19148884    -55.860296      0.029520714    164.60246      1143.2726      3375         
       340  -56.140857      0.25602585    -55.884831      0.029520714    220.07802     -368.22135      3375         
       350  -56.023322      0.17954959    -55.843772      0.029520714    154.33956     -1063.617       3375         
       360  -56.200276      0.38139938    -55.818877      0.029520714    327.84822      416.2502       3375         
       370  -56.080744      0.24485025    -55.835893      0.029520714    210.47155      952.19312      3375         
       380  -56.135132      0.28196318    -55.853168      0.029520714    242.37356     -682.17597      3375         
       390  -56.055177      0.26455969    -55.790618      0.029520714    227.41365     -1060.5585      3375         
       400  -56.056819      0.25687874    -55.79994       0.029520714    220.81116      903.8776       3375         
       410  -56.065519      0.25709041    -55.808428      0.029520714    220.99311      1187.3176      3375         
       420  -56.14447       0.33521921    -55.809251      0.029520714    288.15207     -1005.5651      3375         
       430  -55.972209      0.19759052    -55.774619      0.029520714    169.84742     -1161.6236      3375         
       440  -55.96584       0.20028761    -55.765552      0.029520714    172.16582      1106.7097      3375         
       450  -56.063806      0.28692478    -55.776881      0.029520714    246.63852      976.18076      3375         
       460  -56.065853      0.26935394    -55.796499      0.029520714    231.53476     -1250.2773      3375         
       470  -56.073396      0.34191512    -55.731481      0.029520714    293.90783     -907.31717      3375         
       480  -56.113341      0.37481244    -55.738528      0.029520714    322.18613      1418.1375      3375         
       490  -56.042174      0.28986787    -55.752307      0.029520714    249.16838      1080.364       3375         
       500  -56.009559      0.24815109    -55.761408      0.029520714    213.30893     -1117.0163      3375         
       510  -56.096783      0.40924062    -55.687543      0.029520714    351.78036     -1248.3483      3375         
       520  -56.029213      0.31440507    -55.714808      0.029520714    270.26039      564.33624      3375         
       530  -56.137858      0.4078549     -55.730004      0.029520714    350.5892       880.58877      3375         
       540  -55.970626      0.26488035    -55.705745      0.029520714    227.68928     -646.997        3375         
       550  -55.987332      0.30630653    -55.681026      0.029520714    263.29894     -163.6055       3375         
       560  -55.964896      0.27629713    -55.688599      0.029520714    237.50307      1333.9902      3375         
       570  -56.130009      0.43497114    -55.695038      0.029520714    373.89813     -102.40332      3375         
       580  -55.867548      0.17725544    -55.690293      0.029520714    152.36753     -1701.2064      3375         
       590  -56.016661      0.37597574    -55.640686      0.029520714    323.1861      -61.306141      3375         
       600  -55.967398      0.31183155    -55.655567      0.029520714    268.0482       1128.7747      3375         
       610  -56.108814      0.43470592    -55.674108      0.029520714    373.67015      117.12286      3375         
       620  -55.975671      0.34191077    -55.633761      0.029520714    293.90409     -453.34393      3375         
       630  -56.106099      0.51163027    -55.594469      0.029520714    439.79378      329.05588      3375         
       640  -55.915218      0.29966433    -55.615554      0.029520714    257.58935      563.09891      3375         
       650  -56.053184      0.4120041     -55.64118       0.029520714    354.15583     -873.47722      3375         
       660  -55.97168       0.39943093    -55.572249      0.029520714    343.34801     -1467.5977      3375         
       670  -55.99273       0.40961074    -55.583119      0.029520714    352.09851      1117.0758      3375         
       680  -55.917049      0.32351139    -55.593538      0.029520714    278.08811      2031.0762      3375         
       690  -56.040796      0.44105448    -55.599741      0.029520714    379.12733     -952.95718      3375         
       700  -55.867079      0.30152334    -55.565556      0.029520714    259.18734     -1637.6101      3375         
       710  -55.924516      0.3668775     -55.557639      0.029520714    315.36532      724.14788      3375         
       720  -55.957782      0.38853009    -55.569252      0.029520714    333.97773      763.28405      3375         
       730  -55.942992      0.34626125    -55.59673       0.029520714    297.64374     -892.77607      3375         
       740  -55.935472      0.40911052    -55.526361      0.029520714    351.66852     -417.03257      3375         
       750  -55.992809      0.45932951    -55.533479      0.029520714    394.83641      1441.3836      3375         
       760  -56.016056      0.47044113    -55.545615      0.029520714    404.38788      964.33908      3375         
       770  -55.966757      0.39676574    -55.569991      0.029520714    341.05704     -1614.166       3375         
       780  -55.96286       0.48411661    -55.478743      0.029520714    416.14323     -1635.4622      3375         
       790  -55.932572      0.41035154    -55.522221      0.029520714    352.73529      1196.5458      3375         
       800  -56.078304      0.53325458    -55.545049      0.029520714    458.38189      1367.768       3375         
       810  -55.841234      0.30774943    -55.533485      0.029520714    264.53925     -991.1449       3375         
       820  -55.935572      0.43325247    -55.502319      0.029520714    372.42077     -384.42761      3375         
       830  -55.879215      0.34956584    -55.529649      0.029520714    300.48433      1366.1387      3375         
       840  -56.065253      0.51253434    -55.552719      0.029520714    440.57092     -101.42203      3375         
       850  -55.867035      0.29439142    -55.572644      0.029520714    253.05679     -1849.056       3375         
       860  -55.988173      0.46549794    -55.522675      0.029520714    400.13876     -275.66256      3375         
       870  -55.785545      0.21900662    -55.566538      0.029520714    188.25655      1807.8133      3375         
       880  -56.104247      0.49874785    -55.605499      0.029520714    428.72014      553.94873      3375         
       890  -55.939543      0.32982684    -55.609716      0.029520714    283.51683     -1326.2787      3375         
       900  -56.084353      0.50284892    -55.581504      0.029520714    432.24539     -151.11002      3375         
       910  -55.962801      0.32249796    -55.640303      0.029520714    277.21698      924.75678      3375         
       920  -56.09388       0.39487936    -55.699         0.029520714    339.43552     -369.01737      3375         
       930  -55.901319      0.24396626    -55.657353      0.029520714    209.71168     -1060.383       3375         
       940  -56.164806      0.47887041    -55.685935      0.029520714    411.63364      692.11381      3375         
       950  -55.99642       0.2727057     -55.723714      0.029520714    234.4159       1366.9035      3375         
       960  -56.05933       0.30079673    -55.758533      0.029520714    258.56275     -828.02416      3375         
       970  -55.995551      0.24839066    -55.74716       0.029520714    213.51486     -1467.9287      3375         
       980  -56.013078      0.2642485     -55.74883       0.029520714    227.14615      943.45185      3375         
       990  -56.016956      0.24233882    -55.774617      0.029520714    208.31275      1284.0003      3375         
      1000  -56.197649      0.37967597    -55.817973      0.029520714    326.36679     -1079.752       3375         
      1010  -56.016299      0.2424325     -55.773867      0.029520714    208.39327     -1199.7244      3375         
      1020  -56.00546       0.21824418    -55.787216      0.029520714    187.60116      1158.0949      3375         
      1030  -56.09025       0.27855849    -55.811691      0.029520714    239.44692      1211.1555      3375         
      1040  -56.159272      0.31508895    -55.844183      0.029520714    270.84824     -870.8139       3375         
      1050  -56.101198      0.32542756    -55.775771      0.029520714    279.73524     -1140.6744      3375         
      1060  -56.100225      0.28769219    -55.812533      0.029520714    247.29818      596.92541      3375         
      1070  -56.09437       0.2611677     -55.833203      0.029520714    224.49792      903.65626      3375         
      1080  -56.004641      0.17647766    -55.828163      0.029520714    151.69895     -996.54443      3375         
      1090  -56.121001      0.32205206    -55.798949      0.029520714    276.83368     -660.12629      3375         
      1100  -56.087148      0.27723685    -55.809911      0.029520714    238.31084      1531.0558      3375         
      1110  -56.130604      0.30896292    -55.821641      0.029520714    265.58235      685.68819      3375         
      1120  -55.943012      0.11856361    -55.824449      0.029520714    101.91645     -1408.3993      3375         
      1130  -56.073483      0.30285077    -55.770632      0.029520714    260.32839     -464.46931      3375         
      1140  -56.011537      0.22575736    -55.785779      0.029520714    194.05944      729.85923      3375         
      1150  -56.23804       0.44031998    -55.79772       0.029520714    378.49596     -236.84902      3375         
      1160  -56.004363      0.2419944     -55.762368      0.029520714    208.01669     -537.283        3375         
      1170  -56.052586      0.34760764    -55.704979      0.029520714    298.80109      889.37732      3375         
      1180  -55.947454      0.22650103    -55.720953      0.029520714    194.69869      1170.438       3375         
      1190  -56.191055      0.45669872    -55.734356      0.029520714    392.57501     -732.77165      3375         
      1200  -55.979963      0.33910806    -55.640855      0.029520714    291.4949      -2191.3156      3375         
      1210  -56.102337      0.48029823    -55.622038      0.029520714    412.86098      265.83814      3375         
      1220  -55.796977      0.1795058     -55.617471      0.029520714    154.30193      2253.2371      3375         
      1230  -55.963041      0.34554653    -55.617495      0.029520714    297.02936     -202.44336      3375         
      1240  -55.955004      0.38544859    -55.569555      0.029520714    331.3289      -1378.3296      3375         
      1250  -56.053537      0.5329196     -55.520617      0.029520714    458.09393      950.24896      3375         
      1260  -55.827284      0.3011217     -55.526162      0.029520714    258.84209      554.34302      3375         
      1270  -55.953885      0.3911794     -55.562706      0.029520714    336.25506     -1603.2991      3375         
      1280  -55.796389      0.32573287    -55.470656      0.029520714    279.99768     -977.03441      3375         
      1290  -56.053315      0.57825205    -55.475063      0.029520714    497.0614       1678.4091      3375         
      1300  -56.063632      0.57434062    -55.489292      0.029520714    493.69916      1923.2992      3375         
      1310  -55.926701      0.40463451    -55.522067      0.029520714    347.82098     -1154.5011      3375         
      1320  -55.831109      0.39099083    -55.440118      0.029520714    336.09297     -1999.3293      3375         
      1330  -55.911474      0.42565727    -55.485817      0.029520714    365.892        746.99589      3375         
      1340  -56.03847       0.52984255    -55.508627      0.029520714    455.44893      989.84854      3375         
      1350  -55.919395      0.40236368    -55.517032      0.029520714    345.86899     -1267.9679      3375         
      1360  -55.914316      0.43111727    -55.483199      0.029520714    370.58537     -38.315708      3375         
      1370  -55.76279       0.25237468    -55.510416      0.029520714    216.9395       1916.2576      3375         
      1380  -55.998482      0.46416238    -55.53432       0.029520714    398.99071      270.34613      3375         
      1390  -55.913961      0.35186284    -55.562098      0.029520714    302.45882     -1964.5617      3375         
      1400  -55.996094      0.49413289    -55.501961      0.029520714    424.75316     -833.19296      3375         
      1410  -55.864205      0.31495054    -55.549254      0.029520714    270.72927      1452.436       3375         
      1420  -56.054723      0.4709026     -55.583821      0.029520714    404.78457      876.99968      3375         
      1430  -55.886923      0.30870393    -55.578219      0.029520714    265.35972     -1179.1234      3375         
      1440  -56.113738      0.5654033     -55.548335      0.029520714    486.0167      -268.2641       3375         
      1450  -55.956159      0.36148176    -55.594677      0.029520714    310.72718      1112.8714      3375         
      1460  -56.091082      0.446919      -55.644163      0.029520714    384.16843     -270.83487      3375         
      1470  -55.826208      0.22083128    -55.605377      0.029520714    189.82502     -1236.5209      3375         
      1480  -56.078653      0.466251      -55.612402      0.029520714    400.78608      536.05505      3375         
      1490  -55.957187      0.3142846     -55.642902      0.029520714    270.15683      1352.7727      3375         
      1500  -56.042828      0.36678581    -55.676042      0.029520714    315.2865      -704.98884      3375         
      1510  -55.903447      0.24881151    -55.654635      0.029520714    213.87662     -1349.4119      3375         
      1520  -56.028131      0.37832444    -55.649807      0.029520714    325.20502      929.32845      3375         
      1530  -55.967283      0.29105122    -55.676232      0.029520714    250.18558      1292.7945      3375         
      1540  -56.101126      0.37898127    -55.722145      0.029520714    325.76964     -1068.5729      3375         
      1550  -55.9675        0.30782588    -55.659674      0.029520714    264.60496     -1260.8594      3375         
      1560  -55.99994       0.31981308    -55.680127      0.029520714    274.90907      1134.3784      3375         
      1570  -56.057978      0.35449217    -55.703486      0.029520714    304.71897      1141.3164      3375         
      1580  -56.127317      0.39044047    -55.736876      0.029520714    335.61988     -1108.6945      3375         
      1590  -56.021401      0.34904624    -55.672354      0.029520714    300.0377      -1005.9073      3375         
      1600  -56.000546      0.29216903    -55.708377      0.029520714    251.14644      1071.978       3375         
      1610  -56.046184      0.31812964    -55.728054      0.029520714    273.462        1161.3926      3375         
      1620  -56.020105      0.28458922    -55.735516      0.029520714    244.63089     -1365.8999      3375         
      1630  -56.037656      0.3353821     -55.702274      0.029520714    288.29209     -1399.3898      3375         
      1640  -55.971699      0.25502112    -55.716678      0.029520714    219.21436      1338.0223      3375         
      1650  -56.031764      0.29891458    -55.732849      0.029520714    256.94487      1372.2579      3375         
      1660  -55.972328      0.21750959    -55.754819      0.029520714    186.96971     -828.07014      3375         
      1670  -56.104503      0.41787715    -55.686626      0.029520714    359.20426     -597.5549       3375         
      1680  -55.997559      0.2821252     -55.715434      0.029520714    242.51284      491.38252      3375         
      1690  -56.102789      0.36406901    -55.73872       0.029520714    312.95116     -241.56507      3375         
      1700  -55.954524      0.23162126    -55.722902      0.029520714    199.10001     -857.84768      3375         
      1710  -56.103345      0.42941272    -55.673932      0.029520714    369.12015      347.97769      3375         
      1720  -55.97473       0.27773602    -55.696994      0.029520714    238.73993      1510.3463      3375         
      1730  -56.225366      0.51470628    -55.71066       0.029520714    442.4379       98.149253      3375         
      1740  -55.93052       0.27297932    -55.65754       0.029520714    234.6511      -1814.2757      3375         
      1750  -55.962806      0.32566702    -55.637139      0.029520714    279.94108     -267.43002      3375         
      1760  -55.896054      0.26365343    -55.632401      0.029520714    226.63463      1464.668       3375         
      1770  -56.088199      0.46777781    -55.620421      0.029520714    402.09852     -401.74132      3375         
      1780  -55.850278      0.27069285    -55.579585      0.029520714    232.68567     -890.90122      3375         
      1790  -55.9814        0.47853082    -55.502869      0.029520714    411.34173      1331.9312      3375         
      1800  -55.850599      0.34993093    -55.500668      0.029520714    300.79816      897.58666      3375         
      1810  -55.892452      0.38137882    -55.511073      0.029520714    327.83055     -1405.2903      3375         
      1820  -55.860123      0.4444747     -55.415648      0.029520714    382.06733     -1614.1104      3375         
      1830  -56.063742      0.67801389    -55.385728      0.029520714    582.81597      746.66768      3375         
      1840  -55.864738      0.48185199    -55.382886      0.029520714    414.19658      1943.3851      3375         
      1850  -55.85369       0.45647411    -55.397216      0.029520714    392.38193     -261.48039      3375         
      1860  -55.80824       0.49368852    -55.314552      0.029520714    424.37118     -1425.8458      3375         
      1870  -55.919714      0.57871333    -55.341         0.029520714    497.4579       828.93615      3375         
      1880  -55.986223      0.62892455    -55.357298      0.029520714    540.61911      854.07171      3375         
      1890  -55.910784      0.54264526    -55.368139      0.029520714    466.45404     -2075.0904      3375         
      1900  -55.768869      0.4211433     -55.347725      0.029520714    362.01182     -969.52369      3375         
      1910  -55.750153      0.38172722    -55.368426      0.029520714    328.13003      2139.0932      3375         
      1920  -55.92474       0.5298176     -55.394922      0.029520714    455.42748      1343.4232      3375         
      1930  -55.862265      0.41028062    -55.451984      0.029520714    352.67434     -1212.3616      3375         
      1940  -55.875673      0.48918497    -55.386488      0.029520714    420.49996     -1206.4554      3375         
      1950  -55.809368      0.3612819     -55.448086      0.029520714    310.55538      758.66962      3375         
      1960  -56.034452      0.54161272    -55.492839      0.029520714    465.56648      851.42815      3375         
      1970  -55.886162      0.36434679    -55.521816      0.029520714    313.18994     -1100.144       3375         
      1980  -56.070385      0.58502353    -55.485361      0.029520714    502.88211     -511.37249      3375         
      1990  -55.955912      0.39371007    -55.562202      0.029520714    338.4304       1407.7751      3375         
      2000  -56.026716      0.41068129    -55.616034      0.029520714    353.01874      305.50535      3375         
      2010  -55.883029      0.27336269    -55.609667      0.029520714    234.98064     -1380.5187      3375         
      2020  -56.120579      0.50589511    -55.614683      0.029520714    434.86388     -176.3794       3375         
      2030  -55.92488       0.27052891    -55.654351      0.029520714    232.54475      1167.1312      3375         
      2040  -56.103183      0.41361364    -55.689569      0.029520714    355.53937     -92.082978      3375         
      2050  -55.962582      0.26587478    -55.696708      0.029520714    228.54409     -1122.6286      3375         
      2060  -55.921569      0.24577623    -55.675792      0.029520714    211.26752      368.07744      3375         
      2070  -55.928641      0.22460924    -55.704032      0.029520714    193.07253      1262.3373      3375         
      2080  -56.135685      0.39619789    -55.739487      0.029520714    340.56892     -475.95897      3375         
      2090  -55.9456        0.23126466    -55.714335      0.029520714    198.79348     -1145.4471      3375         
      2100  -56.08281       0.38902152    -55.693788      0.029520714    334.40016      504.40346      3375         
      2110  -56.042811      0.31640703    -55.726404      0.029520714    271.98126      868.87832      3375         
      2120  -56.081864      0.32274764    -55.759116      0.029520714    277.4316      -593.37495      3375         
      2130  -55.980009      0.27490247    -55.705106      0.029520714    236.30423     -961.05766      3375         
      2140  -56.117397      0.39303324    -55.724364      0.029520714    337.84861      746.03946      3375         
      2150  -56.04553       0.30403672    -55.741494      0.029520714    261.34783      1422.4783      3375         
      2160  -56.029914      0.28173625    -55.748178      0.029520714    242.1785      -689.01967      3375         
      2170  -55.992814      0.26551328    -55.727301      0.029520714    228.23335     -1690.4009      3375         
      2180  -56.083339      0.35892145    -55.724417      0.029520714    308.52636      544.39792      3375         
      2190  -56.037484      0.30186685    -55.735617      0.029520714    259.48262      1130.9287      3375         
      2200  -56.008513      0.25045543    -55.758058      0.029520714    215.28972     -550.00621      3375         
      2210  -55.978374      0.26438317    -55.713991      0.029520714    227.26191     -379.11063      3375         
      2220  -55.983895      0.2717748     -55.712121      0.029520714    233.6157       879.25372      3375         
      2230  -56.080682      0.35193497    -55.728747      0.029520714    302.52082      247.35595      3375         
      2240  -56.045784      0.30811507    -55.737669      0.029520714    264.85355     -887.01996      3375         
      2250  -56.037026      0.37145855    -55.665568      0.029520714    319.30316     -764.71124      3375         
      2260  -56.033055      0.34349797    -55.689557      0.029520714    295.26844      608.23149      3375         
      2270  -56.146995      0.44549561    -55.701499      0.029520714    382.94489      1075.2407      3375         
      2280  -55.961132      0.29990645    -55.661225      0.029520714    257.79748     -673.84702      3375         
      2290  -56.049397      0.40861156    -55.640786      0.029520714    351.23962     -570.38905      3375         
      2300  -55.888844      0.25177903    -55.637065      0.029520714    216.42748      1113.4944      3375         
      2310  -56.050446      0.42090057    -55.629545      0.029520714    361.80317     -413.99949      3375         
      2320  -55.956161      0.33704636    -55.619115      0.029520714    289.72268     -1508.5276      3375         
      2330  -55.920789      0.36795079    -55.552838      0.029520714    316.28791      843.56662      3375         
      2340  -55.902633      0.35541243    -55.54722       0.029520714    305.51002      1520.72        3375         
      2350  -56.043358      0.49425835    -55.549099      0.029520714    424.861       -448.73657      3375         
      2360  -55.722758      0.22235871    -55.500399      0.029520714    191.13799     -1207.5967      3375         
      2370  -55.940506      0.51534394    -55.425162      0.029520714    442.98602      61.12261       3375         
      2380  -55.861296      0.43314978    -55.428146      0.029520714    372.3325       1035.7869      3375         
      2390  -55.967525      0.53098137    -55.436543      0.029520714    456.42785     -152.61575      3375         
      2400  -55.884403      0.56844137    -55.315962      0.029520714    488.6282      -1458.5816      3375         
      2410  -55.988361      0.67102332    -55.317338      0.029520714    576.80692      947.00912      3375         
      2420  -55.762231      0.44261589    -55.319615      0.029520714    380.4695       1970.8528      3375         
      2430  -55.93535       0.61333928    -55.322011      0.029520714    527.22213     -1600.3193      3375         
      2440  -55.607218      0.30850325    -55.298715      0.029520714    265.18723     -2188.5383      3375         
      2450  -55.877093      0.58715026    -55.289943      0.029520714    504.71023      1235.4515      3375         
      2460  -55.899923      0.58721051    -55.312713      0.029520714    504.76203      1952.662       3375         
      2470  -55.874135      0.5141265     -55.360008      0.029520714    441.93952     -366.86437      3375         
      2480  -55.744145      0.41330542    -55.330839      0.029520714    355.27443     -1559.1938      3375         
      2490  -55.897334      0.56261346    -55.33472       0.029520714    483.61857      106.64841      3375         
      2500  -55.752069      0.37693773    -55.375131      0.029520714    324.01302      1277.4147      3375         
      2510  -55.907021      0.46180228    -55.445219      0.029520714    396.96199     -347.73744      3375         
      2520  -55.857713      0.49087646    -55.366836      0.029520714    421.95395     -1104.9483      3375         
      2530  -55.899227      0.46561223    -55.433615      0.029520714    400.23699      751.62862      3375         
      2540  -56.070202      0.58855877    -55.481643      0.029520714    505.92097      919.42053      3375         
      2550  -55.996482      0.49668889    -55.499793      0.029520714    426.95027     -1039.581       3375         
      2560  -55.898383      0.39931549    -55.499068      0.029520714    343.24879     -661.68532      3375         
      2570  -55.990961      0.45498028    -55.53598       0.029520714    391.09785      886.55029      3375         
      2580  -56.060117      0.50093745    -55.559179      0.029520714    430.60231      486.16919      3375         
      2590  -55.851921      0.26629181    -55.585629      0.029520714    228.90257     -757.22793      3375         
      2600  -55.959812      0.39737524    -55.562437      0.029520714    341.58096     -327.46129      3375         
      2610  -55.919875      0.34205785    -55.577817      0.029520714    294.03052      883.04891      3375         
      2620  -56.033183      0.4270175     -55.606166      0.029520714    367.06123     -57.84425       3375         
      2630  -56.00165       0.37664567    -55.625005      0.029520714    323.76197     -1046.5679      3375         
      2640  -55.958598      0.38491939    -55.573679      0.029520714    330.874        365.68533      3375         
      2650  -55.861453      0.24758818    -55.613865      0.029520714    212.82506      1151.0316      3375         
      2660  -56.09906       0.44741546    -55.651645      0.029520714    384.59519     -277.68679      3375         
      2670  -55.998793      0.38878893    -55.610004      0.029520714    334.20023     -1327.3683      3375         
      2680  -56.055827      0.43764205    -55.618185      0.029520714    376.19403     -14.180095      3375         
      2690  -55.971601      0.32664487    -55.644956      0.029520714    280.78164      1484.4374      3375         
      2700  -56.08627       0.42427218    -55.661997      0.029520714    364.70138      160.43337      3375         
      2710  -55.952827      0.30310956    -55.649717      0.029520714    260.55084     -1483.7151      3375         
      2720  -56.08158       0.43045365    -55.651126      0.029520714    370.01493      120.26058      3375         
      2730  -55.990291      0.32197004    -55.668321      0.029520714    276.76318      1144.7749      3375         
      2740  -56.008403      0.31154792    -55.696855      0.029520714    267.8044      -766.14609      3375         
      2750  -55.939833      0.25420376    -55.685629      0.029520714    218.51176     -936.08928      3375         
      2760  -56.005306      0.34597606    -55.65933       0.029520714    297.39859      1092.4988      3375         
      2770  -55.962954      0.27296714    -55.689987      0.029520714    234.64064      1086.5522      3375         
      2780  -56.147033      0.41349928    -55.733533      0.029520714    355.44107     -484.27366      3375         
      2790  -56.020779      0.35798038    -55.662799      0.029520714    307.71742     -1356.447       3375         
      2800  -55.922326      0.2284599     -55.693867      0.029520714    196.38252     -195.99031      3375         
      2810  -56.025025      0.30893941    -55.716085      0.029520714    265.56214      1207.8417      3375         
      2820  -56.126992      0.40875178    -55.718241      0.029520714    351.36016      35.265702      3375         
      2830  -56.075291      0.38300262    -55.692288      0.029520714    329.22636     -730.7419       3375         
      2840  -56.109634      0.40035521    -55.709278      0.029520714    344.14252      747.9252       3375         
      2850  -56.005547      0.28348241    -55.722064      0.029520714    243.67949      322.95337      3375         
      2860  -55.948991      0.20851759    -55.740474      0.029520714    179.24026     -1306.6935      3375         
      2870  -56.08772       0.37348915    -55.714231      0.029520714    321.04864     -280.20377      3375         
      2880  -56.03256       0.31946209    -55.713098      0.029520714    274.60737      1151.2731      3375         
      2890  -56.011074      0.27387157    -55.737202      0.029520714    235.41807      366.35027      3375         
      2900  -56.017938      0.25907511    -55.758863      0.029520714    222.69914     -522.64778      3375         
      2910  -55.955964      0.25936653    -55.696598      0.029520714    222.94964     -326.73653      3375         
      2920  -56.051696      0.32293875    -55.728757      0.029520714    277.59588      288.99169      3375         
      2930  -56.165076      0.41209868    -55.752978      0.029520714    354.23712      47.628925      3375         
      2940  -55.95777       0.23576234    -55.722008      0.029520714    202.65964     -906.65062      3375         
      2950  -56.063757      0.35626218    -55.707495      0.029520714    306.24046      445.36724      3375         
      2960  -56.007611      0.28570012    -55.721911      0.029520714    245.58581      1694.6505      3375         
      2970  -56.074077      0.34874097    -55.725336      0.029520714    299.77528     -524.28379      3375         
      2980  -56.075419      0.36239187    -55.713027      0.029520714    311.5095      -1981.5414      3375         
      2990  -56.060342      0.37152008    -55.688822      0.029520714    319.35605      203.99913      3375         
      3000  -55.851585      0.16069559    -55.690889      0.029520714    138.1328       1498.1998      3375         
      3010  -56.053526      0.34776874    -55.705757      0.029520714    298.93956      120.90096      3375         
      3020  -55.959171      0.2754611     -55.68371       0.029520714    236.78442     -1019.2348      3375         
      3030  -56.034668      0.39823966    -55.636428      0.029520714    342.32401     -62.138446      3375         
      3040  -55.994169      0.34655509    -55.647614      0.029520714    297.89631      1026.2239      3375         
      3050  -56.01057       0.34789884    -55.662672      0.029520714    299.0514      -181.18259      3375         
      3060  -55.886562      0.29411571    -55.592447      0.029520714    252.81979     -1227.9596      3375         
      3070  -56.009674      0.42512388    -55.58455       0.029520714    365.43349      381.52858      3375         
      3080  -56.030111      0.44678732    -55.583323      0.029520714    384.05523      1290.6904      3375         
      3090  -55.98606       0.42424108    -55.561819      0.029520714    364.67464     -500.63773      3375         
      3100  -55.940816      0.42173221    -55.519084      0.029520714    362.51804     -1036.002       3375         
      3110  -55.918593      0.40755389    -55.511039      0.029520714    350.33045      382.21588      3375         
      3120  -55.973962      0.4655213     -55.50844       0.029520714    400.15884      634.22783      3375         
      3130  -55.885834      0.37622891    -55.509605      0.029520714    323.40373     -343.63393      3375         
      3140  -55.920535      0.45910545    -55.461429      0.029520714    394.64382     -237.85207      3375         
      3150  -55.875463      0.4153253     -55.460137      0.029520714    357.01071      754.66636      3375         
      3160  -55.84386       0.37091496    -55.472945      0.029520714    318.83589      24.143831      3375         
      3170  -55.891978      0.40448553    -55.487493      0.029520714    347.69292     -1282.5225      3375         
      3180  -56.015233      0.59928276    -55.415951      0.029520714    515.13924     -65.259646      3375         
      3190  -55.784311      0.33549055    -55.44882       0.029520714    288.38532      1440.108       3375         
      3200  -55.91625       0.44105306    -55.475197      0.029520714    379.12611      328.05751      3375         
      3210  -55.993835      0.53881566    -55.455019      0.029520714    463.16215     -1268.4063      3375         
      3220  -55.946697      0.50056411    -55.446132      0.029520714    430.28139     -515.97144      3375         
      3230  -55.880185      0.40131495    -55.47887       0.029520714    344.9675       962.97655      3375         
      3240  -56.008387      0.50215419    -55.506233      0.029520714    431.64821      341.6276       3375         
      3250  -55.865493      0.34440922    -55.521083      0.029520714    296.05174     -802.09181      3375         
      3260  -55.998063      0.47164243    -55.52642       0.029520714    405.42052      148.22096      3375         
      3270  -56.000141      0.43806159    -55.562079      0.029520714    376.55466      970.88349      3375         
      3280  -55.881269      0.27741609    -55.603853      0.029520714    238.46492     -618.79508      3375         
      3290  -55.902649      0.27476952    -55.627879      0.029520714    236.18994     -1144.3045      3375         
      3300  -56.095185      0.47261519    -55.622569      0.029520714    406.25669      436.21854      3375         
      3310  -55.965329      0.29281468    -55.672514      0.029520714    251.70144      1016.9465      3375         
      3320  -56.040558      0.31896886    -55.721589      0.029520714    274.18339      306.75612      3375         
      3330  -56.06039       0.35558647    -55.704803      0.029520714    305.65963     -625.9102       3375         
      3340  -55.982576      0.25304073    -55.729535      0.029520714    217.51203     -574.19099      3375         
      3350  -56.015419      0.25654139    -55.758878      0.029520714    220.52117      382.40011      3375         
      3360  -56.215337      0.44847536    -55.766862      0.029520714    385.50626     -1.2029859      3375         
      3370  -56.066708      0.29069119    -55.776017      0.029520714    249.8761      -508.43145      3375         
      3380  -55.983904      0.19810157    -55.785803      0.029520714    170.28672      664.64364      3375         
      3390  -56.110085      0.32268978    -55.787396      0.029520714    277.38187      668.83352      3375         
      3400  -56.042124      0.24033649    -55.801787      0.029520714    206.59155     -731.63926      3375         
      3410  -56.079596      0.27822246    -55.801373      0.029520714    239.15807     -542.77032      3375         
      3420  -56.141392      0.35839676    -55.782995      0.029520714    308.07533      143.63597      3375         
      3430  -55.973159      0.17161355    -55.801546      0.029520714    147.5178       202.7487       3375         
      3440  -55.983979      0.1692864     -55.814692      0.029520714    145.51739      543.95379      3375         
      3450  -56.167807      0.39593551    -55.771872      0.029520714    340.34338      151.18056      3375         
      3460  -56.07826       0.29269297    -55.785567      0.029520714    251.59682     -410.96316      3375         
      3470  -56.009667      0.21123602    -55.798431      0.029520714    181.57699     -282.20422      3375         
      3480  -56.132362      0.36329638    -55.769065      0.029520714    312.28701     -566.72848      3375         
      3490  -56.021585      0.25450811    -55.767077      0.029520714    218.77338      225.28238      3375         
      3500  -56.008876      0.2361315     -55.772744      0.029520714    202.97697      1230.2466      3375         
      3510  -56.174891      0.42096541    -55.753926      0.029520714    361.85891     -109.01556      3375         
      3520  -56.089175      0.33897717    -55.750198      0.029520714    291.38239     -1027.2114      3375         
      3530  -55.998016      0.25551115    -55.742505      0.029520714    219.63558      129.13869      3375         
      3540  -55.979602      0.25341788    -55.726184      0.029520714    217.83623      436.50311      3375         
      3550  -56.014818      0.28047099    -55.734347      0.029520714    241.09089     -309.33438      3375         
      3560  -56.098976      0.36795877    -55.731017      0.029520714    316.29477     -209.5222       3375         
      3570  -56.093235      0.41261046    -55.680625      0.029520714    354.67705      232.31334      3375         
      3580  -55.880848      0.18925066    -55.691598      0.029520714    162.67854      607.34123      3375         
      3590  -56.017971      0.31247125    -55.705499      0.029520714    268.59809      87.44342       3375         
      3600  -56.078866      0.42065901    -55.658207      0.029520714    361.59552     -1022.9231      3375         
      3610  -56.066201      0.41746776    -55.648733      0.029520714    358.85235     -353.3808       3375         
      3620  -56.083322      0.4291438     -55.654178      0.029520714    368.88899      996.36273      3375         
      3630  -55.956887      0.32642036    -55.630467      0.029520714    280.58864      404.66963      3375         
      3640  -55.907091      0.28315098    -55.62394       0.029520714    243.39459     -604.46637      3375         
      3650  -56.139165      0.51821927    -55.620946      0.029520714    445.45764     -421.25654      3375         
      3660  -56.036143      0.43982921    -55.596314      0.029520714    378.07409      94.923689      3375         
      3670  -55.935632      0.33319044    -55.602442      0.029520714    286.40816      293.82956      3375         
      3680  -56.024579      0.41566088    -55.608919      0.029520714    357.29917      89.739729      3375         
      3690  -55.830151      0.25963949    -55.570511      0.029520714    223.18427     -69.322107      3375         
      3700  -55.808085      0.22641065    -55.581674      0.029520714    194.621        33.379787      3375         
      3710  -56.116451      0.52239678    -55.594054      0.029520714    449.0486       33.569487      3375         
      3720  -56.038288      0.47704972    -55.561238      0.029520714    410.06858     -251.46308      3375         
      3730  -55.846102      0.28655397    -55.559548      0.029520714    246.31977     -194.49552      3375         
      3740  -56.003955      0.43001002    -55.573945      0.029520714    369.63358      402.6538       3375         
      3750  -56.017922      0.45978198    -55.55814       0.029520714    395.22536      522.14217      3375         
      3760  -55.919958      0.35838551    -55.561572      0.029520714    308.06566     -359.60796      3375         
      3770  -56.065869      0.49693521    -55.568934      0.029520714    427.16201     -704.51937      3375         
      3780  -55.962231      0.40808966    -55.554141      0.029520714    350.791        63.802894      3375         
      3790  -55.908358      0.33446413    -55.573894      0.029520714    287.50302      235.35082      3375         
      3800  -56.031712      0.43466791    -55.597045      0.029520714    373.63748      264.18158      3375         
      3810  -55.964847      0.39764557    -55.567201      0.029520714    341.81333      360.78529      3375         
      3820  -55.902606      0.31152198    -55.591084      0.029520714    267.7821      -197.64576      3375         
      3830  -56.036641      0.41355254    -55.623088      0.029520714    355.48686     -486.41853      3375         
      3840  -55.912089      0.29844003    -55.613649      0.029520714    256.53695     -202.53192      3375         
      3850  -55.851981      0.22224442    -55.629737      0.029520714    191.03974      17.556808      3375         
      3860  -56.090705      0.42279507    -55.66791       0.029520714    363.43167      516.6361       3375         
      3870  -56.078258      0.38870283    -55.689555      0.029520714    334.12622      561.11101      3375         
      3880  -56.029752      0.29146228    -55.73829       0.029520714    250.53893     -484.76156      3375         
      3890  -56.099808      0.31455124    -55.785257      0.029520714    270.38603     -292.21074      3375         
      3900  -56.058657      0.25496917    -55.803688      0.029520714    219.16971      229.59307      3375         
      3910  -56.114417      0.26457539    -55.849842      0.029520714    227.42715     -558.12469      3375         
      3920  -56.19026       0.30199196    -55.888268      0.029520714    259.59016     -241.08942      3375         
      3930  -56.056368      0.17970328    -55.876665      0.029520714    154.47167      929.74941      3375         
      3940  -56.097391      0.19756054    -55.899831      0.029520714    169.82165      495.7098       3375         
      3950  -56.229428      0.3012693     -55.928159      0.029520714    258.96897     -389.23521      3375         
      3960  -56.072951      0.16556939    -55.907382      0.029520714    142.32228     -788.2882       3375         
      3970  -56.083686      0.1689078     -55.914778      0.029520714    145.19195     -430.92768      3375         
      3980  -56.18904       0.25524919    -55.933791      0.029520714    219.41041      782.01977      3375         
      3990  -56.091291      0.16884018    -55.922451      0.029520714    145.13383      636.53268      3375         
      4000  -56.080693      0.16862659    -55.912066      0.029520714    144.95023     -386.33305      3375         
      4010  -56.186635      0.26826117    -55.918373      0.029520714    230.59541      3.3110961      3375         
      4020  -56.137236      0.22616318    -55.911072      0.029520714    194.40828      25.763543      3375         
      4030  -56.127769      0.22478571    -55.902983      0.029520714    193.22422     -742.79555      3375         
      4040  -56.181193      0.28544876    -55.895745      0.029520714    245.36975     -55.649677      3375         
      4050  -56.063218      0.19071486    -55.872503      0.029520714    163.93715      779.20261      3375         
      4060  -56.114674      0.24261972    -55.872054      0.029520714    208.55421      301.07889      3375         
      4070  -56.121036      0.24893067    -55.872105      0.029520714    213.97905     -164.81044      3375         
      4080  -56.029516      0.20442475    -55.825091      0.029520714    175.72207     -361.73073      3375         
      4090  -56.074446      0.25109609    -55.82335       0.029520714    215.84043     -261.17683      3375         
      4100  -56.160142      0.33475766    -55.825385      0.029520714    287.75533      54.41037       3375         
      4110  -55.993442      0.20818297    -55.785259      0.029520714    178.95262     -175.41551      3375         
      4120  -56.009571      0.2503753     -55.759196      0.029520714    215.22085      390.93219      3375         
      4130  -56.037072      0.27880699    -55.758265      0.029520714    239.66052      978.56146      3375         
      4140  -56.01592       0.27228539    -55.743635      0.029520714    234.05461     -465.28339      3375         
      4150  -56.039746      0.32292869    -55.716817      0.029520714    277.58723     -1364.3998      3375         
      4160  -56.095276      0.40175396    -55.693522      0.029520714    345.34488      218.31806      3375         
      4170  -55.99384       0.31782288    -55.676017      0.029520714    273.19831      1179.1575      3375         
      4180  -56.03421       0.35987776    -55.674332      0.029520714    309.34839      58.479303      3375         
      4190  -56.031924      0.37232507    -55.659599      0.029520714    320.04801     -724.30685      3375         
      4200  -55.987239      0.36818815    -55.619051      0.029520714    316.49194     -76.879242      3375         
      4210  -55.981478      0.35292565    -55.628553      0.029520714    303.3724       430.45258      3375         
      4220  -56.049041      0.4067994     -55.642242      0.029520714    349.6819      -326.47924      3375         
      4230  -55.825728      0.22757721    -55.59815       0.029520714    195.62377     -587.21439      3375         
      4240  -55.985483      0.39427936    -55.591204      0.029520714    338.91977      773.59967      3375         
      4250  -56.090557      0.49108288    -55.599475      0.029520714    422.13139      1019.9528      3375         
      4260  -55.986457      0.39433196    -55.592125      0.029520714    338.96498     -720.11323      3375         
      4270  -55.827132      0.25725627    -55.569876      0.029520714    221.13568     -1269.0956      3375         
      4280  -55.934379      0.36132207    -55.573057      0.029520714    310.58991      226.63368      3375         
      4290  -55.992871      0.42109811    -55.571773      0.029520714    361.97297      1119.6588      3375         
      4300  -56.061216      0.48955032    -55.571666      0.029520714    420.81401      122.8421       3375         
      4310  -56.052544      0.49824474    -55.554299      0.029520714    428.28767     -727.3116       3375         
      4320  -55.914036      0.36284045    -55.551196      0.029520714    311.8951       50.959547      3375         
      4330  -55.890746      0.32236398    -55.568382      0.029520714    277.10181      238.25586      3375         
      4340  -55.963564      0.3821934     -55.58137       0.029520714    328.53076     -411.62253      3375         
      4350  -56.047278      0.49660528    -55.550673      0.029520714    426.8784       54.064251      3375         
      4360  -55.947866      0.37742568    -55.570441      0.029520714    324.43246      617.61046      3375         
      4370  -55.963902      0.36703836    -55.596864      0.029520714    315.50359     -10.795426      3375         
      4380  -55.815379      0.23263957    -55.582739      0.029520714    199.97534     -360.08399      3375         
      4390  -55.932652      0.35112524    -55.581526      0.029520714    301.82479     -195.64385      3375         
      4400  -56.091773      0.4858109     -55.605962      0.029520714    417.59963     -70.408747      3375         
      4410  -56.053468      0.42891109    -55.624557      0.029520714    368.68896     -65.336891      3375         
      4420  -55.894902      0.27209356    -55.622808      0.029520714    233.88971      130.56761      3375         
      4430  -55.965129      0.33376643    -55.631363      0.029520714    286.90328      925.9195       3375         
      4440  -56.027695      0.37200594    -55.655689      0.029520714    319.77369      477.86188      3375         
      4450  -56.076962      0.38677261    -55.69019       0.029520714    332.46701     -1598.7505      3375         
      4460  -56.089023      0.39418403    -55.694839      0.029520714    338.83782     -1273.1002      3375         
      4470  -55.992081      0.27946655    -55.712614      0.029520714    240.22748      1427.1299      3375         
      4480  -55.990166      0.24127499    -55.748891      0.029520714    207.39828      1316.051       3375         
      4490  -56.078953      0.29707217    -55.781881      0.029520714    255.36114     -565.77873      3375         
      4500  -56.066831      0.30145273    -55.765378      0.029520714    259.12665     -862.63964      3375         
      4510  -56.106366      0.30400901    -55.802357      0.029520714    261.32401     -25.305401      3375         
      4520  -56.061485      0.22725024    -55.834235      0.029520714    195.34271      505.7736       3375         
      4530  -56.023918      0.18327864    -55.84064       0.029520714    157.54503     -190.88234      3375         
      4540  -56.067018      0.23258157    -55.834437      0.029520714    199.92548     -428.04132      3375         
      4550  -56.168136      0.31578548    -55.852351      0.029520714    271.44697      886.94057      3375         
      4560  -56.175192      0.30613831    -55.869054      0.029520714    263.15434      576.14417      3375         
      4570  -56.046894      0.16879126    -55.878103      0.029520714    145.09178     -1201.0304      3375         
      4580  -56.066157      0.19679382    -55.869363      0.029520714    169.16258     -661.14161      3375         
      4590  -56.175405      0.30391583    -55.871489      0.029520714    261.24391      587.7591       3375         
      4600  -56.149427      0.26195189    -55.887475      0.029520714    225.172        452.73245      3375         
      4610  -56.087978      0.20025917    -55.887719      0.029520714    172.14137      256.46225      3375         
      4620  -56.158201      0.29986678    -55.858335      0.029520714    257.76337     -11.420247      3375         
      4630  -56.023213      0.14951739    -55.873696      0.029520714    128.5241      -290.9999       3375         
      4640  -56.07737       0.19169976    -55.88567       0.029520714    164.78376     -290.2357       3375         
      4650  -56.17368       0.32026988    -55.85341       0.029520714    275.30173     -532.78131      3375         
      4660  -56.091553      0.24538521    -55.846168      0.029520714    210.9314       355.29924      3375         
      4670  -56.044284      0.19696498    -55.847319      0.029520714    169.30971      1122.7516      3375         
      4680  -56.147741      0.31222467    -55.835516      0.029520714    268.38613     -315.08206      3375         
      4690  -56.016651      0.19550371    -55.821148      0.029520714    168.05362     -876.34708      3375         
      4700  -56.141139      0.33831672    -55.802823      0.029520714    290.81467      328.07062      3375         
      4710  -56.180646      0.39237711    -55.788268      0.029520714    337.2846       147.60616      3375         
      4720  -55.967501      0.17993844    -55.787562      0.029520714    154.67382     -405.96129      3375         
      4730  -56.02079       0.25646242    -55.764328      0.029520714    220.45329      285.59156      3375         
      4740  -56.14082       0.40189891    -55.738921      0.029520714    345.46948      596.98698      3375         
      4750  -56.034251      0.28999142    -55.74426       0.029520714    249.27458     -14.404349      3375         
      4760  -55.978919      0.23663487    -55.742284      0.029520714    203.40967     -824.19023      3375         
      4770  -56.039723      0.33672656    -55.702996      0.029520714    289.44778     -638.13203      3375         
      4780  -55.990571      0.27946451    -55.711106      0.029520714    240.22573      879.59317      3375         
      4790  -56.03486       0.31610989    -55.71875       0.029520714    271.72584      988.53704      3375         
      4800  -56.047486      0.35797857    -55.689508      0.029520714    307.71586     -660.00539      3375         
      4810  -56.000245      0.31326978    -55.686975      0.029520714    269.2845      -576.37104      3375         
      4820  -56.011267      0.31993046    -55.691336      0.029520714    275.00997      361.31801      3375         
      4830  -56.018727      0.33455947    -55.684168      0.029520714    287.58496     -48.893964      3375         
      4840  -56.041893      0.35866142    -55.683232      0.029520714    308.30283     -301.47266      3375         
      4850  -56.048648      0.37687538    -55.671773      0.029520714    323.95943      171.4096       3375         
      4860  -56.064237      0.3979153     -55.666322      0.029520714    342.04519      336.90393      3375         
      4870  -55.945779      0.26656017    -55.679219      0.029520714    229.13325      69.654305      3375         
      4880  -55.919896      0.24852434    -55.671371      0.029520714    213.62977     -288.37799      3375         
      4890  -56.103945      0.4521465     -55.651799      0.029520714    388.66195     -247.67013      3375         
      4900  -55.992807      0.32706965    -55.665738      0.029520714    281.14677      32.38192       3375         
      4910  -55.900354      0.22549462    -55.67486       0.029520714    193.83359      155.9219       3375         
      4920  -55.981569      0.34367783    -55.637891      0.029520714    295.42304      597.74155      3375         
      4930  -56.08391       0.43544436    -55.648466      0.029520714    374.3049       311.89187      3375         
      4940  -55.947063      0.28753629    -55.659526      0.029520714    247.16417     -902.48077      3375         
      4950  -56.013357      0.37867797    -55.634679      0.029520714    325.50892     -1101.5666      3375         
      4960  -56.004122      0.3718911     -55.63223       0.029520714    319.67498      567.96818      3375         
      4970  -55.953877      0.31581837    -55.638059      0.029520714    271.47525      1507.3128      3375         
      4980  -56.145878      0.51876365    -55.627114      0.029520714    445.92558      107.72895      3375         
      4990  -55.970099      0.3438881     -55.626211      0.029520714    295.60379     -1281.6203      3375         
      5000  -56.000314      0.37484786    -55.625466      0.029520714    322.21658     -492.96841      3375         
      5010  -56.006542      0.38887302    -55.617669      0.029520714    334.27251      839.8539       3375         
      5020  -55.939295      0.31216902    -55.627126      0.029520714    268.33829      79.71045       3375         
      5030  -55.907974      0.27488272    -55.633091      0.029520714    236.28725     -467.40264      3375         
      5040  -56.106109      0.50177612    -55.604333      0.029520714    431.32322      366.20879      3375         
      5050  -55.954886      0.3396173     -55.615269      0.029520714    291.93264      353.72515      3375         
      5060  -55.915537      0.28509437    -55.630443      0.029520714    245.06511     -166.16499      3375         
      5070  -55.939218      0.3388954     -55.600323      0.029520714    291.31211     -371.54494      3375         
      5080  -55.993739      0.38667687    -55.607062      0.029520714    332.38472     -473.05853      3375         
      5090  -56.180359      0.5585855     -55.621774      0.029520714    480.15617      427.24248      3375         
      5100  -55.926104      0.33222354    -55.593881      0.029520714    285.57701      869.10204      3375         
      5110  -55.853972      0.25519074    -55.598782      0.029520714    219.36017     -173.10496      3375         
      5120  -56.113142      0.49819071    -55.614952      0.029520714    428.24123     -481.22838      3375         
      5130  -56.070295      0.4715982     -55.598697      0.029520714    405.38249     -546.18039      3375         
      5140  -55.948316      0.34731742    -55.600998      0.029520714    298.55161     -410.26348      3375         
      5150  -56.103882      0.48630881    -55.617573      0.029520714    418.02763      890.37803      3375         
      5160  -55.895077      0.28459673    -55.61048       0.029520714    244.63735      825.95517      3375         
      5170  -55.827591      0.20603282    -55.621558      0.029520714    177.10436     -647.97297      3375         
      5180  -56.084019      0.45272822    -55.631291      0.029520714    389.162       -263.92114      3375         
      5190  -56.023857      0.40717274    -55.616684      0.029520714    350.00283      294.0118       3375         
      5200  -55.976946      0.33804365    -55.638902      0.029520714    290.57994     -485.43049      3375         
      5210  -55.99863       0.33671873    -55.661911      0.029520714    289.44105     -210.43851      3375         
      5220  -55.93138       0.29399015    -55.63739       0.029520714    252.71187      394.3961       3375         
      5230  -56.04181       0.38432213    -55.657487      0.029520714    330.3606       622.83814      3375         
      5240  -56.178834      0.49121795    -55.687616      0.029520714    422.24749      296.2634       3375         
      5250  -55.956106      0.2767056     -55.6794        0.029520714    237.85419     -1038.3801      3375         
      5260  -55.953746      0.26154055    -55.692206      0.029520714    224.81842     -851.74093      3375         
      5270  -56.099313      0.38150526    -55.717808      0.029520714    327.93923      947.61792      3375         
      5280  -56.092159      0.3693492     -55.722809      0.029520714    317.48998      667.6154       3375         
      5290  -56.038958      0.30345825    -55.735499      0.029520714    260.85058     -299.16542      3375         
      5300  -56.010324      0.258157      -55.752167      0.029520714    221.90994     -96.39631       3375         
      5310  -56.008038      0.25069414    -55.757344      0.029520714    215.49492     -308.15735      3375         
      5320  -55.959818      0.18978578    -55.770032      0.029520714    163.13852     -207.96949      3375         
      5330  -56.0776        0.29927495    -55.778325      0.029520714    257.25464      271.41711      3375         
      5340  -56.118404      0.34272341    -55.775681      0.029520714    294.60263      181.01396      3375         
      5350  -56.096054      0.3037991     -55.792255      0.029520714    261.14356      125.82483      3375         
      5360  -56.085539      0.27946668    -55.806073      0.029520714    240.22759      51.013729      3375         
      5370  -56.0266        0.23460231    -55.791998      0.029520714    201.6625      -163.86118      3375         
      5380  -56.049659      0.24396555    -55.805694      0.029520714    209.71107     -102.73461      3375         
      5390  -56.196048      0.37213948    -55.823909      0.029520714    319.88848     -383.2493       3375         
      5400  -56.12403       0.31563006    -55.8084        0.029520714    271.31338     -249.67664      3375         
      5410  -55.954039      0.14442621    -55.809612      0.029520714    124.14775      941.18454      3375         
      5420  -56.126665      0.3041518     -55.822513      0.029520714    261.44675      625.6081       3375         
      5430  -56.112429      0.29110495    -55.821324      0.029520714    250.23177     -936.24506      3375         
      5440  -56.000093      0.18743158    -55.812661      0.029520714    161.11487     -879.14198      3375         
      5450  -56.13979       0.32943944    -55.810351      0.029520714    283.18382      431.24436      3375         
      5460  -56.047158      0.23818627    -55.808972      0.029520714    204.74324      1118.3207      3375         
      5470  -55.977386      0.16943882    -55.807947      0.029520714    145.64842      80.670647      3375         
      5480  -56.116175      0.3261735     -55.790002      0.029520714    280.37645     -1026.265       3375         
      5490  -56.14276       0.37679746    -55.765962      0.029520714    323.89244     -175.34427      3375         
      5500  -56.025977      0.26703407    -55.758943      0.029520714    229.5406       562.63734      3375         
      5510  -56.07505       0.32473956    -55.75031       0.029520714    279.14384     -199.43906      3375         
      5520  -55.989528      0.28250534    -55.707023      0.029520714    242.83961     -200.60456      3375         
      5530  -56.023425      0.33485488    -55.68857       0.029520714    287.8389       582.69074      3375         
      5540  -56.137557      0.46682013    -55.670737      0.029520714    401.2753       350.54824      3375         
      5550  -56.004988      0.3723368     -55.632651      0.029520714    320.05809     -477.9054       3375         
      5560  -55.877906      0.27932847    -55.598578      0.029520714    240.10879     -789.56715      3375         
      5570  -55.919055      0.33063737    -55.588418      0.029520714    284.21355     -34.943151      3375         
      5580  -56.043129      0.47264679    -55.570482      0.029520714    406.28385      644.79132      3375         
      5590  -55.930882      0.38759971    -55.543283      0.029520714    333.17799      334.55998      3375         
      5600  -55.948381      0.43673294    -55.511648      0.029520714    375.41256      73.746562      3375         
      5610  -55.8538        0.3529795     -55.500821      0.029520714    303.4187       120.45705      3375         
      5620  -55.917919      0.41208393    -55.505835      0.029520714    354.22445     -819.8243       3375         
      5630  -55.931925      0.4427314     -55.489194      0.029520714    380.5688      -622.31458      3375         
      5640  -56.037602      0.57769414    -55.459908      0.029520714    496.58182      870.73761      3375         
      5650  -55.959699      0.48537161    -55.474328      0.029520714    417.22202      790.58958      3375         
      5660  -55.906046      0.41776804    -55.488278      0.029520714    359.11047     -313.1236       3375         
      5670  -55.908186      0.4412649     -55.466921      0.029520714    379.30821     -506.89034      3375         
      5680  -55.903146      0.42616084    -55.476985      0.029520714    366.32486     -151.29551      3375         
      5690  -56.047649      0.5496577     -55.497992      0.029520714    472.48189     -26.29856       3375         
      5700  -55.916246      0.40893357    -55.507313      0.029520714    351.51642     -258.63329      3375         
      5710  -55.799318      0.29146301    -55.507855      0.029520714    250.53955      87.459284      3375         
      5720  -55.990594      0.47408224    -55.516512      0.029520714    407.51776      1322.3025      3375         
      5730  -55.999443      0.46536185    -55.534081      0.029520714    400.02177      345.46112      3375         
      5740  -55.84477       0.28935487    -55.555415      0.029520714    248.72741     -1707.2685      3375         
      5750  -55.96639       0.41382089    -55.552569      0.029520714    355.71752     -884.22443      3375         
      5760  -56.023534      0.46005094    -55.563483      0.029520714    395.45655      1053.029       3375         
      5770  -55.960661      0.36634682    -55.594314      0.029520714    314.90915      938.20414      3375         
      5780  -56.055572      0.44675393    -55.608818      0.029520714    384.02653     -111.5704       3375         
      5790  -55.984602      0.3840391     -55.600563      0.029520714    330.11731     -705.83229      3375         
      5800  -55.96959       0.33730125    -55.632288      0.029520714    289.94178     -189.93627      3375         
      5810  -56.040274      0.38257078    -55.657704      0.029520714    328.85515      517.16107      3375         
      5820  -56.01994       0.36819212    -55.651748      0.029520714    316.49536     -284.28954      3375         
      5830  -55.97646       0.30830506    -55.668155      0.029520714    265.01686     -229.63156      3375         
      5840  -56.063844      0.38062715    -55.683216      0.029520714    327.18442      766.78292      3375         
      5850  -55.985679      0.29301886    -55.69266       0.029520714    251.87695      50.701319      3375         
      5860  -55.926307      0.22618331    -55.700123      0.029520714    194.42558     -637.07696      3375         
      5870  -56.085276      0.38762826    -55.697648      0.029520714    333.20252     -137.82084      3375         
      5880  -56.09841       0.38904478    -55.709365      0.029520714    334.42015     -147.80845      3375         
      5890  -56.010234      0.28108427    -55.72915       0.029520714    241.61806      198.56119      3375         
      5900  -56.006481      0.2956913     -55.710789      0.029520714    254.17416      845.9473       3375         
      5910  -56.08198       0.37121345    -55.710766      0.029520714    319.09247      160.6134       3375         
      5920  -56.076287      0.3439937     -55.732293      0.029520714    295.69456     -653.53411      3375         
      5930  -56.1133        0.38029837    -55.733002      0.029520714    326.9018      -925.72329      3375         
      5940  -55.974471      0.26058988    -55.713881      0.029520714    224.00123     -118.06429      3375         
      5950  -55.98326       0.25363614    -55.729624      0.029520714    218.02385      1303.0399      3375         
      5960  -56.121487      0.38570251    -55.735784      0.029520714    331.54717      643.52587      3375         
      5970  -56.01948       0.29782606    -55.721654      0.029520714    256.00918     -1122.8397      3375         
      5980  -56.044249      0.32317968    -55.72107       0.029520714    277.80298     -450.48455      3375         
      5990  -56.00194       0.28105349    -55.720887      0.029520714    241.59161      700.6276       3375         
      6000  -55.978541      0.25428568    -55.724255      0.029520714    218.58218     -37.677663      3375         
      6010  -55.996106      0.26824454    -55.727861      0.029520714    230.58112     -406.4395       3375         
      6020  -56.134065      0.43425774    -55.699808      0.029520714    373.2849       302.22409      3375         
      6030  -56.10963       0.40571862    -55.703912      0.029520714    348.75287      572.91571      3375         
      6040  -55.989341      0.26724115    -55.7221        0.029520714    229.71861     -120.62117      3375         
      6050  -55.92546       0.22154743    -55.703912      0.029520714    190.44061     -982.98995      3375         
      6060  -56.07921       0.39044334    -55.688767      0.029520714    335.62235     -374.21066      3375         
      6070  -56.121356      0.41642266    -55.704933      0.029520714    357.95399      891.98287      3375         
      6080  -55.995996      0.28806964    -55.707926      0.029520714    247.62264      581.37645      3375         
      6090  -55.979885      0.29953717    -55.680348      0.029520714    257.48004     -225.85205      3375         
      6100  -56.000692      0.31072713    -55.689964      0.029520714    267.09886     -44.358568      3375         
      6110  -55.950977      0.25772632    -55.693251      0.029520714    221.53973     -249.779        3375         
      6120  -56.053207      0.36778909    -55.685418      0.029520714    316.14892     -740.14513      3375         
      6130  -56.013815      0.33275234    -55.681063      0.029520714    286.03157      97.127987      3375         
      6140  -55.941687      0.27327194    -55.668415      0.029520714    234.90264      959.03397      3375         
      6150  -56.0381        0.36933869    -55.668761      0.029520714    317.48094      437.74988      3375         
      6160  -56.049545      0.37225899    -55.677286      0.029520714    319.99121     -648.31163      3375         
      6170  -56.010769      0.35695726    -55.653812      0.029520714    306.83795     -644.51138      3375         
      6180  -56.130082      0.4826985     -55.647384      0.029520714    414.92423      289.89566      3375         
      6190  -56.007399      0.34431141    -55.663087      0.029520714    295.96767      232.6708       3375         
      6200  -55.853449      0.19271993    -55.660729      0.029520714    165.6607      -175.28565      3375         
      6210  -56.049663      0.41854728    -55.631115      0.029520714    359.7803       364.03366      3375         
      6220  -56.091459      0.44604818    -55.645411      0.029520714    383.41988      424.64564      3375         
      6230  -55.980616      0.32795642    -55.65266       0.029520714    281.90903     -566.10092      3375         
      6240  -55.932674      0.30250759    -55.630167      0.029520714    260.03339     -968.46519      3375         
      6250  -55.98374       0.34924098    -55.634499      0.029520714    300.20509      125.58547      3375         
      6260  -55.932388      0.29675091    -55.635638      0.029520714    255.08499      1330.6515      3375         
      6270  -55.996098      0.37153883    -55.624559      0.029520714    319.37217      449.1273       3375         
      6280  -56.030122      0.40949425    -55.620628      0.029520714    351.99837     -928.39075      3375         
      6290  -56.050968      0.44044513    -55.610523      0.029520714    378.60353     -486.10471      3375         
      6300  -55.937549      0.3360102     -55.601538      0.029520714    288.832        194.38078      3375         
      6310  -55.955964      0.34876619    -55.607198      0.029520714    299.79697     -120.40598      3375         
      6320  -56.069764      0.47890038    -55.590864      0.029520714    411.65939      149.77362      3375         
      6330  -56.037314      0.47280695    -55.564507      0.029520714    406.42153      507.56318      3375         
      6340  -55.99555       0.42628066    -55.569269      0.029520714    366.42785     -61.009528      3375         
      6350  -55.81884       0.25570468    -55.563135      0.029520714    219.80194     -60.484503      3375         
      6360  -55.887008      0.35152969    -55.535478      0.029520714    302.17245     -339.03173      3375         
[...]
     48420  -55.92628       0.42562719    -55.500653      0.029520714    365.86614     -652.03978      3375         
     48430  -56.049928      0.51047383    -55.539454      0.029520714    438.79972      941.39491      3375         
     48440  -55.90101       0.34230693    -55.558703      0.029520714    294.24463      1328.7536      3375         
     48450  -55.939991      0.36982468    -55.570166      0.029520714    317.8987       67.956063      3375         
     48460  -55.968245      0.36899639    -55.599249      0.029520714    317.1867      -1012.2829      3375         
     48470  -56.082904      0.4669201     -55.615984      0.029520714    401.36123     -769.2054       3375         
     48480  -55.882168      0.25873521    -55.623433      0.029520714    222.40697      285.38238      3375         
     48490  -56.040076      0.39926863    -55.640807      0.029520714    343.2085       514.86727      3375         
     48500  -56.108937      0.45630377    -55.652633      0.029520714    392.23551      119.21214      3375         
     48510  -55.921605      0.26176852    -55.659836      0.029520714    225.01438     -137.7639       3375         
     48520  -56.001758      0.33320201    -55.668556      0.029520714    286.41811      34.925322      3375         
     48530  -56.097907      0.43307503    -55.664832      0.029520714    372.26825      418.10679      3375         
     48540  -55.983237      0.30784194    -55.675395      0.029520714    264.61877     -280.67377      3375         
     48550  -55.954762      0.26604419    -55.688718      0.029520714    228.68971     -1079.5835      3375         
     48560  -56.149304      0.47376663    -55.675538      0.029520714    407.24646      60.149318      3375         
     48570  -55.880217      0.1993475     -55.68087       0.029520714    171.35771      1367.2383      3375         
     48580  -56.007061      0.30973071    -55.69733       0.029520714    266.24234      481.31964      3375         
     48590  -56.163371      0.47275083    -55.69062       0.029520714    406.37329     -868.72548      3375         
     48600  -55.926852      0.24655443    -55.680297      0.029520714    211.93645     -967.36922      3375         
     48610  -55.997421      0.30337158    -55.694049      0.029520714    260.77607      176.22693      3375         
     48620  -56.13805       0.44832544    -55.689724      0.029520714    385.3774       1017.6303      3375         
     48630  -56.006205      0.31793916    -55.688265      0.029520714    273.29826     -123.97628      3375         
     48640  -55.973169      0.27886062    -55.694308      0.029520714    239.70663     -557.09469      3375         
     48650  -56.111543      0.42553602    -55.686007      0.029520714    365.78777      404.09981      3375         
     48660  -55.96632       0.27609479    -55.690225      0.029520714    237.32914      359.60484      3375         
     48670  -55.995218      0.29393337    -55.701285      0.029520714    252.66306     -432.94083      3375         
     48680  -56.070571      0.39117663    -55.679394      0.029520714    336.25268     -431.05927      3375         
     48690  -56.013497      0.33177538    -55.681722      0.029520714    285.19178     -297.30109      3375         
     48700  -55.970947      0.27425048    -55.696697      0.029520714    235.74378      479.15475      3375         
     48710  -56.017436      0.34193587    -55.6755        0.029520714    293.92567      893.15973      3375         
     48720  -56.102663      0.43127974    -55.671383      0.029520714    370.72503     -154.95105      3375         
     48730  -55.91224       0.2279585     -55.684281      0.029520714    195.95152     -648.19754      3375         
     48740  -56.044205      0.36968113    -55.674524      0.029520714    317.7753      -311.08592      3375         
     48750  -56.051764      0.3952572     -55.656507      0.029520714    339.76031      104.78195      3375         
     48760  -55.998604      0.33333196    -55.665272      0.029520714    286.52981      483.40492      3375         
     48770  -55.973772      0.31692651    -55.656845      0.029520714    272.4278       52.802815      3375         
     48780  -56.04195       0.39839744    -55.643553      0.029520714    342.45964     -657.74026      3375         
     48790  -56.004824      0.36114619    -55.643678      0.029520714    310.43872      394.77813      3375         
     48800  -55.944399      0.31761529    -55.626784      0.029520714    273.01987      863.84385      3375         
     48810  -56.005416      0.3854318     -55.619984      0.029520714    331.31447     -580.54583      3375         
     48820  -55.999513      0.37677743    -55.622736      0.029520714    323.87523     -1009.0892      3375         
     48830  -56.034176      0.44329045    -55.590885      0.029520714    381.04935     -86.137822      3375         
     48840  -55.827953      0.25628428    -55.571669      0.029520714    220.30017      1116.3335      3375         
     48850  -56.056896      0.48197286    -55.574923      0.029520714    414.30048      938.6951       3375         
     48860  -55.96281       0.4079323     -55.554877      0.029520714    350.65574     -916.56232      3375         
     48870  -55.879501      0.36505457    -55.514446      0.029520714    313.79834     -1481.599       3375         
     48880  -56.053657      0.54902171    -55.504635      0.029520714    471.9352       812.87079      3375         
     48890  -55.922309      0.43237064    -55.489938      0.029520714    371.66276      1259.3988      3375         
     48900  -55.841092      0.37434511    -55.466746      0.029520714    321.78442     -856.77291      3375         
     48910  -55.917292      0.46564282    -55.451649      0.029520714    400.26329     -748.95888      3375         
     48920  -56.099432      0.66824208    -55.43119       0.029520714    574.41619      546.41923      3375         
     48930  -55.747982      0.32441665    -55.423565      0.029520714    278.86627      868.62993      3375         
     48940  -55.899445      0.47674615    -55.422699      0.029520714    409.80764     -56.057689      3375         
     48950  -55.884972      0.49417026    -55.390802      0.029520714    424.78528     -921.78693      3375         
     48960  -55.890968      0.49892302    -55.392045      0.029520714    428.87072     -493.84619      3375         
     48970  -55.919382      0.51505088    -55.404331      0.029520714    442.73411      642.36866      3375         
     48980  -55.831532      0.43036613    -55.401165      0.029520714    369.9397       392.84477      3375         
     48990  -55.874028      0.47404072    -55.399987      0.029520714    407.48207     -179.29949      3375         
     49000  -55.858756      0.43819458    -55.420561      0.029520714    376.66898     -29.163748      3375         
     49010  -56.040008      0.59525673    -55.444751      0.029520714    511.6785      -15.551047      3375         
     49020  -55.861801      0.40949121    -55.45231       0.029520714    351.99577      62.239958      3375         
     49030  -55.979103      0.50474725    -55.474356      0.029520714    433.87719     -27.069266      3375         
     49040  -55.886185      0.37541932    -55.510765      0.029520714    322.70781     -289.71019      3375         
     49050  -56.001328      0.45327218    -55.548056      0.029520714    389.62958     -466.11027      3375         
     49060  -55.956147      0.37792883    -55.578219      0.029520714    324.86496      440.32314      3375         
     49070  -55.974487      0.37773978    -55.596747      0.029520714    324.70245      1066.1886      3375         
     49080  -56.013483      0.37179715    -55.641685      0.029520714    319.59421     -103.13962      3375         
     49090  -56.001548      0.32338644    -55.678161      0.029520714    277.98071     -1258.1122      3375         
     49100  -56.010391      0.33617499    -55.674216      0.029520714    288.97366     -380.07326      3375         
     49110  -55.970426      0.27358979    -55.696836      0.029520714    235.17585      965.97447      3375         
     49120  -56.15049       0.42049246    -55.729998      0.029520714    361.45236      504.62581      3375         
     49130  -55.986264      0.25042714    -55.735837      0.029520714    215.2654      -531.70241      3375         
     49140  -56.077908      0.34573147    -55.732177      0.029520714    297.18834     -383.10646      3375         
     49150  -56.018911      0.26645781    -55.752453      0.029520714    229.04526      641.18954      3375         
     49160  -56.051291      0.28979199    -55.761499      0.029520714    249.10316      333.31889      3375         
     49170  -56.121319      0.35735037    -55.763968      0.029520714    307.17586     -1253.2224      3375         
     49180  -56.072154      0.30618927    -55.765964      0.029520714    263.19815     -800.1426       3375         
     49190  -55.968394      0.20696784    -55.761426      0.029520714    177.9081       1524.077       3375         
     49200  -56.044461      0.27273171    -55.77173       0.029520714    234.43826      1358.0867      3375         
     49210  -56.182133      0.39809222    -55.784041      0.029520714    342.19727     -869.24668      3375         
     49220  -55.935185      0.18479329    -55.750392      0.029520714    158.84701     -1096.5877      3375         
     49230  -56.058393      0.29663785    -55.761755      0.029520714    254.98781     -190.61378      3375         
     49240  -56.141643      0.3625318     -55.779111      0.029520714    311.62979      297.26786      3375         
     49250  -55.960897      0.19928255    -55.761614      0.029520714    171.30188      367.86708      3375         
     49260  -56.046199      0.30774976    -55.73845       0.029520714    264.53953      199.9596       3375         
     49270  -56.142985      0.38886461    -55.754121      0.029520714    334.26528      249.80617      3375         
     49280  -56.002337      0.24658241    -55.755754      0.029520714    211.96051      95.580432      3375         
     49290  -55.947449      0.22507087    -55.722379      0.029520714    193.46934     -650.29041      3375         
     49300  -56.215394      0.49252875    -55.722865      0.029520714    423.37425     -459.84583      3375         
     49310  -55.955616      0.23595453    -55.719661      0.029520714    202.82485      243.41055      3375         
     49320  -55.979375      0.26864041    -55.710734      0.029520714    230.9214      -48.118684      3375         
     49330  -56.113171      0.41619404    -55.696977      0.029520714    357.75746      631.44944      3375         
     49340  -56.033574      0.35627538    -55.677298      0.029520714    306.25181      872.79729      3375         
     49350  -55.881847      0.20854001    -55.673307      0.029520714    179.25953     -821.59232      3375         
     49360  -56.091074      0.41585294    -55.675221      0.029520714    357.46426     -1401.2812      3375         
     49370  -56.035293      0.40548696    -55.629806      0.029520714    348.55374      126.6616       3375         
     49380  -55.862949      0.24724672    -55.615703      0.029520714    212.53154      1370.3881      3375         
     49390  -56.103114      0.48802682    -55.615087      0.029520714    419.50442      760.51108      3375         
     49400  -55.978935      0.38725473    -55.59168       0.029520714    332.88144     -935.95514      3375         
     49410  -55.874828      0.31568612    -55.559142      0.029520714    271.36157     -1081.2143      3375         
     49420  -55.941204      0.39213249    -55.549072      0.029520714    337.07433      874.0262       3375         
     49430  -56.140086      0.6050386     -55.535048      0.029520714    520.08692      623.49689      3375         
     49440  -55.843208      0.33280674    -55.510401      0.029520714    286.07833     -1206.4281      3375         
     49450  -55.90659       0.43111544    -55.475474      0.029520714    370.5838      -456.13461      3375         
     49460  -56.016648      0.56228097    -55.454367      0.029520714    483.33276      1427.2495      3375         
     49470  -55.864609      0.41254251    -55.452066      0.029520714    354.61864      720.94331      3375         
     49480  -55.857473      0.4143241     -55.443149      0.029520714    356.15008     -1149.4861      3375         
     49490  -55.876255      0.48536577    -55.390889      0.029520714    417.217       -802.73888      3375         
     49500  -55.91272       0.51909701    -55.393623      0.029520714    446.21214      570.97084      3375         
     49510  -55.848573      0.4455994     -55.402973      0.029520714    383.03411      998.11231      3375         
     49520  -55.92124       0.56369003    -55.35755       0.029520714    484.54398     -564.83176      3375         
     49530  -55.829514      0.49011962    -55.339395      0.029520714    421.30338     -1026.6334      3375         
     49540  -55.821687      0.47159105    -55.350096      0.029520714    405.37635      543.38755      3375         
     49550  -55.996477      0.65491606    -55.341561      0.029520714    562.96124      849.96618      3375         
     49560  -55.807651      0.47646955    -55.331182      0.029520714    409.56987     -78.901792      3375         
     49570  -55.81366       0.48031229    -55.333348      0.029520714    412.87306     -132.71981      3375         
     49580  -55.847587      0.50485166    -55.342735      0.029520714    433.96693     -477.14842      3375         
     49590  -56.01207       0.63461998    -55.37745       0.029520714    545.51487     -961.13074      3375         
     49600  -55.778709      0.38144079    -55.397268      0.029520714    327.88382      392.92946      3375         
     49610  -55.887608      0.48906963    -55.398539      0.029520714    420.40082      1396.7615      3375         
     49620  -55.917391      0.45877464    -55.458616      0.029520714    394.35945      362.93626      3375         
     49630  -55.954785      0.43196747    -55.522818      0.029520714    371.3162      -1148.7999      3375         
     49640  -55.870492      0.36736497    -55.503127      0.029520714    315.78434     -663.35925      3375         
     49650  -55.971438      0.41035391    -55.561084      0.029520714    352.73733      755.20933      3375         
     49660  -56.063987      0.44547518    -55.618512      0.029520714    382.92733      193.19432      3375         
     49670  -55.886995      0.25500699    -55.631988      0.029520714    219.20222     -785.11302      3375         
     49680  -56.12067       0.47931847    -55.641351      0.029520714    412.01878      309.91551      3375         
     49690  -56.010299      0.32381491    -55.686484      0.029520714    278.34902      1309.7158      3375         
     49700  -55.947471      0.24064641    -55.706824      0.029520714    206.85796     -5.395527       3375         
     49710  -56.053699      0.34093474    -55.712764      0.029520714    293.0651      -1711.9263      3375         
     49720  -56.151316      0.42521494    -55.726101      0.029520714    365.51177     -958.1453       3375         
     49730  -55.96075       0.22143887    -55.739311      0.029520714    190.3473       1337.6713      3375         
     49740  -56.025109      0.26920934    -55.755899      0.029520714    231.41045      1366.4539      3375         
     49750  -56.11845       0.34330518    -55.775145      0.029520714    295.10272     -443.19518      3375         
     49760  -56.012102      0.25405067    -55.758052      0.029520714    218.38017     -744.52707      3375         
     49770  -56.082876      0.31076335    -55.772113      0.029520714    267.12999     -82.202041      3375         
     49780  -56.078065      0.28070792    -55.797357      0.029520714    241.29455      43.426524      3375         
     49790  -56.01729       0.2332897     -55.784001      0.029520714    200.53419     -241.72272      3375         
     49800  -56.066077      0.29326957    -55.772807      0.029520714    252.09246      44.169239      3375         
     49810  -56.136756      0.34497567    -55.791781      0.029520714    296.53865      734.42229      3375         
     49820  -56.092297      0.29163945    -55.800657      0.029520714    250.69122      383.675        3375         
     49830  -55.979305      0.19506297    -55.784242      0.029520714    167.67476     -673.96373      3375         
     49840  -56.061993      0.27476356    -55.78723       0.029520714    236.18482     -478.91248      3375         
     49850  -56.119898      0.3305666     -55.789332      0.029520714    284.15272      74.878971      3375         
     49860  -56.112841      0.32515968    -55.787681      0.029520714    279.50497     -177.57167      3375         
     49870  -55.99351       0.21751255    -55.775997      0.029520714    186.97225      392.92386      3375         
     49880  -56.088078      0.32598289    -55.762095      0.029520714    280.2126       941.92126      3375         
     49890  -56.0221        0.25516322    -55.766937      0.029520714    219.33651     -240.76475      3375         
     49900  -56.050028      0.27740129    -55.772627      0.029520714    238.4522      -1108.0411      3375         
     49910  -56.10078       0.36981467    -55.730965      0.029520714    317.89009     -184.95713      3375         
     49920  -55.966655      0.24255013    -55.724105      0.029520714    208.49438      719.18238      3375         
     49930  -56.021287      0.28968005    -55.731607      0.029520714    249.00693      383.31663      3375         
     49940  -56.093586      0.38655219    -55.707034      0.029520714    332.27754     -515.44887      3375         
     49950  -56.002412      0.33574636    -55.666666      0.029520714    288.60521     -321.00811      3375         
     49960  -55.983235      0.31909001    -55.664145      0.029520714    274.28753      1046.737       3375         
     49970  -56.110133      0.45877224    -55.651361      0.029520714    394.35739      333.08563      3375         
     49980  -55.889829      0.26753752    -55.622292      0.029520714    229.97337     -1561.8558      3375         
     49990  -56.006839      0.40950864    -55.59733       0.029520714    352.01074     -539.46326      3375         
     50000  -56.066331      0.4906306     -55.5757        0.029520714    421.74261      1221.5459      3375         
Loop time of 82.2931 on 3 procs for 50000 steps with 10 atoms

Performance: 26.248 ns/day, 0.914 hours/ns, 607.584 timesteps/s, 6.076 katom-step/s
167.9% CPU use with 3 MPI tasks x no OpenMP threads

MPI task timing breakdown:
Section |  min time  |  avg time  |  max time  |%varavg| %total
---------------------------------------------------------------
Pair    | 26.908     | 44.274     | 78.558     | 364.3 | 53.80
Neigh   | 0.00064263 | 0.0008567  | 0.0012098  |   0.0 |  0.00
Comm    | 1.0566     | 35.259     | 52.617     | 407.3 | 42.85
Output  | 0.51194    | 0.53591    | 0.57882    |   4.2 |  0.65
Modify  | 1.8886     | 1.9755     | 2.0765     |   5.5 |  2.40
Other   |            | 0.2477     |            |       |  0.30

Nlocal:        3.33333 ave          10 max           0 min
Histogram: 2 0 0 0 0 0 0 0 0 1
Nghost:        68.6667 ave          82 max          44 min
Histogram: 1 0 0 0 0 0 0 0 0 2
Neighs:              0 ave           0 max           0 min
Histogram: 3 0 0 0 0 0 0 0 0 0
FullNghs:           30 ave          90 max           0 min
Histogram: 2 0 0 0 0 0 0 0 0 1

Total # of neighbors = 90
Ave neighs/atom = 9
Neighbor list builds = 131
Dangerous builds = 0

write_data	restart.data
System init for write_data ...
Generated 0 of 1 mixed pair_coeff terms from geometric mixing rule
#
Total wall time: 0:01:24
