 vasp.6.4.2 20Jul23 (build Apr 10 2024 13:39:58) complex                        
  
 executed on             LinuxIFC date 2024.05.18  18:54:59
 running   16 mpi-ranks, on    1 nodes
 distrk:  each k-point on   16 cores,    1 groups
 distr:  one band on NCORE=   2 cores,    8 groups


--------------------------------------------------------------------------------------------------------


 INCAR:
   ISTART = 0
   ISPIN = 1
   LREAL = Auto
   ENCUT = 520
   NPAR = 8
   LPLANE = .TRUE.
   LSCALU = .FALSE.
   NSIM = 4
   LWAVE = .FALSE.
   LCHARG = .FALSE.
   ADDGRID = .TRUE.
   LASPH = .TRUE.
   PREC = Accurate
   ISMEAR = 0
   SIGMA = 0.05
   EDIFF = 1E-06
   NSW = 0
   TEBEG = 300
   TEEND = 700     	
   ISYM = 0
   NWRITE = 2

 POTCAR:   PAW_PBE C 08Apr2002                    
 POTCAR:   PAW_PBE H 15Jun2001                    
 POTCAR:   PAW_PBE C 08Apr2002                    
   VRHFIN =C: s2p2                                                                                  
   LEXCH  = PE                                                                                      
   EATOM  =   147.1560 eV,   10.8157 Ry                                                             
                                                                                                    
   TITEL  = PAW_PBE C 08Apr2002                                                                     
   LULTRA =        F    use ultrasoft PP ?                                                          
   IUNSCR =        0    unscreen: 0-lin 1-nonlin 2-no                                               
   RPACOR =     .000    partial core radius                                                         
   POMASS =   12.011; ZVAL   =    4.000    mass and valenz                                          
   RCORE  =    1.500    outmost cutoff radius                                                       
   RWIGS  =    1.630; RWIGS  =     .863    wigner-seitz radius (au A)                               
   ENMAX  =  400.000; ENMIN  =  300.000 eV                                                          
   ICORE  =        2    local potential                                                             
   LCOR   =        T    correct aug charges                                                         
   LPAW   =        T    paw PP                                                                      
   EAUG   =  644.873                                                                                
   DEXC   =     .000                                                                                
   RMAX   =    2.266    core radius for proj-oper                                                   
   RAUG   =    1.300    factor for augmentation sphere                                              
   RDEP   =    1.501    radius for radial grids                                                     
   RDEPT  =    1.300    core radius for aug-charge                                                  
   QCUT   =   -5.516; QGAM   =   11.032    optimization parameters                                  
                                                                                                    
   Description                                                                                      
     l     E      TYP  RCUT    TYP  RCUT                                                            
     0   .000     23  1.200                                                                         
     0   .000     23  1.200                                                                         
     1   .000     23  1.500                                                                         
     1  2.500     23  1.500                                                                         
     2   .000      7  1.500                                                                         
  local pseudopotential read in
  atomic valenz-charges read in
  non local Contribution for L=           0  read in
    real space projection operators read in
  non local Contribution for L=           0  read in
    real space projection operators read in
  non local Contribution for L=           1  read in
    real space projection operators read in
  non local Contribution for L=           1  read in
    real space projection operators read in
    PAW grid and wavefunctions read in
 
   number of l-projection  operators is LMAX  =           4
   number of lm-projection operators is LMMAX =           8
 
 POTCAR:   PAW_PBE H 15Jun2001                    
   VRHFIN =H: ultrasoft test                                                                        
   LEXCH  = PE                                                                                      
   EATOM  =    12.4884 eV,     .9179 Ry                                                             
                                                                                                    
   TITEL  = PAW_PBE H 15Jun2001                                                                     
   LULTRA =        F    use ultrasoft PP ?                                                          
   IUNSCR =        0    unscreen: 0-lin 1-nonlin 2-no                                               
   RPACOR =     .000    partial core radius                                                         
   POMASS =    1.000; ZVAL   =    1.000    mass and valenz                                          
   RCORE  =    1.100    outmost cutoff radius                                                       
   RWIGS  =     .700; RWIGS  =     .370    wigner-seitz radius (au A)                               
   ENMAX  =  250.000; ENMIN  =  200.000 eV                                                          
   RCLOC  =     .701    cutoff for local pot                                                        
   LCOR   =        T    correct aug charges                                                         
   LPAW   =        T    paw PP                                                                      
   EAUG   =  400.000                                                                                
   RMAX   =    2.174    core radius for proj-oper                                                   
   RAUG   =    1.200    factor for augmentation sphere                                              
   RDEP   =    1.112    radius for radial grids                                                     
   QCUT   =   -5.749; QGAM   =   11.498    optimization parameters                                  
                                                                                                    
   Description                                                                                      
     l     E      TYP  RCUT    TYP  RCUT                                                            
     0   .000     23  1.100                                                                         
     0   .500     23  1.100                                                                         
     1  -.300     23  1.100                                                                         
  local pseudopotential read in
  atomic valenz-charges read in
  non local Contribution for L=           0  read in
    real space projection operators read in
  non local Contribution for L=           0  read in
    real space projection operators read in
  non local Contribution for L=           1  read in
    real space projection operators read in
    PAW grid and wavefunctions read in
 
   number of l-projection  operators is LMAX  =           3
   number of lm-projection operators is LMMAX =           5
 
 Optimization of the real space projectors (new method)

 maximal supplied QI-value         = 25.13
 optimisation between [QCUT,QGAM] = [ 11.56, 23.12] = [ 37.43,149.72] Ry 
 Optimized for a Real-space Cutoff    1.04 Angstroem

   l    n(q)    QCUT    max X(q) W(low)/X(q) W(high)/X(q)  e(spline) 
   0      7    11.561     5.582    0.47E-04    0.94E-04    0.17E-07
   0      7    11.561    69.432    0.20E-03    0.59E-03    0.21E-06
   1      7    11.561     2.780    0.24E-04    0.70E-04    0.44E-07
   1      7    11.561     4.549    0.18E-03    0.25E-03    0.12E-06
 Optimization of the real space projectors (new method)

 maximal supplied QI-value         = 34.20
 optimisation between [QCUT,QGAM] = [ 11.63, 23.26] = [ 37.87,151.49] Ry 
 Optimized for a Real-space Cutoff    1.21 Angstroem

   l    n(q)    QCUT    max X(q) W(low)/X(q) W(high)/X(q)  e(spline) 
   0      8    11.629     4.436    0.19E-04    0.32E-04    0.47E-07
   0      8    11.629    16.131    0.16E-03    0.33E-03    0.21E-06
   1      8    11.629     4.654    0.18E-03    0.16E-03    0.26E-06
 PAW_PBE C 08Apr2002                    :
 energy of atom  1       EATOM= -147.1560
 kinetic energy error for atom=    0.0071 (will be added to EATOM!!)
 PAW_PBE H 15Jun2001                    :
 energy of atom  2       EATOM=  -12.4884
 kinetic energy error for atom=    0.0014 (will be added to EATOM!!)
 
 
 POSCAR:  C  H
  positions in cartesian coordinates
  No initial velocities read in
 exchange correlation table for  LEXCH =        8
   RHO(1)=    0.500       N(1)  =     2000
   RHO(2)=  100.500       N(2)  =     4000

 VTST: version 4.1, (05/19/21)

 CHAIN: initializing optimizer
 
 OPT: Using VASP Dynamics algorithm
 CHAIN: Read ICHAIN            0
 
 POSCAR:  C  H
  positions in cartesian coordinates
  No initial velocities read in
 


--------------------------------------------------------------------------------------------------------


 ion  position               nearest neighbor table
   1  0.502  0.541  0.449-   6 1.04   5 1.12   2 1.45   4 1.64
   2  0.517  0.445  0.453-   7 1.07   3 1.34   1 1.45
   3  0.503  0.433  0.540-   8 1.11   2 1.34   4 1.63
   4  0.484  0.538  0.557-   9 1.07  10 1.12   3 1.63   1 1.64
   5  0.563  0.581  0.431-   1 1.12
   6  0.447  0.562  0.412-   1 1.04
   7  0.534  0.398  0.401-   2 1.07
   8  0.504  0.377  0.588-   3 1.11
   9  0.533  0.573  0.595-   4 1.07
  10  0.413  0.553  0.574-   4 1.12
 

IMPORTANT INFORMATION: All symmetrisations will be switched off!
NOSYMM: (Re-)initialisation of all symmetry stuff for point group C_1.


----------------------------------------------------------------------------------------

                                     Primitive cell                                     

  volume of cell :    3375.0000

  direct lattice vectors                    reciprocal lattice vectors
    15.000000000  0.000000000  0.000000000     0.066666667  0.000000000  0.000000000
     0.000000000 15.000000000  0.000000000     0.000000000  0.066666667  0.000000000
     0.000000000  0.000000000 15.000000000     0.000000000  0.000000000  0.066666667

  length of vectors
    15.000000000 15.000000000 15.000000000     0.066666667  0.066666667  0.066666667

  position of ions in fractional coordinates (direct lattice)
     0.502266661  0.540533320  0.449000009
     0.516933346  0.444933319  0.452799988
     0.503400008  0.432866669  0.540199979
     0.483933322  0.538266691  0.556933339
     0.562533315  0.581000010  0.431133334
     0.447066657  0.561533356  0.412133344
     0.533733304  0.398066680  0.401333332
     0.504266675  0.376533318  0.588133303
     0.532933331  0.573000018  0.594799995
     0.412866656  0.553200022  0.573533312

  ion indices of the primitive-cell ions
   primitive index   ion index
                 1           1
                 2           2
                 3           3
                 4           4
                 5           5
                 6           6
                 7           7
                 8           8
                 9           9
                10          10

----------------------------------------------------------------------------------------

 
 
 KPOINTS: K-Spacing Value to Generate K-Mesh: 1.00

Automatic generation of k-mesh.
 Grid dimensions read from file:
 generate k-points for:    1    1    1

 Generating k-lattice:

  Cartesian coordinates                     Fractional coordinates (reciprocal lattice)
     0.066666667  0.000000000  0.000000000     1.000000000  0.000000000  0.000000000
     0.000000000  0.066666667  0.000000000     0.000000000  1.000000000  0.000000000
     0.000000000  0.000000000  0.066666667     0.000000000  0.000000000  1.000000000

  Length of vectors
     0.066666667  0.066666667  0.066666667

  Shift w.r.t. Gamma in fractional coordinates (k-lattice)
     0.000000000  0.000000000  0.000000000

 
 Subroutine IBZKPT returns following result:
 ===========================================
 
 Found      1 irreducible k-points:
 
 Following reciprocal coordinates:
            Coordinates               Weight
  0.000000  0.000000  0.000000      1.000000
 
 Following cartesian coordinates:
            Coordinates               Weight
  0.000000  0.000000  0.000000      1.000000
 


--------------------------------------------------------------------------------------------------------




 Dimension of arrays:
   k-points           NKPTS =      1   k-points in BZ     NKDIM =      1   number of bands    NBANDS=     24
   number of dos      NEDOS =    301   number of ions     NIONS =     10
   non local maximal  LDIM  =      4   non local SUM 2l+1 LMDIM =      8
   total plane-waves  NPLWV = ******
   max r-space proj   IRMAX =   3145   max aug-charges    IRDMAX=  39494
   dimension x,y,z NGX =   112 NGY =  112 NGZ =  112
   dimension x,y,z NGXF=   224 NGYF=  224 NGZF=  224
   support grid    NGXF=   448 NGYF=  448 NGZF=  448
   ions per type =               4   6
   NGX,Y,Z   is equivalent  to a cutoff of  12.41, 12.41, 12.41 a.u.
   NGXF,Y,Z  is equivalent  to a cutoff of  24.83, 24.83, 24.83 a.u.

 SYSTEM =  unknown system                          
 POSCAR =   C  H                                   

 Startparameter for this run:
   NWRITE =      2    write-flag & timer
   PREC   = accura    normal or accurate (medium, high low for compatibility)
   ISTART =      0    job   : 0-new  1-cont  2-samecut
   ICHARG =      2    charge: 1-file 2-atom 10-const
   ISPIN  =      1    spin polarized calculation?
   LNONCOLLINEAR =      F non collinear calculations
   LSORBIT =      F    spin-orbit coupling
   INIWAV =      1    electr: 0-lowe 1-rand  2-diag
   LASPH  =      T    aspherical Exc in radial PAW
 Electronic Relaxation 1
   ENCUT  =  520.0 eV  38.22 Ry    6.18 a.u.  27.89 27.89 27.89*2*pi/ulx,y,z
   ENINI  =  520.0     initial cutoff
   ENAUG  =  644.9 eV  augmentation charge cutoff
   NELM   =     60;   NELMIN=  2; NELMDL= -5     # of ELM steps 
   EDIFF  = 0.1E-05   stopping-criterion for ELM
   LREAL  =      T    real-space projection
   NLSPLINE    = F    spline interpolate recip. space projectors
   LCOMPAT=      F    compatible to vasp.4.4
   GGA_COMPAT  = T    GGA compatible to vasp.4.4-vasp.4.6
   LMAXPAW     = -100 max onsite density
   LMAXMIX     =    2 max onsite mixed and CHGCAR
   VOSKOWN=      0    Vosko Wilk Nusair interpolation
   ROPT   =   -0.00025  -0.00025
 Ionic relaxation
   EDIFFG = 0.1E-04   stopping-criterion for IOM
   NSW    =      0    number of steps for IOM
   NBLOCK =      1;   KBLOCK =      1    inner block; outer block 
   IBRION =     -1    ionic relax: 0-MD 1-quasi-New 2-CG
   NFREE  =      0    steps in history (QN), initial steepest desc. (CG)
   ISIF   =      2    stress and relaxation
   IWAVPR =     10    prediction:  0-non 1-charg 2-wave 3-comb
   ISYM   =      0    0-nonsym 1-usesym 2-fastsym
   LCORR  =      T    Harris-Foulkes like correction to forces

   POTIM  = 0.5000    time-step for ionic-motion
   TEIN   =    0.0    initial temperature
   TEBEG  =  300.0;   TEEND  = 700.0 temperature during run
   SMASS  =  -3.00    Nose mass-parameter (am)
   estimated Nose-frequenzy (Omega)   =  0.10E-29 period in steps = 0.13E+47 mass=  -0.514E-26a.u.
   SCALEE = 1.0000    scale energy and forces
   NPACO  =    256;   APACO  = 10.0  distance and # of slots for P.C.
   PSTRESS=    0.0 pullay stress

  Mass of Ions in am
   POMASS =  12.01  1.00
  Ionic Valenz
   ZVAL   =   4.00  1.00
  Atomic Wigner-Seitz radii
   RWIGS  =  -1.00 -1.00
  virtual crystal weights 
   VCA    =   1.00  1.00
   NELECT =      22.0000    total number of electrons
   NUPDOWN=      -1.0000    fix difference up-down

 DOS related values:
   EMIN   =  10.00;   EMAX   =-10.00  energy-range for DOS
   EFERMI =   0.00;   METHOD = LEGACY      
   ISMEAR =     0;   SIGMA  =   0.05  broadening in eV -4-tet -1-fermi 0-gaus

 Electronic relaxation 2 (details)
   IALGO  =     38    algorithm
   LDIAG  =      T    sub-space diagonalisation (order eigenvalues)
   LSUBROT=      F    optimize rotation matrix (better conditioning)
   TURBO    =      0    0=normal 1=particle mesh
   IRESTART =      0    0=no restart 2=restart with 2 vectors
   NREBOOT  =      0    no. of reboots
   NMIN     =      0    reboot dimension
   EREF     =   0.00    reference energy to select bands
   IMIX   =      4    mixing-type and parameters
     AMIX     =   0.40;   BMIX     =  1.00
     AMIX_MAG =   1.60;   BMIX_MAG =  1.00
     AMIN     =   0.10
     WC   =   100.;   INIMIX=   1;  MIXPRE=   1;  MAXMIX= -45

 Intra band minimization:
   WEIMIN = 0.0000     energy-eigenvalue tresh-hold
   EBREAK =  0.10E-07  absolut break condition
   DEPER  =   0.30     relativ break condition  

   TIME   =   0.40     timestep for ELM

  volume/ion in A,a.u.               =     337.50      2277.56
  Fermi-wavevector in a.u.,A,eV,Ry     =   0.305814  0.577905  1.272449  0.093522
  Thomas-Fermi vector in A             =   1.179187
 
 Write flags
   LWAVE        =      F    write WAVECAR
   LDOWNSAMPLE  =      F    k-point downsampling of WAVECAR
   LCHARG       =      F    write CHGCAR
   LVTOT        =      F    write LOCPOT, total local potential
   LVHAR        =      F    write LOCPOT, Hartree potential only
   LELF         =      F    write electronic localiz. function (ELF)
   LORBIT       =      0    0 simple, 1 ext, 2 COOP (PROOUT), +10 PAW based schemes


 Dipole corrections
   LMONO  =      F    monopole corrections only (constant potential shift)
   LDIPOL =      F    correct potential (dipole corrections)
   IDIPOL =      0    1-x, 2-y, 3-z, 4-all directions 
   EPSILON=  1.0000000 bulk dielectric constant

 Exchange correlation treatment:
   GGA     =    --    GGA type
   LEXCH   =     8    internal setting for exchange type
   LIBXC   =     F    Libxc                    
   VOSKOWN =     0    Vosko Wilk Nusair interpolation
   LHFCALC =     F    Hartree Fock is set to
   LHFONE  =     F    Hartree Fock one center treatment
   AEXX    =    0.0000 exact exchange contribution

 Linear response parameters
   LEPSILON=     F    determine dielectric tensor
   LRPA    =     F    only Hartree local field effects (RPA)
   LNABLA  =     F    use nabla operator in PAW spheres
   LVEL    =     F    velocity operator in full k-point grid
   CSHIFT  =0.1000    complex shift for real part using Kramers Kronig
   OMEGAMAX=  -1.0    maximum frequency
   DEG_THRESHOLD= 0.2000000E-02 threshold for treating states as degnerate
   RTIME   =   -0.100 relaxation time in fs
  (WPLASMAI=    0.000 imaginary part of plasma frequency in eV, 0.658/RTIME)
   DFIELD  = 0.0000000 0.0000000 0.0000000 field for delta impulse in time
 
  Optional k-point grid parameters
   LKPOINTS_OPT  =     F    use optional k-point grid
   KPOINTS_OPT_MODE=     1    mode for optional k-point grid
 
 Orbital magnetization related:
   ORBITALMAG=     F  switch on orbital magnetization
   LCHIMAG   =     F  perturbation theory with respect to B field
   DQ        =  0.001000  dq finite difference perturbation B field
   LLRAUG    =     F  two centre corrections for induced B field
   LBONE     =     F  B-component reconstruction in AE one-centre
   LVGVCALC  =     T  calculate vGv susceptibility
   LVGVAPPL  =     F  apply vGv susceptibility instead of pGv for G=0

 Random number generation:
   RANDOM_GENERATOR = DEFAULT
   PCG_SEED         = not used


--------------------------------------------------------------------------------------------------------


 Static calculation
 charge density and potential will be updated during run
 non-spin polarized calculation
 Variant of blocked Davidson
 Davidson routine will perform the subspace rotation
 perform sub-space diagonalisation
    after iterative eigenvector-optimisation
 modified Broyden-mixing scheme, WC =      100.0
 initial mixing is a Kerker type mixing with AMIX =  0.4000 and BMIX =      1.0000
 Hartree-type preconditioning will be used
 using additional bands           13
 real space projection scheme for non local part
 calculate Harris-corrections to forces 
   (improved forces if not selfconsistent)
 use gradient corrections 
 use of overlap-Matrix (Vanderbilt PP)
 Gauss-broadening in eV      SIGMA  =   0.05


--------------------------------------------------------------------------------------------------------


  energy-cutoff  :      520.00
  volume of cell :     3375.00
      direct lattice vectors                 reciprocal lattice vectors
    15.000000000  0.000000000  0.000000000     0.066666667  0.000000000  0.000000000
     0.000000000 15.000000000  0.000000000     0.000000000  0.066666667  0.000000000
     0.000000000  0.000000000 15.000000000     0.000000000  0.000000000  0.066666667

  length of vectors
    15.000000000 15.000000000 15.000000000     0.066666667  0.066666667  0.066666667


 
 k-points in units of 2pi/SCALE and weight: K-Spacing Value to Generate K-Mesh: 1.00
   0.00000000  0.00000000  0.00000000       1.000
 
 k-points in reciprocal lattice and weights: K-Spacing Value to Generate K-Mesh: 1.00
   0.00000000  0.00000000  0.00000000       1.000
 
 position of ions in fractional coordinates (direct lattice) 
   0.50226666  0.54053332  0.44900001
   0.51693335  0.44493332  0.45279999
   0.50340001  0.43286667  0.54019998
   0.48393332  0.53826669  0.55693334
   0.56253332  0.58100001  0.43113333
   0.44706666  0.56153336  0.41213334
   0.53373330  0.39806668  0.40133333
   0.50426668  0.37653332  0.58813330
   0.53293333  0.57300002  0.59480000
   0.41286666  0.55320002  0.57353331
 
 position of ions in cartesian coordinates  (Angst):
   7.53399992  8.10799980  6.73500013
   7.75400019  6.67399979  6.79199982
   7.55100012  6.49300003  8.10299969
   7.25899982  8.07400036  8.35400009
   8.43799973  8.71500015  6.46700001
   6.70599985  8.42300034  6.18200016
   8.00599957  5.97100019  6.01999998
   7.56400013  5.64799976  8.82199955
   7.99399996  8.59500027  8.92199993
   6.19299984  8.29800034  8.60299969
 


--------------------------------------------------------------------------------------------------------


 k-point   1 :   0.0000 0.0000 0.0000  plane waves:   90879

 maximum and minimum number of plane-waves per node :     45467    45412

 maximum number of plane-waves:     90879
 maximum index in each direction: 
   IXMAX=   27   IYMAX=   27   IZMAX=   27
   IXMIN=  -27   IYMIN=  -27   IZMIN=  -27


 real space projection operators:
  total allocation   :       1183.18 KBytes
  max/ min on nodes  :        592.47        590.71


 parallel 3D FFT for wavefunctions:
    minimum data exchange during FFTs selected (reduces bandwidth)
 parallel 3D FFT for charge:
    minimum data exchange during FFTs selected (reduces bandwidth)


 total amount of memory used by VASP MPI-rank0   224777. kBytes
=======================================================================

   base      :      30000. kBytes
   nonlr-proj:       1253. kBytes
   fftplans  :     123538. kBytes
   grid      :      67787. kBytes
   one-center:         15. kBytes
   wavefun   :       2184. kBytes
 
     INWAV:  cpu time      0.0000: real time      0.0000
 Broyden mixing: mesh for mixing (old mesh)
   NGX = 55   NGY = 55   NGZ = 55
  (NGX  =224   NGY  =224   NGZ  =224)
  gives a total of 166375 points

 initial charge density was supplied:
 charge density of overlapping atoms calculated
 number of electron      22.0000000 magnetization 
 keeping initial charge density in first step


--------------------------------------------------------------------------------------------------------


 Maximum index for non-local projection operator         1506
 Maximum index for augmentation-charges         2493 (set IRDMAX)


--------------------------------------------------------------------------------------------------------


 First call to EWALD:  gamma=   0.118
 Maximum number of real-space cells 3x 3x 3
 Maximum number of reciprocal cells 3x 3x 3

    FEWALD:  cpu time      0.0010: real time      0.0010


--------------------------------------- Ionic step        1  -------------------------------------------




--------------------------------------- Iteration      1(   1)  ---------------------------------------


    POTLOK:  cpu time      0.3355: real time      0.3374
    SETDIJ:  cpu time      0.1954: real time      0.1962
     EDDAV:  cpu time      0.4201: real time      0.4224
       DOS:  cpu time      0.0003: real time      0.0003
    --------------------------------------------
      LOOP:  cpu time      0.9513: real time      0.9563

 eigenvalue-minimisations  :    64
 total energy-change (2. order) : 0.1025605E+03  (-0.5345125E+03)
 number of electron      22.0000000 magnetization 
 augmentation part       22.0000000 magnetization 

 Free energy of the ion-electron system (eV)
  ---------------------------------------------------
  alpha Z        PSCENC =         0.62641250
  Ewald energy   TEWEN  =       990.85565038
  -Hartree energ DENC   =     -1413.04452617
  -exchange      EXHF   =         0.00000000
  -V(xc)+E(xc)   XCENC  =        67.83653082
  PAW double counting   =       156.01372664     -160.66969168
  entropy T*S    EENTRO =        -0.04502421
  eigenvalues    EBANDS =      -202.52994208
  atomic energy  EATOM  =       663.51739852
  Solvation  Ediel_sol  =         0.00000000
  ---------------------------------------------------
  free energy    TOTEN  =       102.56053473 eV

  energy without entropy =      102.60555894  energy(sigma->0) =      102.58304683


--------------------------------------------------------------------------------------------------------




--------------------------------------- Iteration      1(   2)  ---------------------------------------


     EDDAV:  cpu time      0.5252: real time      0.5282
       DOS:  cpu time      0.0002: real time      0.0002
    --------------------------------------------
      LOOP:  cpu time      0.5254: real time      0.5283

 eigenvalue-minimisations  :    88
 total energy-change (2. order) :-0.1185092E+03  (-0.1129616E+03)
 number of electron      22.0000000 magnetization 
 augmentation part       22.0000000 magnetization 

 Free energy of the ion-electron system (eV)
  ---------------------------------------------------
  alpha Z        PSCENC =         0.62641250
  Ewald energy   TEWEN  =       990.85565038
  -Hartree energ DENC   =     -1413.04452617
  -exchange      EXHF   =         0.00000000
  -V(xc)+E(xc)   XCENC  =        67.83653082
  PAW double counting   =       156.01372664     -160.66969168
  entropy T*S    EENTRO =        -0.00000000
  eigenvalues    EBANDS =      -321.08420369
  atomic energy  EATOM  =       663.51739852
  Solvation  Ediel_sol  =         0.00000000
  ---------------------------------------------------
  free energy    TOTEN  =       -15.94870267 eV

  energy without entropy =      -15.94870267  energy(sigma->0) =      -15.94870267


--------------------------------------------------------------------------------------------------------




--------------------------------------- Iteration      1(   3)  ---------------------------------------


     EDDAV:  cpu time      0.4033: real time      0.4056
       DOS:  cpu time      0.0001: real time      0.0001
    --------------------------------------------
      LOOP:  cpu time      0.4034: real time      0.4057

 eigenvalue-minimisations  :    64
 total energy-change (2. order) :-0.4190411E+02  (-0.4178024E+02)
 number of electron      22.0000000 magnetization 
 augmentation part       22.0000000 magnetization 

 Free energy of the ion-electron system (eV)
  ---------------------------------------------------
  alpha Z        PSCENC =         0.62641250
  Ewald energy   TEWEN  =       990.85565038
  -Hartree energ DENC   =     -1413.04452617
  -exchange      EXHF   =         0.00000000
  -V(xc)+E(xc)   XCENC  =        67.83653082
  PAW double counting   =       156.01372664     -160.66969168
  entropy T*S    EENTRO =        -0.00000000
  eigenvalues    EBANDS =      -362.98831613
  atomic energy  EATOM  =       663.51739852
  Solvation  Ediel_sol  =         0.00000000
  ---------------------------------------------------
  free energy    TOTEN  =       -57.85281511 eV

  energy without entropy =      -57.85281511  energy(sigma->0) =      -57.85281511


--------------------------------------------------------------------------------------------------------




--------------------------------------- Iteration      1(   4)  ---------------------------------------


     EDDAV:  cpu time      0.4431: real time      0.4455
       DOS:  cpu time      0.0002: real time      0.0001
    --------------------------------------------
      LOOP:  cpu time      0.4433: real time      0.4457

 eigenvalue-minimisations  :    72
 total energy-change (2. order) :-0.4934661E+01  (-0.4928886E+01)
 number of electron      22.0000000 magnetization 
 augmentation part       22.0000000 magnetization 

 Free energy of the ion-electron system (eV)
  ---------------------------------------------------
  alpha Z        PSCENC =         0.62641250
  Ewald energy   TEWEN  =       990.85565038
  -Hartree energ DENC   =     -1413.04452617
  -exchange      EXHF   =         0.00000000
  -V(xc)+E(xc)   XCENC  =        67.83653082
  PAW double counting   =       156.01372664     -160.66969168
  entropy T*S    EENTRO =        -0.00000000
  eigenvalues    EBANDS =      -367.92297667
  atomic energy  EATOM  =       663.51739852
  Solvation  Ediel_sol  =         0.00000000
  ---------------------------------------------------
  free energy    TOTEN  =       -62.78747565 eV

  energy without entropy =      -62.78747565  energy(sigma->0) =      -62.78747565


--------------------------------------------------------------------------------------------------------




--------------------------------------- Iteration      1(   5)  ---------------------------------------


     EDDAV:  cpu time      0.4060: real time      0.4083
       DOS:  cpu time      0.0001: real time      0.0001
    CHARGE:  cpu time      0.1962: real time      0.1970
    MIXING:  cpu time      0.0175: real time      0.0176
    --------------------------------------------
      LOOP:  cpu time      0.6199: real time      0.6230

 eigenvalue-minimisations  :    64
 total energy-change (2. order) :-0.3355985E-01  (-0.3353930E-01)
 number of electron      22.0000000 magnetization 
 augmentation part        0.5762851 magnetization 

 Broyden mixing:
  rms(total) = 0.11667E+01    rms(broyden)= 0.11665E+01
  rms(prec ) = 0.14088E+01
  weight for this iteration     100.00

 Free energy of the ion-electron system (eV)
  ---------------------------------------------------
  alpha Z        PSCENC =         0.62641250
  Ewald energy   TEWEN  =       990.85565038
  -Hartree energ DENC   =     -1413.04452617
  -exchange      EXHF   =         0.00000000
  -V(xc)+E(xc)   XCENC  =        67.83653082
  PAW double counting   =       156.01372664     -160.66969168
  entropy T*S    EENTRO =        -0.00000000
  eigenvalues    EBANDS =      -367.95653652
  atomic energy  EATOM  =       663.51739852
  Solvation  Ediel_sol  =         0.00000000
  ---------------------------------------------------
  free energy    TOTEN  =       -62.82103550 eV

  energy without entropy =      -62.82103550  energy(sigma->0) =      -62.82103550


--------------------------------------------------------------------------------------------------------




--------------------------------------- Iteration      1(   6)  ---------------------------------------


    POTLOK:  cpu time      0.3079: real time      0.3095
    SETDIJ:  cpu time      0.1894: real time      0.1902
     EDDAV:  cpu time      0.4029: real time      0.4051
       DOS:  cpu time      0.0001: real time      0.0001
    CHARGE:  cpu time      0.1917: real time      0.1924
    MIXING:  cpu time      0.0141: real time      0.0142
    --------------------------------------------
      LOOP:  cpu time      1.1061: real time      1.1116

 eigenvalue-minimisations  :    64
 total energy-change (2. order) : 0.5103991E+01  (-0.7484018E+00)
 number of electron      22.0000000 magnetization 
 augmentation part        0.5316313 magnetization 

 Broyden mixing:
  rms(total) = 0.57340E+00    rms(broyden)= 0.57337E+00
  rms(prec ) = 0.68398E+00
  weight for this iteration     100.00

 eigenvalues of (default mixing * dielectric matrix)
  average eigenvalue GAMMA=   1.6376
  1.6376

 Free energy of the ion-electron system (eV)
  ---------------------------------------------------
  alpha Z        PSCENC =         0.62641250
  Ewald energy   TEWEN  =       990.85565038
  -Hartree energ DENC   =     -1461.55572299
  -exchange      EXHF   =         0.00000000
  -V(xc)+E(xc)   XCENC  =        70.16217831
  PAW double counting   =       227.25487261     -232.44366155
  entropy T*S    EENTRO =        -0.00000000
  eigenvalues    EBANDS =      -316.13417215
  atomic energy  EATOM  =       663.51739852
  Solvation  Ediel_sol  =         0.00000000
  ---------------------------------------------------
  free energy    TOTEN  =       -57.71704436 eV

  energy without entropy =      -57.71704436  energy(sigma->0) =      -57.71704436


--------------------------------------------------------------------------------------------------------




--------------------------------------- Iteration      1(   7)  ---------------------------------------


    POTLOK:  cpu time      0.3092: real time      0.3109
    SETDIJ:  cpu time      0.1944: real time      0.1953
     EDDAV:  cpu time      0.4099: real time      0.4121
       DOS:  cpu time      0.0001: real time      0.0001
    CHARGE:  cpu time      0.1937: real time      0.1944
    MIXING:  cpu time      0.0165: real time      0.0165
    --------------------------------------------
      LOOP:  cpu time      1.1238: real time      1.1293

 eigenvalue-minimisations  :    64
 total energy-change (2. order) : 0.1299262E+01  (-0.4429476E+00)
 number of electron      22.0000000 magnetization 
 augmentation part        0.5004672 magnetization 

 Broyden mixing:
  rms(total) = 0.22452E+00    rms(broyden)= 0.22446E+00
  rms(prec ) = 0.25976E+00
  weight for this iteration     100.00

 eigenvalues of (default mixing * dielectric matrix)
  average eigenvalue GAMMA=   1.7959
  1.7959  1.7959

 Free energy of the ion-electron system (eV)
  ---------------------------------------------------
  alpha Z        PSCENC =         0.62641250
  Ewald energy   TEWEN  =       990.85565038
  -Hartree energ DENC   =     -1501.55855485
  -exchange      EXHF   =         0.00000000
  -V(xc)+E(xc)   XCENC  =        72.37327221
  PAW double counting   =       288.65318109     -294.09895044
  entropy T*S    EENTRO =        -0.00000000
  eigenvalues    EBANDS =      -276.78619175
  atomic energy  EATOM  =       663.51739852
  Solvation  Ediel_sol  =         0.00000000
  ---------------------------------------------------
  free energy    TOTEN  =       -56.41778235 eV

  energy without entropy =      -56.41778235  energy(sigma->0) =      -56.41778235


--------------------------------------------------------------------------------------------------------




--------------------------------------- Iteration      1(   8)  ---------------------------------------


    POTLOK:  cpu time      0.3127: real time      0.3144
    SETDIJ:  cpu time      0.1901: real time      0.1909
     EDDAV:  cpu time      0.4062: real time      0.4084
       DOS:  cpu time      0.0001: real time      0.0001
    CHARGE:  cpu time      0.1923: real time      0.1931
    MIXING:  cpu time      0.0149: real time      0.0149
    --------------------------------------------
      LOOP:  cpu time      1.1162: real time      1.1218

 eigenvalue-minimisations  :    64
 total energy-change (2. order) : 0.1745553E+00  (-0.2898802E-01)
 number of electron      22.0000000 magnetization 
 augmentation part        0.5025424 magnetization 

 Broyden mixing:
  rms(total) = 0.51009E-01    rms(broyden)= 0.51003E-01
  rms(prec ) = 0.82361E-01
  weight for this iteration     100.00

 eigenvalues of (default mixing * dielectric matrix)
  average eigenvalue GAMMA=   1.6142
  2.2872  0.9342  1.6212

 Free energy of the ion-electron system (eV)
  ---------------------------------------------------
  alpha Z        PSCENC =         0.62641250
  Ewald energy   TEWEN  =       990.85565038
  -Hartree energ DENC   =     -1508.53138874
  -exchange      EXHF   =         0.00000000
  -V(xc)+E(xc)   XCENC  =        72.91665452
  PAW double counting   =       293.48849416     -298.81123115
  entropy T*S    EENTRO =        -0.00000000
  eigenvalues    EBANDS =      -270.30521722
  atomic energy  EATOM  =       663.51739852
  Solvation  Ediel_sol  =         0.00000000
  ---------------------------------------------------
  free energy    TOTEN  =       -56.24322703 eV

  energy without entropy =      -56.24322703  energy(sigma->0) =      -56.24322703


--------------------------------------------------------------------------------------------------------




--------------------------------------- Iteration      1(   9)  ---------------------------------------


    POTLOK:  cpu time      0.3133: real time      0.3149
    SETDIJ:  cpu time      0.1905: real time      0.1914
     EDDAV:  cpu time      0.4434: real time      0.4459
       DOS:  cpu time      0.0001: real time      0.0001
    CHARGE:  cpu time      0.1934: real time      0.1941
    MIXING:  cpu time      0.0143: real time      0.0143
    --------------------------------------------
      LOOP:  cpu time      1.1550: real time      1.1608

 eigenvalue-minimisations  :    72
 total energy-change (2. order) : 0.3527441E-01  (-0.4908736E-02)
 number of electron      22.0000000 magnetization 
 augmentation part        0.5001820 magnetization 

 Broyden mixing:
  rms(total) = 0.25125E-01    rms(broyden)= 0.25122E-01
  rms(prec ) = 0.49682E-01
  weight for this iteration     100.00

 eigenvalues of (default mixing * dielectric matrix)
  average eigenvalue GAMMA=   1.5373
  1.9261  1.9261  0.9664  1.3304

 Free energy of the ion-electron system (eV)
  ---------------------------------------------------
  alpha Z        PSCENC =         0.62641250
  Ewald energy   TEWEN  =       990.85565038
  -Hartree energ DENC   =     -1514.69598841
  -exchange      EXHF   =         0.00000000
  -V(xc)+E(xc)   XCENC  =        73.22849367
  PAW double counting   =       298.18090668     -303.49503068
  entropy T*S    EENTRO =        -0.00000000
  eigenvalues    EBANDS =      -264.42579528
  atomic energy  EATOM  =       663.51739852
  Solvation  Ediel_sol  =         0.00000000
  ---------------------------------------------------
  free energy    TOTEN  =       -56.20795262 eV

  energy without entropy =      -56.20795262  energy(sigma->0) =      -56.20795262


--------------------------------------------------------------------------------------------------------




--------------------------------------- Iteration      1(  10)  ---------------------------------------


    POTLOK:  cpu time      0.3155: real time      0.3172
    SETDIJ:  cpu time      0.1890: real time      0.1898
     EDDAV:  cpu time      0.3636: real time      0.3656
       DOS:  cpu time      0.0002: real time      0.0002
    CHARGE:  cpu time      0.1928: real time      0.1935
    MIXING:  cpu time      0.0139: real time      0.0140
    --------------------------------------------
      LOOP:  cpu time      1.0750: real time      1.0803

 eigenvalue-minimisations  :    56
 total energy-change (2. order) : 0.7719919E-02  (-0.3187452E-02)
 number of electron      22.0000000 magnetization 
 augmentation part        0.4980697 magnetization 

 Broyden mixing:
  rms(total) = 0.21908E-01    rms(broyden)= 0.21905E-01
  rms(prec ) = 0.36106E-01
  weight for this iteration     100.00

 eigenvalues of (default mixing * dielectric matrix)
  average eigenvalue GAMMA=   1.6669
  2.4603  2.4603  0.9690  1.2223  1.2223

 Free energy of the ion-electron system (eV)
  ---------------------------------------------------
  alpha Z        PSCENC =         0.62641250
  Ewald energy   TEWEN  =       990.85565038
  -Hartree energ DENC   =     -1519.17793346
  -exchange      EXHF   =         0.00000000
  -V(xc)+E(xc)   XCENC  =        73.32035640
  PAW double counting   =       297.67880345     -303.00224640
  entropy T*S    EENTRO =        -0.00000000
  eigenvalues    EBANDS =      -260.01867409
  atomic energy  EATOM  =       663.51739852
  Solvation  Ediel_sol  =         0.00000000
  ---------------------------------------------------
  free energy    TOTEN  =       -56.20023270 eV

  energy without entropy =      -56.20023270  energy(sigma->0) =      -56.20023270


--------------------------------------------------------------------------------------------------------




--------------------------------------- Iteration      1(  11)  ---------------------------------------


    POTLOK:  cpu time      0.3152: real time      0.3168
    SETDIJ:  cpu time      0.1931: real time      0.1939
     EDDAV:  cpu time      0.3645: real time      0.3666
       DOS:  cpu time      0.0001: real time      0.0001
    CHARGE:  cpu time      0.1944: real time      0.1952
    MIXING:  cpu time      0.0158: real time      0.0159
    --------------------------------------------
      LOOP:  cpu time      1.0831: real time      1.0885

 eigenvalue-minimisations  :    56
 total energy-change (2. order) : 0.1124199E-01  (-0.8957099E-03)
 number of electron      22.0000000 magnetization 
 augmentation part        0.4986232 magnetization 

 Broyden mixing:
  rms(total) = 0.93649E-02    rms(broyden)= 0.93642E-02
  rms(prec ) = 0.19859E-01
  weight for this iteration     100.00

 eigenvalues of (default mixing * dielectric matrix)
  average eigenvalue GAMMA=   1.7263
  3.1781  2.3922  1.5074  1.0185  1.1308  1.1308

 Free energy of the ion-electron system (eV)
  ---------------------------------------------------
  alpha Z        PSCENC =         0.62641250
  Ewald energy   TEWEN  =       990.85565038
  -Hartree energ DENC   =     -1521.84043987
  -exchange      EXHF   =         0.00000000
  -V(xc)+E(xc)   XCENC  =        73.39790940
  PAW double counting   =       296.24885019     -301.55051492
  entropy T*S    EENTRO =        -0.00000000
  eigenvalues    EBANDS =      -257.44425692
  atomic energy  EATOM  =       663.51739852
  Solvation  Ediel_sol  =         0.00000000
  ---------------------------------------------------
  free energy    TOTEN  =       -56.18899072 eV

  energy without entropy =      -56.18899071  energy(sigma->0) =      -56.18899071


--------------------------------------------------------------------------------------------------------




--------------------------------------- Iteration      1(  12)  ---------------------------------------


    POTLOK:  cpu time      0.3155: real time      0.3172
    SETDIJ:  cpu time      0.1946: real time      0.1954
     EDDAV:  cpu time      0.4047: real time      0.4070
       DOS:  cpu time      0.0001: real time      0.0001
    CHARGE:  cpu time      0.1924: real time      0.1932
    MIXING:  cpu time      0.0150: real time      0.0151
    --------------------------------------------
      LOOP:  cpu time      1.1224: real time      1.1280

 eigenvalue-minimisations  :    64
 total energy-change (2. order) :-0.1418585E-02  (-0.3842673E-03)
 number of electron      22.0000000 magnetization 
 augmentation part        0.4980325 magnetization 

 Broyden mixing:
  rms(total) = 0.51175E-02    rms(broyden)= 0.51173E-02
  rms(prec ) = 0.11275E-01
  weight for this iteration     100.00

 eigenvalues of (default mixing * dielectric matrix)
  average eigenvalue GAMMA=   1.8583
  4.1997  2.4455  1.9391  1.1557  1.1167  1.0756  1.0756

 Free energy of the ion-electron system (eV)
  ---------------------------------------------------
  alpha Z        PSCENC =         0.62641250
  Ewald energy   TEWEN  =       990.85565038
  -Hartree energ DENC   =     -1524.57245874
  -exchange      EXHF   =         0.00000000
  -V(xc)+E(xc)   XCENC  =        73.45032608
  PAW double counting   =       296.17923842     -301.48686440
  entropy T*S    EENTRO =        -0.00000000
  eigenvalues    EBANDS =      -254.76011206
  atomic energy  EATOM  =       663.51739852
  Solvation  Ediel_sol  =         0.00000000
  ---------------------------------------------------
  free energy    TOTEN  =       -56.19040930 eV

  energy without entropy =      -56.19040930  energy(sigma->0) =      -56.19040930


--------------------------------------------------------------------------------------------------------




--------------------------------------- Iteration      1(  13)  ---------------------------------------


    POTLOK:  cpu time      0.3096: real time      0.3113
    SETDIJ:  cpu time      0.1928: real time      0.1937
     EDDAV:  cpu time      0.4055: real time      0.4078
       DOS:  cpu time      0.0001: real time      0.0001
    CHARGE:  cpu time      0.1918: real time      0.1926
    MIXING:  cpu time      0.0166: real time      0.0166
    --------------------------------------------
      LOOP:  cpu time      1.1164: real time      1.1220

 eigenvalue-minimisations  :    64
 total energy-change (2. order) :-0.8358751E-02  (-0.1072147E-03)
 number of electron      22.0000000 magnetization 
 augmentation part        0.4978845 magnetization 

 Broyden mixing:
  rms(total) = 0.37281E-02    rms(broyden)= 0.37280E-02
  rms(prec ) = 0.74088E-02
  weight for this iteration     100.00

 eigenvalues of (default mixing * dielectric matrix)
  average eigenvalue GAMMA=   1.9907
  5.0337  2.8023  2.2049  1.6510  1.2072  0.9454  1.0406  1.0406

 Free energy of the ion-electron system (eV)
  ---------------------------------------------------
  alpha Z        PSCENC =         0.62641250
  Ewald energy   TEWEN  =       990.85565038
  -Hartree energ DENC   =     -1525.29250867
  -exchange      EXHF   =         0.00000000
  -V(xc)+E(xc)   XCENC  =        73.44647010
  PAW double counting   =       296.02898565     -301.33798249
  entropy T*S    EENTRO =        -0.00000000
  eigenvalues    EBANDS =      -254.04319404
  atomic energy  EATOM  =       663.51739852
  Solvation  Ediel_sol  =         0.00000000
  ---------------------------------------------------
  free energy    TOTEN  =       -56.19876805 eV

  energy without entropy =      -56.19876805  energy(sigma->0) =      -56.19876805


--------------------------------------------------------------------------------------------------------




--------------------------------------- Iteration      1(  14)  ---------------------------------------


    POTLOK:  cpu time      0.3117: real time      0.3134
    SETDIJ:  cpu time      0.1918: real time      0.1927
     EDDAV:  cpu time      0.4055: real time      0.4078
       DOS:  cpu time      0.0001: real time      0.0001
    CHARGE:  cpu time      0.1915: real time      0.1923
    MIXING:  cpu time      0.0162: real time      0.0162
    --------------------------------------------
      LOOP:  cpu time      1.1168: real time      1.1224

 eigenvalue-minimisations  :    64
 total energy-change (2. order) :-0.7142679E-02  (-0.1099931E-03)
 number of electron      22.0000000 magnetization 
 augmentation part        0.4979430 magnetization 

 Broyden mixing:
  rms(total) = 0.19223E-02    rms(broyden)= 0.19221E-02
  rms(prec ) = 0.39301E-02
  weight for this iteration     100.00

 eigenvalues of (default mixing * dielectric matrix)
  average eigenvalue GAMMA=   2.2033
  6.1806  3.5728  2.3173  1.8434  1.5480  1.3923  1.0180  1.0180  0.9400

 Free energy of the ion-electron system (eV)
  ---------------------------------------------------
  alpha Z        PSCENC =         0.62641250
  Ewald energy   TEWEN  =       990.85565038
  -Hartree energ DENC   =     -1525.54754237
  -exchange      EXHF   =         0.00000000
  -V(xc)+E(xc)   XCENC  =        73.43497491
  PAW double counting   =       295.92577768     -301.23249591
  entropy T*S    EENTRO =        -0.00000000
  eigenvalues    EBANDS =      -253.78608643
  atomic energy  EATOM  =       663.51739852
  Solvation  Ediel_sol  =         0.00000000
  ---------------------------------------------------
  free energy    TOTEN  =       -56.20591073 eV

  energy without entropy =      -56.20591073  energy(sigma->0) =      -56.20591073


--------------------------------------------------------------------------------------------------------




--------------------------------------- Iteration      1(  15)  ---------------------------------------


    POTLOK:  cpu time      0.3042: real time      0.3059
    SETDIJ:  cpu time      0.1924: real time      0.1933
     EDDAV:  cpu time      0.4040: real time      0.4063
       DOS:  cpu time      0.0001: real time      0.0001
    CHARGE:  cpu time      0.1909: real time      0.1916
    MIXING:  cpu time      0.0144: real time      0.0145
    --------------------------------------------
      LOOP:  cpu time      1.1061: real time      1.1117

 eigenvalue-minimisations  :    64
 total energy-change (2. order) :-0.4695005E-02  (-0.7898152E-04)
 number of electron      22.0000000 magnetization 
 augmentation part        0.4979406 magnetization 

 Broyden mixing:
  rms(total) = 0.13351E-02    rms(broyden)= 0.13350E-02
  rms(prec ) = 0.20525E-02
  weight for this iteration     100.00

 eigenvalues of (default mixing * dielectric matrix)
  average eigenvalue GAMMA=   2.2559
  6.9575  4.0271  2.3474  2.3474  1.5259  1.1635  1.1635  0.9518  1.0375  1.0375

 Free energy of the ion-electron system (eV)
  ---------------------------------------------------
  alpha Z        PSCENC =         0.62641250
  Ewald energy   TEWEN  =       990.85565038
  -Hartree energ DENC   =     -1525.68380512
  -exchange      EXHF   =         0.00000000
  -V(xc)+E(xc)   XCENC  =        73.42707670
  PAW double counting   =       295.97900332     -301.28473594
  entropy T*S    EENTRO =        -0.00000000
  eigenvalues    EBANDS =      -253.64760610
  atomic energy  EATOM  =       663.51739852
  Solvation  Ediel_sol  =         0.00000000
  ---------------------------------------------------
  free energy    TOTEN  =       -56.21060573 eV

  energy without entropy =      -56.21060573  energy(sigma->0) =      -56.21060573


--------------------------------------------------------------------------------------------------------




--------------------------------------- Iteration      1(  16)  ---------------------------------------


    POTLOK:  cpu time      0.3031: real time      0.3048
    SETDIJ:  cpu time      0.1924: real time      0.1932
     EDDAV:  cpu time      0.4042: real time      0.4065
       DOS:  cpu time      0.0001: real time      0.0001
    CHARGE:  cpu time      0.1908: real time      0.1916
    MIXING:  cpu time      0.0159: real time      0.0160
    --------------------------------------------
      LOOP:  cpu time      1.1066: real time      1.1122

 eigenvalue-minimisations  :    64
 total energy-change (2. order) :-0.1265167E-02  (-0.1569264E-04)
 number of electron      22.0000000 magnetization 
 augmentation part        0.4978607 magnetization 

 Broyden mixing:
  rms(total) = 0.57752E-03    rms(broyden)= 0.57745E-03
  rms(prec ) = 0.10126E-02
  weight for this iteration     100.00

 eigenvalues of (default mixing * dielectric matrix)
  average eigenvalue GAMMA=   2.3190
  7.7058  4.3958  2.4231  2.4231  1.6501  1.6501  1.2440  1.0381  1.0381  0.9294
  1.0118

 Free energy of the ion-electron system (eV)
  ---------------------------------------------------
  alpha Z        PSCENC =         0.62641250
  Ewald energy   TEWEN  =       990.85565038
  -Hartree energ DENC   =     -1525.71052415
  -exchange      EXHF   =         0.00000000
  -V(xc)+E(xc)   XCENC  =        73.42508160
  PAW double counting   =       296.01422230     -301.32049747
  entropy T*S    EENTRO =        -0.00000000
  eigenvalues    EBANDS =      -253.61961458
  atomic energy  EATOM  =       663.51739852
  Solvation  Ediel_sol  =         0.00000000
  ---------------------------------------------------
  free energy    TOTEN  =       -56.21187090 eV

  energy without entropy =      -56.21187090  energy(sigma->0) =      -56.21187090


--------------------------------------------------------------------------------------------------------




--------------------------------------- Iteration      1(  17)  ---------------------------------------


    POTLOK:  cpu time      0.2988: real time      0.3004
    SETDIJ:  cpu time      0.1920: real time      0.1928
     EDDAV:  cpu time      0.4013: real time      0.4035
       DOS:  cpu time      0.0001: real time      0.0001
    CHARGE:  cpu time      0.1917: real time      0.1924
    MIXING:  cpu time      0.0168: real time      0.0168
    --------------------------------------------
      LOOP:  cpu time      1.1006: real time      1.1061

 eigenvalue-minimisations  :    64
 total energy-change (2. order) :-0.5121797E-03  (-0.3593851E-05)
 number of electron      22.0000000 magnetization 
 augmentation part        0.4978514 magnetization 

 Broyden mixing:
  rms(total) = 0.43697E-03    rms(broyden)= 0.43689E-03
  rms(prec ) = 0.66716E-03
  weight for this iteration     100.00

 eigenvalues of (default mixing * dielectric matrix)
  average eigenvalue GAMMA=   2.3690
  8.3178  4.9253  2.9103  2.3449  2.1256  1.4492  1.1536  1.1536  1.0420  1.0420
  0.9183  1.0454

 Free energy of the ion-electron system (eV)
  ---------------------------------------------------
  alpha Z        PSCENC =         0.62641250
  Ewald energy   TEWEN  =       990.85565038
  -Hartree energ DENC   =     -1525.71273529
  -exchange      EXHF   =         0.00000000
  -V(xc)+E(xc)   XCENC  =        73.42435548
  PAW double counting   =       295.99067571     -301.29713002
  entropy T*S    EENTRO =        -0.00000000
  eigenvalues    EBANDS =      -253.61701037
  atomic energy  EATOM  =       663.51739852
  Solvation  Ediel_sol  =         0.00000000
  ---------------------------------------------------
  free energy    TOTEN  =       -56.21238308 eV

  energy without entropy =      -56.21238308  energy(sigma->0) =      -56.21238308


--------------------------------------------------------------------------------------------------------




--------------------------------------- Iteration      1(  18)  ---------------------------------------


    POTLOK:  cpu time      0.2967: real time      0.2983
    SETDIJ:  cpu time      0.1909: real time      0.1917
     EDDAV:  cpu time      0.4044: real time      0.4067
       DOS:  cpu time      0.0001: real time      0.0001
    CHARGE:  cpu time      0.1927: real time      0.1935
    MIXING:  cpu time      0.0166: real time      0.0167
    --------------------------------------------
      LOOP:  cpu time      1.1015: real time      1.1071

 eigenvalue-minimisations  :    64
 total energy-change (2. order) :-0.2109631E-03  (-0.1290817E-05)
 number of electron      22.0000000 magnetization 
 augmentation part        0.4978399 magnetization 

 Broyden mixing:
  rms(total) = 0.23627E-03    rms(broyden)= 0.23621E-03
  rms(prec ) = 0.37644E-03
  weight for this iteration     100.00

 eigenvalues of (default mixing * dielectric matrix)
  average eigenvalue GAMMA=   2.4094
  8.6107  5.1965  3.0882  2.6479  2.2609  1.7369  1.3460  1.3460  1.0489  1.0489
  0.9372  1.0273  1.0273

 Free energy of the ion-electron system (eV)
  ---------------------------------------------------
  alpha Z        PSCENC =         0.62641250
  Ewald energy   TEWEN  =       990.85565038
  -Hartree energ DENC   =     -1525.73227325
  -exchange      EXHF   =         0.00000000
  -V(xc)+E(xc)   XCENC  =        73.42502874
  PAW double counting   =       296.00090082     -301.30746611
  entropy T*S    EENTRO =        -0.00000000
  eigenvalues    EBANDS =      -253.59824564
  atomic energy  EATOM  =       663.51739852
  Solvation  Ediel_sol  =         0.00000000
  ---------------------------------------------------
  free energy    TOTEN  =       -56.21259404 eV

  energy without entropy =      -56.21259404  energy(sigma->0) =      -56.21259404


--------------------------------------------------------------------------------------------------------




--------------------------------------- Iteration      1(  19)  ---------------------------------------


    POTLOK:  cpu time      0.3003: real time      0.3019
    SETDIJ:  cpu time      0.1907: real time      0.1915
     EDDAV:  cpu time      0.4036: real time      0.4058
       DOS:  cpu time      0.0001: real time      0.0001
    CHARGE:  cpu time      0.1911: real time      0.1919
    MIXING:  cpu time      0.0166: real time      0.0167
    --------------------------------------------
      LOOP:  cpu time      1.1023: real time      1.1079

 eigenvalue-minimisations  :    64
 total energy-change (2. order) :-0.1312595E-03  (-0.8365273E-06)
 number of electron      22.0000000 magnetization 
 augmentation part        0.4978630 magnetization 

 Broyden mixing:
  rms(total) = 0.28556E-03    rms(broyden)= 0.28549E-03
  rms(prec ) = 0.36560E-03
  weight for this iteration     100.00

 eigenvalues of (default mixing * dielectric matrix)
  average eigenvalue GAMMA=   2.3787
  8.7254  5.4695  3.5527  2.4859  2.3706  1.9793  1.4924  1.1134  1.1134  1.0331
  1.0331  0.9285  0.9285  1.0762

 Free energy of the ion-electron system (eV)
  ---------------------------------------------------
  alpha Z        PSCENC =         0.62641250
  Ewald energy   TEWEN  =       990.85565038
  -Hartree energ DENC   =     -1525.71933463
  -exchange      EXHF   =         0.00000000
  -V(xc)+E(xc)   XCENC  =        73.42412054
  PAW double counting   =       295.97360961     -301.27991114
  entropy T*S    EENTRO =        -0.00000000
  eigenvalues    EBANDS =      -253.61067108
  atomic energy  EATOM  =       663.51739852
  Solvation  Ediel_sol  =         0.00000000
  ---------------------------------------------------
  free energy    TOTEN  =       -56.21272530 eV

  energy without entropy =      -56.21272530  energy(sigma->0) =      -56.21272530


--------------------------------------------------------------------------------------------------------




--------------------------------------- Iteration      1(  20)  ---------------------------------------


    POTLOK:  cpu time      0.3025: real time      0.3041
    SETDIJ:  cpu time      0.1912: real time      0.1920
     EDDAV:  cpu time      0.3686: real time      0.3706
       DOS:  cpu time      0.0001: real time      0.0001
    CHARGE:  cpu time      0.1942: real time      0.1950
    MIXING:  cpu time      0.0163: real time      0.0164
    --------------------------------------------
      LOOP:  cpu time      1.0730: real time      1.0783

 eigenvalue-minimisations  :    56
 total energy-change (2. order) :-0.2112283E-04  (-0.1608199E-06)
 number of electron      22.0000000 magnetization 
 augmentation part        0.4978541 magnetization 

 Broyden mixing:
  rms(total) = 0.98353E-04    rms(broyden)= 0.98258E-04
  rms(prec ) = 0.13942E-03
  weight for this iteration     100.00

 eigenvalues of (default mixing * dielectric matrix)
  average eigenvalue GAMMA=   2.3691
  8.8108  5.6918  3.8109  2.7503  2.2919  1.9302  1.5893  1.2206  1.2206  1.2801
  1.0268  1.0268  0.9091  0.9887  0.9887

 Free energy of the ion-electron system (eV)
  ---------------------------------------------------
  alpha Z        PSCENC =         0.62641250
  Ewald energy   TEWEN  =       990.85565038
  -Hartree energ DENC   =     -1525.73519886
  -exchange      EXHF   =         0.00000000
  -V(xc)+E(xc)   XCENC  =        73.42454049
  PAW double counting   =       295.98520866     -301.29160629
  entropy T*S    EENTRO =        -0.00000000
  eigenvalues    EBANDS =      -253.59515183
  atomic energy  EATOM  =       663.51739852
  Solvation  Ediel_sol  =         0.00000000
  ---------------------------------------------------
  free energy    TOTEN  =       -56.21274643 eV

  energy without entropy =      -56.21274643  energy(sigma->0) =      -56.21274643


--------------------------------------------------------------------------------------------------------




--------------------------------------- Iteration      1(  21)  ---------------------------------------


    POTLOK:  cpu time      0.3084: real time      0.3100
    SETDIJ:  cpu time      0.1922: real time      0.1930
     EDDAV:  cpu time      0.3630: real time      0.3651
       DOS:  cpu time      0.0001: real time      0.0001
    CHARGE:  cpu time      0.1912: real time      0.1920
    MIXING:  cpu time      0.0172: real time      0.0173
    --------------------------------------------
      LOOP:  cpu time      1.0721: real time      1.0775

 eigenvalue-minimisations  :    56
 total energy-change (2. order) :-0.2004548E-04  (-0.6632511E-07)
 number of electron      22.0000000 magnetization 
 augmentation part        0.4978521 magnetization 

 Broyden mixing:
  rms(total) = 0.53437E-04    rms(broyden)= 0.53242E-04
  rms(prec ) = 0.74994E-04
  weight for this iteration     100.00

 eigenvalues of (default mixing * dielectric matrix)
  average eigenvalue GAMMA=   2.4173
  9.0219  6.0568  4.3734  2.9493  2.4244  2.1864  1.8731  1.5004  1.1653  1.1653
  1.0370  1.0370  1.0897  0.9962  0.9452  0.8556

 Free energy of the ion-electron system (eV)
  ---------------------------------------------------
  alpha Z        PSCENC =         0.62641250
  Ewald energy   TEWEN  =       990.85565038
  -Hartree energ DENC   =     -1525.73778020
  -exchange      EXHF   =         0.00000000
  -V(xc)+E(xc)   XCENC  =        73.42449538
  PAW double counting   =       295.98803766     -301.29448828
  entropy T*S    EENTRO =        -0.00000000
  eigenvalues    EBANDS =      -253.59249244
  atomic energy  EATOM  =       663.51739852
  Solvation  Ediel_sol  =         0.00000000
  ---------------------------------------------------
  free energy    TOTEN  =       -56.21276647 eV

  energy without entropy =      -56.21276647  energy(sigma->0) =      -56.21276647


--------------------------------------------------------------------------------------------------------




--------------------------------------- Iteration      1(  22)  ---------------------------------------


    POTLOK:  cpu time      0.3111: real time      0.3128
    SETDIJ:  cpu time      0.1922: real time      0.1930
     EDDAV:  cpu time      0.3279: real time      0.3298
       DOS:  cpu time      0.0001: real time      0.0001
    CHARGE:  cpu time      0.1918: real time      0.1925
    MIXING:  cpu time      0.0185: real time      0.0186
    --------------------------------------------
      LOOP:  cpu time      1.0417: real time      1.0469

 eigenvalue-minimisations  :    48
 total energy-change (2. order) :-0.8487270E-05  (-0.1336368E-07)
 number of electron      22.0000000 magnetization 
 augmentation part        0.4978526 magnetization 

 Broyden mixing:
  rms(total) = 0.41312E-04    rms(broyden)= 0.41087E-04
  rms(prec ) = 0.52307E-04
  weight for this iteration     100.00

 eigenvalues of (default mixing * dielectric matrix)
  average eigenvalue GAMMA=   2.4163
  9.0737  6.3271  4.6819  3.1892  2.5195  2.2038  2.0017  1.5184  1.2114  1.2114
  1.0215  1.0215  1.1048  1.1048  1.0187  0.9101  0.9582

 Free energy of the ion-electron system (eV)
  ---------------------------------------------------
  alpha Z        PSCENC =         0.62641250
  Ewald energy   TEWEN  =       990.85565038
  -Hartree energ DENC   =     -1525.73773942
  -exchange      EXHF   =         0.00000000
  -V(xc)+E(xc)   XCENC  =        73.42446808
  PAW double counting   =       295.98849447     -301.29492325
  entropy T*S    EENTRO =        -0.00000000
  eigenvalues    EBANDS =      -253.59253624
  atomic energy  EATOM  =       663.51739852
  Solvation  Ediel_sol  =         0.00000000
  ---------------------------------------------------
  free energy    TOTEN  =       -56.21277496 eV

  energy without entropy =      -56.21277496  energy(sigma->0) =      -56.21277496


--------------------------------------------------------------------------------------------------------




--------------------------------------- Iteration      1(  23)  ---------------------------------------


    POTLOK:  cpu time      0.3111: real time      0.3128
    SETDIJ:  cpu time      0.1925: real time      0.1933
     EDDAV:  cpu time      0.3644: real time      0.3664
       DOS:  cpu time      0.0001: real time      0.0001
    CHARGE:  cpu time      0.1919: real time      0.1927
    MIXING:  cpu time      0.0182: real time      0.0183
    --------------------------------------------
      LOOP:  cpu time      1.0783: real time      1.0837

 eigenvalue-minimisations  :    56
 total energy-change (2. order) :-0.2882245E-05  (-0.5100881E-08)
 number of electron      22.0000000 magnetization 
 augmentation part        0.4978525 magnetization 

 Broyden mixing:
  rms(total) = 0.17480E-04    rms(broyden)= 0.16949E-04
  rms(prec ) = 0.23495E-04
  weight for this iteration     100.00

 eigenvalues of (default mixing * dielectric matrix)
  average eigenvalue GAMMA=   2.4670
  9.1572  6.6170  4.9674  3.4608  2.6198  2.5911  2.0673  2.0673  1.4592  1.1988
  1.1988  1.0324  1.0324  1.1519  0.9813  0.9813  0.9266  0.8957

 Free energy of the ion-electron system (eV)
  ---------------------------------------------------
  alpha Z        PSCENC =         0.62641250
  Ewald energy   TEWEN  =       990.85565038
  -Hartree energ DENC   =     -1525.73801086
  -exchange      EXHF   =         0.00000000
  -V(xc)+E(xc)   XCENC  =        73.42448180
  PAW double counting   =       295.98867050     -301.29509652
  entropy T*S    EENTRO =        -0.00000000
  eigenvalues    EBANDS =      -253.59228416
  atomic energy  EATOM  =       663.51739852
  Solvation  Ediel_sol  =         0.00000000
  ---------------------------------------------------
  free energy    TOTEN  =       -56.21277784 eV

  energy without entropy =      -56.21277784  energy(sigma->0) =      -56.21277784


--------------------------------------------------------------------------------------------------------




--------------------------------------- Iteration      1(  24)  ---------------------------------------


    POTLOK:  cpu time      0.3148: real time      0.3165
    SETDIJ:  cpu time      0.1914: real time      0.1922
     EDDAV:  cpu time      0.3232: real time      0.3250
       DOS:  cpu time      0.0001: real time      0.0001
    CHARGE:  cpu time      0.1911: real time      0.1919
    MIXING:  cpu time      0.0178: real time      0.0179
    --------------------------------------------
      LOOP:  cpu time      1.0384: real time      1.0435

 eigenvalue-minimisations  :    48
 total energy-change (2. order) :-0.1864750E-05  (-0.6267047E-08)
 number of electron      22.0000000 magnetization 
 augmentation part        0.4978528 magnetization 

 Broyden mixing:
  rms(total) = 0.19484E-04    rms(broyden)= 0.19008E-04
  rms(prec ) = 0.23307E-04
  weight for this iteration     100.00

 eigenvalues of (default mixing * dielectric matrix)
  average eigenvalue GAMMA=   2.4389
  9.1359  6.8752  5.0770  3.7830  2.7754  2.4811  2.0487  2.0487  1.4587  1.2455
  1.2455  1.1515  1.1515  1.0233  1.0233  0.9968  0.9968  0.9424  0.8791

 Free energy of the ion-electron system (eV)
  ---------------------------------------------------
  alpha Z        PSCENC =         0.62641250
  Ewald energy   TEWEN  =       990.85565038
  -Hartree energ DENC   =     -1525.73803777
  -exchange      EXHF   =         0.00000000
  -V(xc)+E(xc)   XCENC  =        73.42447612
  PAW double counting   =       295.98759952     -301.29401563
  entropy T*S    EENTRO =        -0.00000000
  eigenvalues    EBANDS =      -253.59226335
  atomic energy  EATOM  =       663.51739852
  Solvation  Ediel_sol  =         0.00000000
  ---------------------------------------------------
  free energy    TOTEN  =       -56.21277971 eV

  energy without entropy =      -56.21277971  energy(sigma->0) =      -56.21277971


--------------------------------------------------------------------------------------------------------




--------------------------------------- Iteration      1(  25)  ---------------------------------------


    POTLOK:  cpu time      0.3157: real time      0.3174
    SETDIJ:  cpu time      0.1920: real time      0.1928
     EDDAV:  cpu time      0.3620: real time      0.3641
       DOS:  cpu time      0.0001: real time      0.0001
    --------------------------------------------
      LOOP:  cpu time      0.8698: real time      0.8744

 eigenvalue-minimisations  :    56
 total energy-change (2. order) :-0.3515752E-06  (-0.7650947E-09)
 number of electron      22.0000000 magnetization 
 augmentation part        0.4978528 magnetization 

 Free energy of the ion-electron system (eV)
  ---------------------------------------------------
  alpha Z        PSCENC =         0.62641250
  Ewald energy   TEWEN  =       990.85565038
  -Hartree energ DENC   =     -1525.73833902
  -exchange      EXHF   =         0.00000000
  -V(xc)+E(xc)   XCENC  =        73.42448345
  PAW double counting   =       295.98788406     -301.29430291
  entropy T*S    EENTRO =        -0.00000000
  eigenvalues    EBANDS =      -253.59196703
  atomic energy  EATOM  =       663.51739852
  Solvation  Ediel_sol  =         0.00000000
  ---------------------------------------------------
  free energy    TOTEN  =       -56.21278006 eV

  energy without entropy =      -56.21278006  energy(sigma->0) =      -56.21278006


--------------------------------------------------------------------------------------------------------




 average (electrostatic) potential at core
  the test charge radii are     0.6991  0.5201
  (the norm of the test charge is              1.0000)
       1 -58.4079       2 -58.4302       3 -58.5175       4 -58.5019       5 -41.4337
       6 -42.1172       7 -42.0372       8 -41.8527       9 -41.9510      10 -41.4873
 
 
 
 E-fermi :  -5.7019     XC(G=0):  -0.4196     alpha+bet : -0.1681

 Fermi energy:        -5.7019382154

 k-point     1 :       0.0000    0.0000    0.0000
  band No.  band energies     occupation 
      1     -20.8811      2.00000
      2     -15.9297      2.00000
      3     -15.7189      2.00000
      4     -12.4518      2.00000
      5     -11.9553      2.00000
      6     -11.1163      2.00000
      7      -9.1790      2.00000
      8      -8.8869      2.00000
      9      -7.4770      2.00000
     10      -7.2254      2.00000
     11      -5.9746      2.00000
     12      -0.5825      0.00000
     13      -0.3472      0.00000
     14       0.1389      0.00000
     15       0.1730      0.00000
     16       0.2986      0.00000
     17       0.3785      0.00000
     18       0.6173      0.00000
     19       0.6285      0.00000
     20       0.8962      0.00000
     21       0.9519      0.00000
     22       0.9745      0.00000
     23       1.0168      0.00000
     24       1.0892      0.00000


--------------------------------------------------------------------------------------------------------


 soft charge-density along one line, spin component           1
         0         1         2         3         4         5         6         7         8         9
 total charge-density along one line
 
 pseudopotential strength for first ion, spin component:           1
 10.241   0.019  -0.001   0.003   0.001   0.002   0.001   0.001
  0.019  -0.001  -0.000  -0.000  -0.000   0.000   0.000   0.000
 -0.001  -0.000  -4.355   0.005   0.001  -0.016   0.001   0.000
  0.003  -0.000   0.005  -4.348  -0.004   0.001  -0.014  -0.001
  0.001  -0.000   0.001  -0.004  -4.355   0.000  -0.001  -0.016
  0.002   0.000  -0.016   0.001   0.000  -0.773   0.000   0.000
  0.001   0.000   0.001  -0.014  -0.001   0.000  -0.772  -0.000
  0.001   0.000   0.000  -0.001  -0.016   0.000  -0.000  -0.773
 total augmentation occupancy for first ion, spin component:           1
  1.437  -1.079  -0.010  -0.048  -0.022  -0.010  -0.017  -0.005
 -1.079   0.951   0.046   0.060   0.013   0.034  -0.001   0.003
 -0.010   0.046   1.159  -0.039  -0.019   0.193  -0.014  -0.004
 -0.048   0.060  -0.039   1.049   0.053  -0.015   0.158   0.013
 -0.022   0.013  -0.019   0.053   1.166  -0.004   0.013   0.188
 -0.010   0.034   0.193  -0.015  -0.004   0.037  -0.005  -0.001
 -0.017  -0.001  -0.014   0.158   0.013  -0.005   0.028   0.003
 -0.005   0.003  -0.004   0.013   0.188  -0.001   0.003   0.032


------------------------ aborting loop because EDIFF is reached ----------------------------------------


    CHARGE:  cpu time      0.1915: real time      0.1922
    FORLOC:  cpu time      0.0372: real time      0.0373
    FORNL :  cpu time      1.0714: real time      1.0767
    STRESS:  cpu time      3.3881: real time      3.4042
    FORHAR:  cpu time      0.1099: real time      0.1104
    MIXING:  cpu time      0.0120: real time      0.0120
    OFIELD:  cpu time      0.0001: real time      0.0001

  FORCE on cell =-STRESS in cart. coord.  units (eV):
  Direction    XX          YY          ZZ          XY          YZ          ZX
  --------------------------------------------------------------------------------------
  Alpha Z     0.62641     0.62641     0.62641
  Ewald      15.37872   484.47509   491.00154   -73.75811   -16.12778   -81.45748
  Hartree   312.61344   610.11566   603.00956   -46.12207    -6.17436   -52.06422
  E(xc)     -77.47709   -76.61125   -76.57756    -0.13241    -0.05490    -0.16276
  Local    -532.41531 -1293.02366 -1289.01934   118.81521    21.14656   133.37620
  n-local   -30.95016   -30.53552   -31.13891    -0.02489     0.04838    -0.11900
  augment    -0.61868    -0.60531    -0.63881     0.00109     0.00509    -0.01229
  Kinetic   313.05966   305.48253   302.11006     0.85879     1.03723     2.13107
  Fock        0.00000     0.00000     0.00000     0.00000     0.00000     0.00000
  -------------------------------------------------------------------------------------
  Total       0.21699    -0.07605    -0.62704    -0.36240    -0.11977     1.69152
  in kB       0.10301    -0.03610    -0.29767    -0.17204    -0.05686     0.80300
  external pressure =       -0.08 kB  Pullay stress =        0.00 kB


 VOLUME and BASIS-vectors are now :
 -----------------------------------------------------------------------------
  energy-cutoff  :      520.00
  volume of cell :     3375.00
      direct lattice vectors                 reciprocal lattice vectors
    15.000000000  0.000000000  0.000000000     0.066666667  0.000000000  0.000000000
     0.000000000 15.000000000  0.000000000     0.000000000  0.066666667  0.000000000
     0.000000000  0.000000000 15.000000000     0.000000000  0.000000000  0.066666667

  length of vectors
    15.000000000 15.000000000 15.000000000     0.066666667  0.066666667  0.066666667


 FORCES acting on ions
    electron-ion (+dipol)            ewald-force                    non-local-force                 convergence-correction
 -----------------------------------------------------------------------------------------------
   -.322E+01 -.116E+03 0.101E+03   0.403E+01 0.118E+03 -.101E+03   0.811E+00 -.729E+00 0.178E+01   0.129E-04 -.471E-04 -.422E-05
   -.413E+02 0.112E+03 0.133E+03   0.419E+02 -.114E+03 -.134E+03   -.454E+00 0.721E+00 0.178E+01   -.180E-05 -.484E-04 0.598E-04
   0.224E+01 0.129E+03 -.127E+03   -.232E+01 -.130E+03 0.128E+03   -.311E+00 0.246E+01 -.216E+00   0.926E-05 -.334E-05 -.530E-04
   0.364E+02 -.881E+02 -.117E+03   -.371E+02 0.878E+02 0.117E+03   -.367E-01 -.221E+01 -.223E+01   -.375E-05 -.408E-04 0.211E-04
   -.507E+02 -.448E+02 0.266E+02   0.543E+02 0.474E+02 -.278E+02   -.417E+01 -.279E+01 0.120E+01   0.186E-04 0.125E-04 -.716E-05
   0.517E+02 -.314E+02 0.470E+02   -.584E+02 0.341E+02 -.515E+02   0.509E+01 -.193E+01 0.336E+01   -.217E-04 0.875E-05 -.160E-04
   -.173E+02 0.487E+02 0.527E+02   0.188E+02 -.530E+02 -.575E+02   -.140E+01 0.395E+01 0.425E+01   -.429E-05 0.132E-04 0.148E-04
   -.952E+00 0.540E+02 -.449E+02   0.103E+01 -.578E+02 0.479E+02   -.551E-01 0.412E+01 -.356E+01   -.189E-06 0.127E-04 -.878E-05
   -.395E+02 -.407E+02 -.473E+02   0.443E+02 0.442E+02 0.512E+02   -.426E+01 -.296E+01 -.321E+01   0.879E-05 0.477E-05 0.857E-05
   0.623E+02 -.220E+02 -.271E+02   -.666E+02 0.231E+02 0.283E+02   0.506E+01 -.101E+01 -.112E+01   -.119E-04 0.108E-05 0.398E-05
 -----------------------------------------------------------------------------------------------
   -.278E+00 0.376E+00 -.203E+01   0.000E+00 -.107E-13 0.213E-13   0.271E+00 -.379E+00 0.203E+01   0.593E-05 -.868E-04 0.190E-04
 
 
 POSITION                                       TOTAL-FORCE (eV/Angst)
 -----------------------------------------------------------------------------------
      7.53400      8.10800      6.73500         1.621295      1.368730      1.995031
      7.75400      6.67400      6.79200         0.167444     -1.490322      0.456626
      7.55100      6.49300      8.10300        -0.395467      1.551900      1.233719
      7.25900      8.07400      8.35400        -0.745121     -2.527719     -2.368706
      8.43800      8.71500      6.46700        -0.538671     -0.201191      0.041680
      6.70600      8.42300      6.18200        -1.517804      0.751535     -1.134629
      8.00600      5.97100      6.02000         0.137820     -0.396719     -0.510105
      7.56400      5.64800      8.82200         0.025170      0.361505     -0.537571
      7.99400      8.59500      8.92200         0.514521      0.554710      0.719485
      6.19300      8.29800      8.60300         0.730812      0.027571      0.104471
 -----------------------------------------------------------------------------------
    total drift:                               -0.006977     -0.003160      0.003388


--------------------------------------------------------------------------------------------------------



  FREE ENERGIE OF THE ION-ELECTRON SYSTEM (eV)
  ---------------------------------------------------
  free  energy   TOTEN  =       -56.21278006 eV

  energy  without entropy=      -56.21278006  energy(sigma->0) =      -56.21278006
 


--------------------------------------------------------------------------------------------------------


    POTLOK:  cpu time      0.5074: real time      0.5098


--------------------------------------------------------------------------------------------------------


 stress matrix after NEB project (eV)
      0.21699     -0.36240      1.69152
     -0.36240     -0.07605     -0.11977
      1.69152     -0.11977     -0.62704
  FORCES: max atom, RMS     3.543351    1.859113
  FORCE total and by dimension    5.879030    2.527719
  Stress total and by dimension    2.541634    1.691524
     LOOP+:  cpu time     30.1590: real time     30.3100
    4ORBIT:  cpu time      0.0000: real time      0.0000

 total amount of memory used by VASP MPI-rank0   224777. kBytes
=======================================================================

   base      :      30000. kBytes
   nonlr-proj:       1253. kBytes
   fftplans  :     123538. kBytes
   grid      :      67787. kBytes
   one-center:         15. kBytes
   wavefun   :       2184. kBytes
 
  
  
 General timing and accounting informations for this job:
 ========================================================
  
                  Total CPU time used (sec):       36.739
                            User time (sec):       33.547
                          System time (sec):        3.192
                         Elapsed time (sec):       38.065
  
                   Maximum memory used (kb):      558416.
                   Average memory used (kb):          N/A
  
                          Minor page faults:       147008
                          Major page faults:         5454
                 Voluntary context switches:         3126
