 vasp.6.4.2 20Jul23 (build Apr 10 2024 13:39:58) complex                        
  
 executed on             LinuxIFC date 2024.05.18  02:34:09
 running   16 mpi-ranks, on    1 nodes
 distrk:  each k-point on   16 cores,    1 groups
 distr:  one band on NCORE=   2 cores,    8 groups


--------------------------------------------------------------------------------------------------------


 INCAR:
   ISTART = 0
   ISPIN = 1
   LREAL = Auto
   ENCUT = 520
   NPAR = 8
   LPLANE = .TRUE.
   LSCALU = .FALSE.
   NSIM = 4
   LWAVE = .FALSE.
   LCHARG = .FALSE.
   ADDGRID = .TRUE.
   LASPH = .TRUE.
   PREC = Accurate
   ISMEAR = 0
   SIGMA = 0.05
   EDIFF = 1E-06
   NSW = 0
   TEBEG = 300
   TEEND = 700     	
   ISYM = 0
   NWRITE = 2

 POTCAR:   PAW_PBE C 08Apr2002                    
 POTCAR:   PAW_PBE H 15Jun2001                    
 POTCAR:   PAW_PBE C 08Apr2002                    
   VRHFIN =C: s2p2                                                                                  
   LEXCH  = PE                                                                                      
   EATOM  =   147.1560 eV,   10.8157 Ry                                                             
                                                                                                    
   TITEL  = PAW_PBE C 08Apr2002                                                                     
   LULTRA =        F    use ultrasoft PP ?                                                          
   IUNSCR =        0    unscreen: 0-lin 1-nonlin 2-no                                               
   RPACOR =     .000    partial core radius                                                         
   POMASS =   12.011; ZVAL   =    4.000    mass and valenz                                          
   RCORE  =    1.500    outmost cutoff radius                                                       
   RWIGS  =    1.630; RWIGS  =     .863    wigner-seitz radius (au A)                               
   ENMAX  =  400.000; ENMIN  =  300.000 eV                                                          
   ICORE  =        2    local potential                                                             
   LCOR   =        T    correct aug charges                                                         
   LPAW   =        T    paw PP                                                                      
   EAUG   =  644.873                                                                                
   DEXC   =     .000                                                                                
   RMAX   =    2.266    core radius for proj-oper                                                   
   RAUG   =    1.300    factor for augmentation sphere                                              
   RDEP   =    1.501    radius for radial grids                                                     
   RDEPT  =    1.300    core radius for aug-charge                                                  
   QCUT   =   -5.516; QGAM   =   11.032    optimization parameters                                  
                                                                                                    
   Description                                                                                      
     l     E      TYP  RCUT    TYP  RCUT                                                            
     0   .000     23  1.200                                                                         
     0   .000     23  1.200                                                                         
     1   .000     23  1.500                                                                         
     1  2.500     23  1.500                                                                         
     2   .000      7  1.500                                                                         
  local pseudopotential read in
  atomic valenz-charges read in
  non local Contribution for L=           0  read in
    real space projection operators read in
  non local Contribution for L=           0  read in
    real space projection operators read in
  non local Contribution for L=           1  read in
    real space projection operators read in
  non local Contribution for L=           1  read in
    real space projection operators read in
    PAW grid and wavefunctions read in
 
   number of l-projection  operators is LMAX  =           4
   number of lm-projection operators is LMMAX =           8
 
 POTCAR:   PAW_PBE H 15Jun2001                    
   VRHFIN =H: ultrasoft test                                                                        
   LEXCH  = PE                                                                                      
   EATOM  =    12.4884 eV,     .9179 Ry                                                             
                                                                                                    
   TITEL  = PAW_PBE H 15Jun2001                                                                     
   LULTRA =        F    use ultrasoft PP ?                                                          
   IUNSCR =        0    unscreen: 0-lin 1-nonlin 2-no                                               
   RPACOR =     .000    partial core radius                                                         
   POMASS =    1.000; ZVAL   =    1.000    mass and valenz                                          
   RCORE  =    1.100    outmost cutoff radius                                                       
   RWIGS  =     .700; RWIGS  =     .370    wigner-seitz radius (au A)                               
   ENMAX  =  250.000; ENMIN  =  200.000 eV                                                          
   RCLOC  =     .701    cutoff for local pot                                                        
   LCOR   =        T    correct aug charges                                                         
   LPAW   =        T    paw PP                                                                      
   EAUG   =  400.000                                                                                
   RMAX   =    2.174    core radius for proj-oper                                                   
   RAUG   =    1.200    factor for augmentation sphere                                              
   RDEP   =    1.112    radius for radial grids                                                     
   QCUT   =   -5.749; QGAM   =   11.498    optimization parameters                                  
                                                                                                    
   Description                                                                                      
     l     E      TYP  RCUT    TYP  RCUT                                                            
     0   .000     23  1.100                                                                         
     0   .500     23  1.100                                                                         
     1  -.300     23  1.100                                                                         
  local pseudopotential read in
  atomic valenz-charges read in
  non local Contribution for L=           0  read in
    real space projection operators read in
  non local Contribution for L=           0  read in
    real space projection operators read in
  non local Contribution for L=           1  read in
    real space projection operators read in
    PAW grid and wavefunctions read in
 
   number of l-projection  operators is LMAX  =           3
   number of lm-projection operators is LMMAX =           5
 
 Optimization of the real space projectors (new method)

 maximal supplied QI-value         = 25.13
 optimisation between [QCUT,QGAM] = [ 11.56, 23.12] = [ 37.43,149.72] Ry 
 Optimized for a Real-space Cutoff    1.04 Angstroem

   l    n(q)    QCUT    max X(q) W(low)/X(q) W(high)/X(q)  e(spline) 
   0      7    11.561     5.582    0.47E-04    0.94E-04    0.17E-07
   0      7    11.561    69.432    0.20E-03    0.59E-03    0.21E-06
   1      7    11.561     2.780    0.24E-04    0.70E-04    0.44E-07
   1      7    11.561     4.549    0.18E-03    0.25E-03    0.12E-06
 Optimization of the real space projectors (new method)

 maximal supplied QI-value         = 34.20
 optimisation between [QCUT,QGAM] = [ 11.63, 23.26] = [ 37.87,151.49] Ry 
 Optimized for a Real-space Cutoff    1.21 Angstroem

   l    n(q)    QCUT    max X(q) W(low)/X(q) W(high)/X(q)  e(spline) 
   0      8    11.629     4.436    0.19E-04    0.32E-04    0.47E-07
   0      8    11.629    16.131    0.16E-03    0.33E-03    0.21E-06
   1      8    11.629     4.654    0.18E-03    0.16E-03    0.26E-06
 PAW_PBE C 08Apr2002                    :
 energy of atom  1       EATOM= -147.1560
 kinetic energy error for atom=    0.0071 (will be added to EATOM!!)
 PAW_PBE H 15Jun2001                    :
 energy of atom  2       EATOM=  -12.4884
 kinetic energy error for atom=    0.0014 (will be added to EATOM!!)
 
 
 POSCAR:  C  H
  positions in cartesian coordinates
  No initial velocities read in
 exchange correlation table for  LEXCH =        8
   RHO(1)=    0.500       N(1)  =     2000
   RHO(2)=  100.500       N(2)  =     4000

 VTST: version 4.1, (05/19/21)

 CHAIN: initializing optimizer
 
 OPT: Using VASP Dynamics algorithm
 CHAIN: Read ICHAIN            0
 
 POSCAR:  C  H
  positions in cartesian coordinates
  No initial velocities read in
 


--------------------------------------------------------------------------------------------------------


 ion  position               nearest neighbor table
   1  0.528  0.533  0.402-   6 1.12   5 1.12   2 1.35
   2  0.497  0.462  0.447-   7 1.12   1 1.35   3 1.53
   3  0.490  0.454  0.548-   8 1.12   4 1.37   2 1.53
   4  0.478  0.524  0.605-  10 1.09   9 1.12   3 1.37
   5  0.526  0.539  0.328-   1 1.12
   6  0.554  0.594  0.437-   1 1.12
   7  0.475  0.402  0.408-   2 1.12
   8  0.503  0.383  0.570-   3 1.12
   9  0.466  0.592  0.577-   4 1.12
  10  0.484  0.517  0.677-   4 1.09
 

IMPORTANT INFORMATION: All symmetrisations will be switched off!
NOSYMM: (Re-)initialisation of all symmetry stuff for point group C_1.


----------------------------------------------------------------------------------------

                                     Primitive cell                                     

  volume of cell :    3375.0000

  direct lattice vectors                    reciprocal lattice vectors
    15.000000000  0.000000000  0.000000000     0.066666667  0.000000000  0.000000000
     0.000000000 15.000000000  0.000000000     0.000000000  0.066666667  0.000000000
     0.000000000  0.000000000 15.000000000     0.000000000  0.000000000  0.066666667

  length of vectors
    15.000000000 15.000000000 15.000000000     0.066666667  0.066666667  0.066666667

  position of ions in fractional coordinates (direct lattice)
     0.527533340  0.533400027  0.402133338
     0.496733348  0.461999989  0.446933333
     0.489599991  0.453666655  0.548399989
     0.478199991  0.524199994  0.605066681
     0.526066653  0.538799985  0.327733326
     0.553599993  0.593866666  0.437133344
     0.475266679  0.401666673  0.408200010
     0.502733326  0.383399995  0.570000013
     0.466333326  0.592266655  0.577333323
     0.483866660  0.516666667  0.677066676

  ion indices of the primitive-cell ions
   primitive index   ion index
                 1           1
                 2           2
                 3           3
                 4           4
                 5           5
                 6           6
                 7           7
                 8           8
                 9           9
                10          10

----------------------------------------------------------------------------------------

 
 
 KPOINTS: K-Spacing Value to Generate K-Mesh: 1.00

Automatic generation of k-mesh.
 Grid dimensions read from file:
 generate k-points for:    1    1    1

 Generating k-lattice:

  Cartesian coordinates                     Fractional coordinates (reciprocal lattice)
     0.066666667  0.000000000  0.000000000     1.000000000  0.000000000  0.000000000
     0.000000000  0.066666667  0.000000000     0.000000000  1.000000000  0.000000000
     0.000000000  0.000000000  0.066666667     0.000000000  0.000000000  1.000000000

  Length of vectors
     0.066666667  0.066666667  0.066666667

  Shift w.r.t. Gamma in fractional coordinates (k-lattice)
     0.000000000  0.000000000  0.000000000

 
 Subroutine IBZKPT returns following result:
 ===========================================
 
 Found      1 irreducible k-points:
 
 Following reciprocal coordinates:
            Coordinates               Weight
  0.000000  0.000000  0.000000      1.000000
 
 Following cartesian coordinates:
            Coordinates               Weight
  0.000000  0.000000  0.000000      1.000000
 


--------------------------------------------------------------------------------------------------------




 Dimension of arrays:
   k-points           NKPTS =      1   k-points in BZ     NKDIM =      1   number of bands    NBANDS=     24
   number of dos      NEDOS =    301   number of ions     NIONS =     10
   non local maximal  LDIM  =      4   non local SUM 2l+1 LMDIM =      8
   total plane-waves  NPLWV = ******
   max r-space proj   IRMAX =   3145   max aug-charges    IRDMAX=  39494
   dimension x,y,z NGX =   112 NGY =  112 NGZ =  112
   dimension x,y,z NGXF=   224 NGYF=  224 NGZF=  224
   support grid    NGXF=   448 NGYF=  448 NGZF=  448
   ions per type =               4   6
   NGX,Y,Z   is equivalent  to a cutoff of  12.41, 12.41, 12.41 a.u.
   NGXF,Y,Z  is equivalent  to a cutoff of  24.83, 24.83, 24.83 a.u.

 SYSTEM =  unknown system                          
 POSCAR =   C  H                                   

 Startparameter for this run:
   NWRITE =      2    write-flag & timer
   PREC   = accura    normal or accurate (medium, high low for compatibility)
   ISTART =      0    job   : 0-new  1-cont  2-samecut
   ICHARG =      2    charge: 1-file 2-atom 10-const
   ISPIN  =      1    spin polarized calculation?
   LNONCOLLINEAR =      F non collinear calculations
   LSORBIT =      F    spin-orbit coupling
   INIWAV =      1    electr: 0-lowe 1-rand  2-diag
   LASPH  =      T    aspherical Exc in radial PAW
 Electronic Relaxation 1
   ENCUT  =  520.0 eV  38.22 Ry    6.18 a.u.  27.89 27.89 27.89*2*pi/ulx,y,z
   ENINI  =  520.0     initial cutoff
   ENAUG  =  644.9 eV  augmentation charge cutoff
   NELM   =     60;   NELMIN=  2; NELMDL= -5     # of ELM steps 
   EDIFF  = 0.1E-05   stopping-criterion for ELM
   LREAL  =      T    real-space projection
   NLSPLINE    = F    spline interpolate recip. space projectors
   LCOMPAT=      F    compatible to vasp.4.4
   GGA_COMPAT  = T    GGA compatible to vasp.4.4-vasp.4.6
   LMAXPAW     = -100 max onsite density
   LMAXMIX     =    2 max onsite mixed and CHGCAR
   VOSKOWN=      0    Vosko Wilk Nusair interpolation
   ROPT   =   -0.00025  -0.00025
 Ionic relaxation
   EDIFFG = 0.1E-04   stopping-criterion for IOM
   NSW    =      0    number of steps for IOM
   NBLOCK =      1;   KBLOCK =      1    inner block; outer block 
   IBRION =     -1    ionic relax: 0-MD 1-quasi-New 2-CG
   NFREE  =      0    steps in history (QN), initial steepest desc. (CG)
   ISIF   =      2    stress and relaxation
   IWAVPR =     10    prediction:  0-non 1-charg 2-wave 3-comb
   ISYM   =      0    0-nonsym 1-usesym 2-fastsym
   LCORR  =      T    Harris-Foulkes like correction to forces

   POTIM  = 0.5000    time-step for ionic-motion
   TEIN   =    0.0    initial temperature
   TEBEG  =  300.0;   TEEND  = 700.0 temperature during run
   SMASS  =  -3.00    Nose mass-parameter (am)
   estimated Nose-frequenzy (Omega)   =  0.10E-29 period in steps = 0.13E+47 mass=  -0.514E-26a.u.
   SCALEE = 1.0000    scale energy and forces
   NPACO  =    256;   APACO  = 10.0  distance and # of slots for P.C.
   PSTRESS=    0.0 pullay stress

  Mass of Ions in am
   POMASS =  12.01  1.00
  Ionic Valenz
   ZVAL   =   4.00  1.00
  Atomic Wigner-Seitz radii
   RWIGS  =  -1.00 -1.00
  virtual crystal weights 
   VCA    =   1.00  1.00
   NELECT =      22.0000    total number of electrons
   NUPDOWN=      -1.0000    fix difference up-down

 DOS related values:
   EMIN   =  10.00;   EMAX   =-10.00  energy-range for DOS
   EFERMI =   0.00;   METHOD = LEGACY      
   ISMEAR =     0;   SIGMA  =   0.05  broadening in eV -4-tet -1-fermi 0-gaus

 Electronic relaxation 2 (details)
   IALGO  =     38    algorithm
   LDIAG  =      T    sub-space diagonalisation (order eigenvalues)
   LSUBROT=      F    optimize rotation matrix (better conditioning)
   TURBO    =      0    0=normal 1=particle mesh
   IRESTART =      0    0=no restart 2=restart with 2 vectors
   NREBOOT  =      0    no. of reboots
   NMIN     =      0    reboot dimension
   EREF     =   0.00    reference energy to select bands
   IMIX   =      4    mixing-type and parameters
     AMIX     =   0.40;   BMIX     =  1.00
     AMIX_MAG =   1.60;   BMIX_MAG =  1.00
     AMIN     =   0.10
     WC   =   100.;   INIMIX=   1;  MIXPRE=   1;  MAXMIX= -45

 Intra band minimization:
   WEIMIN = 0.0000     energy-eigenvalue tresh-hold
   EBREAK =  0.10E-07  absolut break condition
   DEPER  =   0.30     relativ break condition  

   TIME   =   0.40     timestep for ELM

  volume/ion in A,a.u.               =     337.50      2277.56
  Fermi-wavevector in a.u.,A,eV,Ry     =   0.305814  0.577905  1.272449  0.093522
  Thomas-Fermi vector in A             =   1.179187
 
 Write flags
   LWAVE        =      F    write WAVECAR
   LDOWNSAMPLE  =      F    k-point downsampling of WAVECAR
   LCHARG       =      F    write CHGCAR
   LVTOT        =      F    write LOCPOT, total local potential
   LVHAR        =      F    write LOCPOT, Hartree potential only
   LELF         =      F    write electronic localiz. function (ELF)
   LORBIT       =      0    0 simple, 1 ext, 2 COOP (PROOUT), +10 PAW based schemes


 Dipole corrections
   LMONO  =      F    monopole corrections only (constant potential shift)
   LDIPOL =      F    correct potential (dipole corrections)
   IDIPOL =      0    1-x, 2-y, 3-z, 4-all directions 
   EPSILON=  1.0000000 bulk dielectric constant

 Exchange correlation treatment:
   GGA     =    --    GGA type
   LEXCH   =     8    internal setting for exchange type
   LIBXC   =     F    Libxc                    
   VOSKOWN =     0    Vosko Wilk Nusair interpolation
   LHFCALC =     F    Hartree Fock is set to
   LHFONE  =     F    Hartree Fock one center treatment
   AEXX    =    0.0000 exact exchange contribution

 Linear response parameters
   LEPSILON=     F    determine dielectric tensor
   LRPA    =     F    only Hartree local field effects (RPA)
   LNABLA  =     F    use nabla operator in PAW spheres
   LVEL    =     F    velocity operator in full k-point grid
   CSHIFT  =0.1000    complex shift for real part using Kramers Kronig
   OMEGAMAX=  -1.0    maximum frequency
   DEG_THRESHOLD= 0.2000000E-02 threshold for treating states as degnerate
   RTIME   =   -0.100 relaxation time in fs
  (WPLASMAI=    0.000 imaginary part of plasma frequency in eV, 0.658/RTIME)
   DFIELD  = 0.0000000 0.0000000 0.0000000 field for delta impulse in time
 
  Optional k-point grid parameters
   LKPOINTS_OPT  =     F    use optional k-point grid
   KPOINTS_OPT_MODE=     1    mode for optional k-point grid
 
 Orbital magnetization related:
   ORBITALMAG=     F  switch on orbital magnetization
   LCHIMAG   =     F  perturbation theory with respect to B field
   DQ        =  0.001000  dq finite difference perturbation B field
   LLRAUG    =     F  two centre corrections for induced B field
   LBONE     =     F  B-component reconstruction in AE one-centre
   LVGVCALC  =     T  calculate vGv susceptibility
   LVGVAPPL  =     F  apply vGv susceptibility instead of pGv for G=0

 Random number generation:
   RANDOM_GENERATOR = DEFAULT
   PCG_SEED         = not used


--------------------------------------------------------------------------------------------------------


 Static calculation
 charge density and potential will be updated during run
 non-spin polarized calculation
 Variant of blocked Davidson
 Davidson routine will perform the subspace rotation
 perform sub-space diagonalisation
    after iterative eigenvector-optimisation
 modified Broyden-mixing scheme, WC =      100.0
 initial mixing is a Kerker type mixing with AMIX =  0.4000 and BMIX =      1.0000
 Hartree-type preconditioning will be used
 using additional bands           13
 real space projection scheme for non local part
 calculate Harris-corrections to forces 
   (improved forces if not selfconsistent)
 use gradient corrections 
 use of overlap-Matrix (Vanderbilt PP)
 Gauss-broadening in eV      SIGMA  =   0.05


--------------------------------------------------------------------------------------------------------


  energy-cutoff  :      520.00
  volume of cell :     3375.00
      direct lattice vectors                 reciprocal lattice vectors
    15.000000000  0.000000000  0.000000000     0.066666667  0.000000000  0.000000000
     0.000000000 15.000000000  0.000000000     0.000000000  0.066666667  0.000000000
     0.000000000  0.000000000 15.000000000     0.000000000  0.000000000  0.066666667

  length of vectors
    15.000000000 15.000000000 15.000000000     0.066666667  0.066666667  0.066666667


 
 k-points in units of 2pi/SCALE and weight: K-Spacing Value to Generate K-Mesh: 1.00
   0.00000000  0.00000000  0.00000000       1.000
 
 k-points in reciprocal lattice and weights: K-Spacing Value to Generate K-Mesh: 1.00
   0.00000000  0.00000000  0.00000000       1.000
 
 position of ions in fractional coordinates (direct lattice) 
   0.52753334  0.53340003  0.40213334
   0.49673335  0.46199999  0.44693333
   0.48959999  0.45366666  0.54839999
   0.47819999  0.52419999  0.60506668
   0.52606665  0.53879999  0.32773333
   0.55359999  0.59386667  0.43713334
   0.47526668  0.40166667  0.40820001
   0.50273333  0.38340000  0.57000001
   0.46633333  0.59226665  0.57733332
   0.48386666  0.51666667  0.67706668
 
 position of ions in cartesian coordinates  (Angst):
   7.91300011  8.00100040  6.03200006
   7.45100021  6.92999983  6.70400000
   7.34399986  6.80499983  8.22599983
   7.17299986  7.86299992  9.07600021
   7.89099979  8.08199978  4.91599989
   8.30399990  8.90799999  6.55700016
   7.12900019  6.02500010  6.12300014
   7.54099989  5.75099993  8.55000019
   6.99499989  8.88399982  8.65999985
   7.25799990  7.75000000 10.15600014
 


--------------------------------------------------------------------------------------------------------


 k-point   1 :   0.0000 0.0000 0.0000  plane waves:   90879

 maximum and minimum number of plane-waves per node :     45467    45412

 maximum number of plane-waves:     90879
 maximum index in each direction: 
   IXMAX=   27   IYMAX=   27   IZMAX=   27
   IXMIN=  -27   IYMIN=  -27   IZMIN=  -27


 real space projection operators:
  total allocation   :       1185.57 KBytes
  max/ min on nodes  :        594.12        591.45


 parallel 3D FFT for wavefunctions:
    minimum data exchange during FFTs selected (reduces bandwidth)
 parallel 3D FFT for charge:
    minimum data exchange during FFTs selected (reduces bandwidth)


 total amount of memory used by VASP MPI-rank0   224783. kBytes
=======================================================================

   base      :      30000. kBytes
   nonlr-proj:       1259. kBytes
   fftplans  :     123538. kBytes
   grid      :      67787. kBytes
   one-center:         15. kBytes
   wavefun   :       2184. kBytes
 
     INWAV:  cpu time      0.0000: real time      0.0000
 Broyden mixing: mesh for mixing (old mesh)
   NGX = 55   NGY = 55   NGZ = 55
  (NGX  =224   NGY  =224   NGZ  =224)
  gives a total of 166375 points

 initial charge density was supplied:
 charge density of overlapping atoms calculated
 number of electron      22.0000000 magnetization 
 keeping initial charge density in first step


--------------------------------------------------------------------------------------------------------


 Maximum index for non-local projection operator         1514
 Maximum index for augmentation-charges         2474 (set IRDMAX)


--------------------------------------------------------------------------------------------------------


 First call to EWALD:  gamma=   0.118
 Maximum number of real-space cells 3x 3x 3
 Maximum number of reciprocal cells 3x 3x 3

    FEWALD:  cpu time      0.0012: real time      0.0012


--------------------------------------- Ionic step        1  -------------------------------------------




--------------------------------------- Iteration      1(   1)  ---------------------------------------


    POTLOK:  cpu time      0.3388: real time      0.3408
    SETDIJ:  cpu time      0.1927: real time      0.1935
     EDDAV:  cpu time      0.4216: real time      0.4239
       DOS:  cpu time      0.0002: real time      0.0002
    --------------------------------------------
      LOOP:  cpu time      0.9533: real time      0.9584

 eigenvalue-minimisations  :    64
 total energy-change (2. order) : 0.1029410E+03  (-0.5228380E+03)
 number of electron      22.0000000 magnetization 
 augmentation part       22.0000000 magnetization 

 Free energy of the ion-electron system (eV)
  ---------------------------------------------------
  alpha Z        PSCENC =         0.62641250
  Ewald energy   TEWEN  =       862.61032905
  -Hartree energ DENC   =     -1293.10140106
  -exchange      EXHF   =         0.00000000
  -V(xc)+E(xc)   XCENC  =        66.85178656
  PAW double counting   =       156.01372664     -160.66969168
  entropy T*S    EENTRO =        -0.00000563
  eigenvalues    EBANDS =      -192.90753933
  atomic energy  EATOM  =       663.51739852
  Solvation  Ediel_sol  =         0.00000000
  ---------------------------------------------------
  free energy    TOTEN  =       102.94101558 eV

  energy without entropy =      102.94102121  energy(sigma->0) =      102.94101840


--------------------------------------------------------------------------------------------------------




--------------------------------------- Iteration      1(   2)  ---------------------------------------


     EDDAV:  cpu time      0.4967: real time      0.4998
       DOS:  cpu time      0.0001: real time      0.0001
    --------------------------------------------
      LOOP:  cpu time      0.4968: real time      0.4999

 eigenvalue-minimisations  :    80
 total energy-change (2. order) :-0.1244205E+03  (-0.1212126E+03)
 number of electron      22.0000000 magnetization 
 augmentation part       22.0000000 magnetization 

 Free energy of the ion-electron system (eV)
  ---------------------------------------------------
  alpha Z        PSCENC =         0.62641250
  Ewald energy   TEWEN  =       862.61032905
  -Hartree energ DENC   =     -1293.10140106
  -exchange      EXHF   =         0.00000000
  -V(xc)+E(xc)   XCENC  =        66.85178656
  PAW double counting   =       156.01372664     -160.66969168
  entropy T*S    EENTRO =        -0.00000000
  eigenvalues    EBANDS =      -317.32805243
  atomic energy  EATOM  =       663.51739852
  Solvation  Ediel_sol  =         0.00000000
  ---------------------------------------------------
  free energy    TOTEN  =       -21.47949189 eV

  energy without entropy =      -21.47949189  energy(sigma->0) =      -21.47949189


--------------------------------------------------------------------------------------------------------




--------------------------------------- Iteration      1(   3)  ---------------------------------------


     EDDAV:  cpu time      0.4105: real time      0.4128
       DOS:  cpu time      0.0001: real time      0.0001
    --------------------------------------------
      LOOP:  cpu time      0.4106: real time      0.4130

 eigenvalue-minimisations  :    64
 total energy-change (2. order) :-0.3802708E+02  (-0.3792425E+02)
 number of electron      22.0000000 magnetization 
 augmentation part       22.0000000 magnetization 

 Free energy of the ion-electron system (eV)
  ---------------------------------------------------
  alpha Z        PSCENC =         0.62641250
  Ewald energy   TEWEN  =       862.61032905
  -Hartree energ DENC   =     -1293.10140106
  -exchange      EXHF   =         0.00000000
  -V(xc)+E(xc)   XCENC  =        66.85178656
  PAW double counting   =       156.01372664     -160.66969168
  entropy T*S    EENTRO =        -0.00000000
  eigenvalues    EBANDS =      -355.35512965
  atomic energy  EATOM  =       663.51739852
  Solvation  Ediel_sol  =         0.00000000
  ---------------------------------------------------
  free energy    TOTEN  =       -59.50656911 eV

  energy without entropy =      -59.50656911  energy(sigma->0) =      -59.50656911


--------------------------------------------------------------------------------------------------------




--------------------------------------- Iteration      1(   4)  ---------------------------------------


     EDDAV:  cpu time      0.4522: real time      0.4547
       DOS:  cpu time      0.0001: real time      0.0001
    --------------------------------------------
      LOOP:  cpu time      0.4523: real time      0.4548

 eigenvalue-minimisations  :    72
 total energy-change (2. order) :-0.3216467E+01  (-0.3210929E+01)
 number of electron      22.0000000 magnetization 
 augmentation part       22.0000000 magnetization 

 Free energy of the ion-electron system (eV)
  ---------------------------------------------------
  alpha Z        PSCENC =         0.62641250
  Ewald energy   TEWEN  =       862.61032905
  -Hartree energ DENC   =     -1293.10140106
  -exchange      EXHF   =         0.00000000
  -V(xc)+E(xc)   XCENC  =        66.85178656
  PAW double counting   =       156.01372664     -160.66969168
  entropy T*S    EENTRO =        -0.00000000
  eigenvalues    EBANDS =      -358.57159704
  atomic energy  EATOM  =       663.51739852
  Solvation  Ediel_sol  =         0.00000000
  ---------------------------------------------------
  free energy    TOTEN  =       -62.72303650 eV

  energy without entropy =      -62.72303650  energy(sigma->0) =      -62.72303650


--------------------------------------------------------------------------------------------------------




--------------------------------------- Iteration      1(   5)  ---------------------------------------


     EDDAV:  cpu time      0.4119: real time      0.4142
       DOS:  cpu time      0.0001: real time      0.0001
    CHARGE:  cpu time      0.1986: real time      0.1994
    MIXING:  cpu time      0.0148: real time      0.0148
    --------------------------------------------
      LOOP:  cpu time      0.6255: real time      0.6286

 eigenvalue-minimisations  :    64
 total energy-change (2. order) :-0.3450010E-01  (-0.3447583E-01)
 number of electron      22.0000000 magnetization 
 augmentation part        0.5632591 magnetization 

 Broyden mixing:
  rms(total) = 0.11407E+01    rms(broyden)= 0.11405E+01
  rms(prec ) = 0.13696E+01
  weight for this iteration     100.00

 Free energy of the ion-electron system (eV)
  ---------------------------------------------------
  alpha Z        PSCENC =         0.62641250
  Ewald energy   TEWEN  =       862.61032905
  -Hartree energ DENC   =     -1293.10140106
  -exchange      EXHF   =         0.00000000
  -V(xc)+E(xc)   XCENC  =        66.85178656
  PAW double counting   =       156.01372664     -160.66969168
  entropy T*S    EENTRO =        -0.00000000
  eigenvalues    EBANDS =      -358.60609714
  atomic energy  EATOM  =       663.51739852
  Solvation  Ediel_sol  =         0.00000000
  ---------------------------------------------------
  free energy    TOTEN  =       -62.75753660 eV

  energy without entropy =      -62.75753660  energy(sigma->0) =      -62.75753660


--------------------------------------------------------------------------------------------------------




--------------------------------------- Iteration      1(   6)  ---------------------------------------


    POTLOK:  cpu time      0.3109: real time      0.3126
    SETDIJ:  cpu time      0.1942: real time      0.1950
     EDDAV:  cpu time      0.4477: real time      0.4502
       DOS:  cpu time      0.0001: real time      0.0001
    CHARGE:  cpu time      0.1936: real time      0.1944
    MIXING:  cpu time      0.0149: real time      0.0150
    --------------------------------------------
      LOOP:  cpu time      1.1614: real time      1.1673

 eigenvalue-minimisations  :    72
 total energy-change (2. order) : 0.4780294E+01  (-0.7033375E+00)
 number of electron      22.0000000 magnetization 
 augmentation part        0.5160848 magnetization 

 Broyden mixing:
  rms(total) = 0.55229E+00    rms(broyden)= 0.55226E+00
  rms(prec ) = 0.65497E+00
  weight for this iteration     100.00

 eigenvalues of (default mixing * dielectric matrix)
  average eigenvalue GAMMA=   1.6040
  1.6040

 Free energy of the ion-electron system (eV)
  ---------------------------------------------------
  alpha Z        PSCENC =         0.62641250
  Ewald energy   TEWEN  =       862.61032905
  -Hartree energ DENC   =     -1337.62200524
  -exchange      EXHF   =         0.00000000
  -V(xc)+E(xc)   XCENC  =        69.18876221
  PAW double counting   =       224.70070114     -229.87378364
  entropy T*S    EENTRO =        -0.00000000
  eigenvalues    EBANDS =      -311.12505681
  atomic energy  EATOM  =       663.51739852
  Solvation  Ediel_sol  =         0.00000000
  ---------------------------------------------------
  free energy    TOTEN  =       -57.97724227 eV

  energy without entropy =      -57.97724227  energy(sigma->0) =      -57.97724227


--------------------------------------------------------------------------------------------------------




--------------------------------------- Iteration      1(   7)  ---------------------------------------


    POTLOK:  cpu time      0.3117: real time      0.3134
    SETDIJ:  cpu time      0.1943: real time      0.1952
     EDDAV:  cpu time      0.4128: real time      0.4151
       DOS:  cpu time      0.0001: real time      0.0001
    CHARGE:  cpu time      0.1959: real time      0.1967
    MIXING:  cpu time      0.0155: real time      0.0156
    --------------------------------------------
      LOOP:  cpu time      1.1303: real time      1.1360

 eigenvalue-minimisations  :    64
 total energy-change (2. order) : 0.1139081E+01  (-0.3804278E+00)
 number of electron      22.0000000 magnetization 
 augmentation part        0.4862619 magnetization 

 Broyden mixing:
  rms(total) = 0.21865E+00    rms(broyden)= 0.21859E+00
  rms(prec ) = 0.25132E+00
  weight for this iteration     100.00

 eigenvalues of (default mixing * dielectric matrix)
  average eigenvalue GAMMA=   1.6761
  1.6761  1.6761

 Free energy of the ion-electron system (eV)
  ---------------------------------------------------
  alpha Z        PSCENC =         0.62641250
  Ewald energy   TEWEN  =       862.61032905
  -Hartree energ DENC   =     -1373.39541870
  -exchange      EXHF   =         0.00000000
  -V(xc)+E(xc)   XCENC  =        71.25056999
  PAW double counting   =       280.87497872     -286.28095787
  entropy T*S    EENTRO =        -0.00000000
  eigenvalues    EBANDS =      -276.04147369
  atomic energy  EATOM  =       663.51739852
  Solvation  Ediel_sol  =         0.00000000
  ---------------------------------------------------
  free energy    TOTEN  =       -56.83816146 eV

  energy without entropy =      -56.83816146  energy(sigma->0) =      -56.83816146


--------------------------------------------------------------------------------------------------------




--------------------------------------- Iteration      1(   8)  ---------------------------------------


    POTLOK:  cpu time      0.3157: real time      0.3174
    SETDIJ:  cpu time      0.1919: real time      0.1927
     EDDAV:  cpu time      0.3686: real time      0.3706
       DOS:  cpu time      0.0001: real time      0.0001
    CHARGE:  cpu time      0.1939: real time      0.1947
    MIXING:  cpu time      0.0182: real time      0.0183
    --------------------------------------------
      LOOP:  cpu time      1.0885: real time      1.0938

 eigenvalue-minimisations  :    56
 total energy-change (2. order) : 0.1437191E+00  (-0.1948407E-01)
 number of electron      22.0000000 magnetization 
 augmentation part        0.4856055 magnetization 

 Broyden mixing:
  rms(total) = 0.74646E-01    rms(broyden)= 0.74641E-01
  rms(prec ) = 0.99125E-01
  weight for this iteration     100.00

 eigenvalues of (default mixing * dielectric matrix)
  average eigenvalue GAMMA=   1.6354
  2.4296  0.8767  1.6000

 Free energy of the ion-electron system (eV)
  ---------------------------------------------------
  alpha Z        PSCENC =         0.62641250
  Ewald energy   TEWEN  =       862.61032905
  -Hartree energ DENC   =     -1379.82811918
  -exchange      EXHF   =         0.00000000
  -V(xc)+E(xc)   XCENC  =        71.73150687
  PAW double counting   =       286.74809185     -292.06160189
  entropy T*S    EENTRO =        -0.00000000
  eigenvalues    EBANDS =      -270.03846012
  atomic energy  EATOM  =       663.51739852
  Solvation  Ediel_sol  =         0.00000000
  ---------------------------------------------------
  free energy    TOTEN  =       -56.69444239 eV

  energy without entropy =      -56.69444239  energy(sigma->0) =      -56.69444239


--------------------------------------------------------------------------------------------------------




--------------------------------------- Iteration      1(   9)  ---------------------------------------


    POTLOK:  cpu time      0.3172: real time      0.3190
    SETDIJ:  cpu time      0.1937: real time      0.1946
     EDDAV:  cpu time      0.4506: real time      0.4531
       DOS:  cpu time      0.0001: real time      0.0001
    CHARGE:  cpu time      0.1959: real time      0.1967
    MIXING:  cpu time      0.0149: real time      0.0150
    --------------------------------------------
      LOOP:  cpu time      1.1725: real time      1.1785

 eigenvalue-minimisations  :    72
 total energy-change (2. order) : 0.4012267E-01  (-0.5563140E-02)
 number of electron      22.0000000 magnetization 
 augmentation part        0.4839650 magnetization 

 Broyden mixing:
  rms(total) = 0.24746E-01    rms(broyden)= 0.24741E-01
  rms(prec ) = 0.47270E-01
  weight for this iteration     100.00

 eigenvalues of (default mixing * dielectric matrix)
  average eigenvalue GAMMA=   1.4383
  2.2877  1.5997  0.9329  0.9329

 Free energy of the ion-electron system (eV)
  ---------------------------------------------------
  alpha Z        PSCENC =         0.62641250
  Ewald energy   TEWEN  =       862.61032905
  -Hartree energ DENC   =     -1385.74903414
  -exchange      EXHF   =         0.00000000
  -V(xc)+E(xc)   XCENC  =        72.07706528
  PAW double counting   =       290.80609795     -296.08064058
  entropy T*S    EENTRO =        -0.00000000
  eigenvalues    EBANDS =      -264.46194831
  atomic energy  EATOM  =       663.51739852
  Solvation  Ediel_sol  =         0.00000000
  ---------------------------------------------------
  free energy    TOTEN  =       -56.65431972 eV

  energy without entropy =      -56.65431972  energy(sigma->0) =      -56.65431972


--------------------------------------------------------------------------------------------------------




--------------------------------------- Iteration      1(  10)  ---------------------------------------


    POTLOK:  cpu time      0.3179: real time      0.3196
    SETDIJ:  cpu time      0.1946: real time      0.1954
     EDDAV:  cpu time      0.4069: real time      0.4091
       DOS:  cpu time      0.0001: real time      0.0001
    CHARGE:  cpu time      0.1948: real time      0.1956
    MIXING:  cpu time      0.0155: real time      0.0156
    --------------------------------------------
      LOOP:  cpu time      1.1298: real time      1.1354

 eigenvalue-minimisations  :    64
 total energy-change (2. order) : 0.4330229E-02  (-0.1650976E-02)
 number of electron      22.0000000 magnetization 
 augmentation part        0.4825953 magnetization 

 Broyden mixing:
  rms(total) = 0.17471E-01    rms(broyden)= 0.17468E-01
  rms(prec ) = 0.35033E-01
  weight for this iteration     100.00

 eigenvalues of (default mixing * dielectric matrix)
  average eigenvalue GAMMA=   1.6759
  2.7539  2.3101  0.9924  0.9924  1.3304

 Free energy of the ion-electron system (eV)
  ---------------------------------------------------
  alpha Z        PSCENC =         0.62641250
  Ewald energy   TEWEN  =       862.61032905
  -Hartree energ DENC   =     -1388.11579859
  -exchange      EXHF   =         0.00000000
  -V(xc)+E(xc)   XCENC  =        72.11679333
  PAW double counting   =       290.47376576     -295.76024808
  entropy T*S    EENTRO =        -0.00000000
  eigenvalues    EBANDS =      -262.11864198
  atomic energy  EATOM  =       663.51739852
  Solvation  Ediel_sol  =         0.00000000
  ---------------------------------------------------
  free energy    TOTEN  =       -56.64998949 eV

  energy without entropy =      -56.64998949  energy(sigma->0) =      -56.64998949


--------------------------------------------------------------------------------------------------------




--------------------------------------- Iteration      1(  11)  ---------------------------------------


    POTLOK:  cpu time      0.3169: real time      0.3186
    SETDIJ:  cpu time      0.1935: real time      0.1943
     EDDAV:  cpu time      0.3697: real time      0.3718
       DOS:  cpu time      0.0001: real time      0.0001
    CHARGE:  cpu time      0.1950: real time      0.1957
    MIXING:  cpu time      0.0162: real time      0.0162
    --------------------------------------------
      LOOP:  cpu time      1.0913: real time      1.0968

 eigenvalue-minimisations  :    56
 total energy-change (2. order) : 0.1184809E-01  (-0.8308601E-03)
 number of electron      22.0000000 magnetization 
 augmentation part        0.4822880 magnetization 

 Broyden mixing:
  rms(total) = 0.72257E-02    rms(broyden)= 0.72254E-02
  rms(prec ) = 0.16713E-01
  weight for this iteration     100.00

 eigenvalues of (default mixing * dielectric matrix)
  average eigenvalue GAMMA=   1.7280
  3.3036  2.5052  1.4432  1.0432  1.0366  1.0366

 Free energy of the ion-electron system (eV)
  ---------------------------------------------------
  alpha Z        PSCENC =         0.62641250
  Ewald energy   TEWEN  =       862.61032905
  -Hartree energ DENC   =     -1392.58463322
  -exchange      EXHF   =         0.00000000
  -V(xc)+E(xc)   XCENC  =        72.23937036
  PAW double counting   =       289.08827739     -294.35959635
  entropy T*S    EENTRO =        -0.00000000
  eigenvalues    EBANDS =      -257.77569967
  atomic energy  EATOM  =       663.51739852
  Solvation  Ediel_sol  =         0.00000000
  ---------------------------------------------------
  free energy    TOTEN  =       -56.63814141 eV

  energy without entropy =      -56.63814141  energy(sigma->0) =      -56.63814141


--------------------------------------------------------------------------------------------------------




--------------------------------------- Iteration      1(  12)  ---------------------------------------


    POTLOK:  cpu time      0.3157: real time      0.3174
    SETDIJ:  cpu time      0.1908: real time      0.1917
     EDDAV:  cpu time      0.4485: real time      0.4509
       DOS:  cpu time      0.0001: real time      0.0001
    CHARGE:  cpu time      0.1929: real time      0.1936
    MIXING:  cpu time      0.0166: real time      0.0167
    --------------------------------------------
      LOOP:  cpu time      1.1647: real time      1.1705

 eigenvalue-minimisations  :    72
 total energy-change (2. order) :-0.2155129E-02  (-0.1550250E-03)
 number of electron      22.0000000 magnetization 
 augmentation part        0.4819562 magnetization 

 Broyden mixing:
  rms(total) = 0.58372E-02    rms(broyden)= 0.58371E-02
  rms(prec ) = 0.11415E-01
  weight for this iteration     100.00

 eigenvalues of (default mixing * dielectric matrix)
  average eigenvalue GAMMA=   1.8955
  4.2630  2.4644  2.1710  1.4840  0.9257  0.9802  0.9802

 Free energy of the ion-electron system (eV)
  ---------------------------------------------------
  alpha Z        PSCENC =         0.62641250
  Ewald energy   TEWEN  =       862.61032905
  -Hartree energ DENC   =     -1394.21884527
  -exchange      EXHF   =         0.00000000
  -V(xc)+E(xc)   XCENC  =        72.26259478
  PAW double counting   =       288.63905495     -293.91195746
  entropy T*S    EENTRO =        -0.00000000
  eigenvalues    EBANDS =      -256.16528362
  atomic energy  EATOM  =       663.51739852
  Solvation  Ediel_sol  =         0.00000000
  ---------------------------------------------------
  free energy    TOTEN  =       -56.64029654 eV

  energy without entropy =      -56.64029654  energy(sigma->0) =      -56.64029654


--------------------------------------------------------------------------------------------------------




--------------------------------------- Iteration      1(  13)  ---------------------------------------


    POTLOK:  cpu time      0.3122: real time      0.3139
    SETDIJ:  cpu time      0.1929: real time      0.1938
     EDDAV:  cpu time      0.4111: real time      0.4134
       DOS:  cpu time      0.0001: real time      0.0001
    CHARGE:  cpu time      0.1951: real time      0.1959
    MIXING:  cpu time      0.0171: real time      0.0172
    --------------------------------------------
      LOOP:  cpu time      1.1286: real time      1.1342

 eigenvalue-minimisations  :    64
 total energy-change (2. order) :-0.9614751E-02  (-0.1710758E-03)
 number of electron      22.0000000 magnetization 
 augmentation part        0.4820237 magnetization 

 Broyden mixing:
  rms(total) = 0.29867E-02    rms(broyden)= 0.29864E-02
  rms(prec ) = 0.62464E-02
  weight for this iteration     100.00

 eigenvalues of (default mixing * dielectric matrix)
  average eigenvalue GAMMA=   1.9808
  5.0959  2.7705  2.2228  1.4365  1.4365  0.9234  0.9802  0.9802

 Free energy of the ion-electron system (eV)
  ---------------------------------------------------
  alpha Z        PSCENC =         0.62641250
  Ewald energy   TEWEN  =       862.61032905
  -Hartree energ DENC   =     -1394.89715589
  -exchange      EXHF   =         0.00000000
  -V(xc)+E(xc)   XCENC  =        72.26048791
  PAW double counting   =       288.62103930     -293.89297770
  entropy T*S    EENTRO =        -0.00000000
  eigenvalues    EBANDS =      -255.49544499
  atomic energy  EATOM  =       663.51739852
  Solvation  Ediel_sol  =         0.00000000
  ---------------------------------------------------
  free energy    TOTEN  =       -56.64991129 eV

  energy without entropy =      -56.64991129  energy(sigma->0) =      -56.64991129


--------------------------------------------------------------------------------------------------------




--------------------------------------- Iteration      1(  14)  ---------------------------------------


    POTLOK:  cpu time      0.3109: real time      0.3126
    SETDIJ:  cpu time      0.1917: real time      0.1925
     EDDAV:  cpu time      0.4116: real time      0.4139
       DOS:  cpu time      0.0001: real time      0.0001
    CHARGE:  cpu time      0.1949: real time      0.1957
    MIXING:  cpu time      0.0155: real time      0.0156
    --------------------------------------------
      LOOP:  cpu time      1.1248: real time      1.1305

 eigenvalue-minimisations  :    64
 total energy-change (2. order) :-0.5752039E-02  (-0.7527649E-04)
 number of electron      22.0000000 magnetization 
 augmentation part        0.4818676 magnetization 

 Broyden mixing:
  rms(total) = 0.18881E-02    rms(broyden)= 0.18880E-02
  rms(prec ) = 0.37250E-02
  weight for this iteration     100.00

 eigenvalues of (default mixing * dielectric matrix)
  average eigenvalue GAMMA=   2.2137
  6.4694  3.5683  2.3405  2.1053  1.3071  1.3071  0.9644  0.9644  0.8962

 Free energy of the ion-electron system (eV)
  ---------------------------------------------------
  alpha Z        PSCENC =         0.62641250
  Ewald energy   TEWEN  =       862.61032905
  -Hartree energ DENC   =     -1395.28451276
  -exchange      EXHF   =         0.00000000
  -V(xc)+E(xc)   XCENC  =        72.25634641
  PAW double counting   =       288.75214165     -294.02566127
  entropy T*S    EENTRO =        -0.00000000
  eigenvalues    EBANDS =      -255.10811744
  atomic energy  EATOM  =       663.51739852
  Solvation  Ediel_sol  =         0.00000000
  ---------------------------------------------------
  free energy    TOTEN  =       -56.65566333 eV

  energy without entropy =      -56.65566333  energy(sigma->0) =      -56.65566333


--------------------------------------------------------------------------------------------------------




--------------------------------------- Iteration      1(  15)  ---------------------------------------


    POTLOK:  cpu time      0.3064: real time      0.3080
    SETDIJ:  cpu time      0.1911: real time      0.1920
     EDDAV:  cpu time      0.3285: real time      0.3303
       DOS:  cpu time      0.0001: real time      0.0001
    CHARGE:  cpu time      0.1952: real time      0.1960
    MIXING:  cpu time      0.0154: real time      0.0155
    --------------------------------------------
      LOOP:  cpu time      1.0367: real time      1.0418

 eigenvalue-minimisations  :    48
 total energy-change (2. order) :-0.4419898E-02  (-0.7644623E-04)
 number of electron      22.0000000 magnetization 
 augmentation part        0.4818903 magnetization 

 Broyden mixing:
  rms(total) = 0.10040E-02    rms(broyden)= 0.10039E-02
  rms(prec ) = 0.17381E-02
  weight for this iteration     100.00

 eigenvalues of (default mixing * dielectric matrix)
  average eigenvalue GAMMA=   2.2022
  6.7959  3.9924  2.4396  2.0368  1.4569  1.4569  0.9775  0.9775  0.9906  0.8982

 Free energy of the ion-electron system (eV)
  ---------------------------------------------------
  alpha Z        PSCENC =         0.62641250
  Ewald energy   TEWEN  =       862.61032905
  -Hartree energ DENC   =     -1395.26148559
  -exchange      EXHF   =         0.00000000
  -V(xc)+E(xc)   XCENC  =        72.24435359
  PAW double counting   =       288.73433492     -294.00630572
  entropy T*S    EENTRO =        -0.00000000
  eigenvalues    EBANDS =      -255.12512050
  atomic energy  EATOM  =       663.51739852
  Solvation  Ediel_sol  =         0.00000000
  ---------------------------------------------------
  free energy    TOTEN  =       -56.66008323 eV

  energy without entropy =      -56.66008323  energy(sigma->0) =      -56.66008323


--------------------------------------------------------------------------------------------------------




--------------------------------------- Iteration      1(  16)  ---------------------------------------


    POTLOK:  cpu time      0.3081: real time      0.3098
    SETDIJ:  cpu time      0.1923: real time      0.1931
     EDDAV:  cpu time      0.4555: real time      0.4580
       DOS:  cpu time      0.0001: real time      0.0001
    CHARGE:  cpu time      0.1949: real time      0.1957
    MIXING:  cpu time      0.0163: real time      0.0164
    --------------------------------------------
      LOOP:  cpu time      1.1673: real time      1.1731

 eigenvalue-minimisations  :    72
 total energy-change (2. order) :-0.8996069E-03  (-0.7886834E-05)
 number of electron      22.0000000 magnetization 
 augmentation part        0.4818445 magnetization 

 Broyden mixing:
  rms(total) = 0.69442E-03    rms(broyden)= 0.69431E-03
  rms(prec ) = 0.11304E-02
  weight for this iteration     100.00

 eigenvalues of (default mixing * dielectric matrix)
  average eigenvalue GAMMA=   2.3101
  7.8199  4.4365  2.5367  2.3273  1.9495  1.4289  0.9796  0.9796  1.1089  0.9223
  0.9223

 Free energy of the ion-electron system (eV)
  ---------------------------------------------------
  alpha Z        PSCENC =         0.62641250
  Ewald energy   TEWEN  =       862.61032905
  -Hartree energ DENC   =     -1395.31651372
  -exchange      EXHF   =         0.00000000
  -V(xc)+E(xc)   XCENC  =        72.24528947
  PAW double counting   =       288.74902562     -294.02091608
  entropy T*S    EENTRO =        -0.00000000
  eigenvalues    EBANDS =      -255.07200821
  atomic energy  EATOM  =       663.51739852
  Solvation  Ediel_sol  =         0.00000000
  ---------------------------------------------------
  free energy    TOTEN  =       -56.66098283 eV

  energy without entropy =      -56.66098283  energy(sigma->0) =      -56.66098283


--------------------------------------------------------------------------------------------------------




--------------------------------------- Iteration      1(  17)  ---------------------------------------


    POTLOK:  cpu time      0.3040: real time      0.3057
    SETDIJ:  cpu time      0.1902: real time      0.1910
     EDDAV:  cpu time      0.4111: real time      0.4133
       DOS:  cpu time      0.0001: real time      0.0001
    CHARGE:  cpu time      0.1963: real time      0.1971
    MIXING:  cpu time      0.0163: real time      0.0164
    --------------------------------------------
      LOOP:  cpu time      1.1181: real time      1.1236

 eigenvalue-minimisations  :    64
 total energy-change (2. order) :-0.6969960E-03  (-0.5267753E-05)
 number of electron      22.0000000 magnetization 
 augmentation part        0.4818285 magnetization 

 Broyden mixing:
  rms(total) = 0.29759E-03    rms(broyden)= 0.29751E-03
  rms(prec ) = 0.54747E-03
  weight for this iteration     100.00

 eigenvalues of (default mixing * dielectric matrix)
  average eigenvalue GAMMA=   2.3254
  8.0559  4.8759  2.8955  2.4211  1.8038  1.4880  1.4880  0.9950  0.9950  0.8958
  0.9954  0.9954

 Free energy of the ion-electron system (eV)
  ---------------------------------------------------
  alpha Z        PSCENC =         0.62641250
  Ewald energy   TEWEN  =       862.61032905
  -Hartree energ DENC   =     -1395.32501424
  -exchange      EXHF   =         0.00000000
  -V(xc)+E(xc)   XCENC  =        72.24405635
  PAW double counting   =       288.72363776     -293.99572844
  entropy T*S    EENTRO =        -0.00000000
  eigenvalues    EBANDS =      -255.06277133
  atomic energy  EATOM  =       663.51739852
  Solvation  Ediel_sol  =         0.00000000
  ---------------------------------------------------
  free energy    TOTEN  =       -56.66167983 eV

  energy without entropy =      -56.66167983  energy(sigma->0) =      -56.66167983


--------------------------------------------------------------------------------------------------------




--------------------------------------- Iteration      1(  18)  ---------------------------------------


    POTLOK:  cpu time      0.3014: real time      0.3031
    SETDIJ:  cpu time      0.1909: real time      0.1918
     EDDAV:  cpu time      0.4116: real time      0.4137
       DOS:  cpu time      0.0001: real time      0.0001
    CHARGE:  cpu time      0.1945: real time      0.1953
    MIXING:  cpu time      0.0163: real time      0.0164
    --------------------------------------------
      LOOP:  cpu time      1.1149: real time      1.1203

 eigenvalue-minimisations  :    64
 total energy-change (2. order) :-0.2080109E-03  (-0.1184945E-05)
 number of electron      22.0000000 magnetization 
 augmentation part        0.4818036 magnetization 

 Broyden mixing:
  rms(total) = 0.26679E-03    rms(broyden)= 0.26673E-03
  rms(prec ) = 0.40636E-03
  weight for this iteration     100.00

 eigenvalues of (default mixing * dielectric matrix)
  average eigenvalue GAMMA=   2.3412
  8.5363  5.1585  3.1239  2.5385  1.9981  1.7663  1.4155  0.9742  0.9742  1.0618
  1.0618  0.9682  0.8582

 Free energy of the ion-electron system (eV)
  ---------------------------------------------------
  alpha Z        PSCENC =         0.62641250
  Ewald energy   TEWEN  =       862.61032905
  -Hartree energ DENC   =     -1395.35048771
  -exchange      EXHF   =         0.00000000
  -V(xc)+E(xc)   XCENC  =        72.24457147
  PAW double counting   =       288.72763482     -293.99988947
  entropy T*S    EENTRO =        -0.00000000
  eigenvalues    EBANDS =      -255.03785703
  atomic energy  EATOM  =       663.51739852
  Solvation  Ediel_sol  =         0.00000000
  ---------------------------------------------------
  free energy    TOTEN  =       -56.66188784 eV

  energy without entropy =      -56.66188784  energy(sigma->0) =      -56.66188784


--------------------------------------------------------------------------------------------------------




--------------------------------------- Iteration      1(  19)  ---------------------------------------


    POTLOK:  cpu time      0.3023: real time      0.3039
    SETDIJ:  cpu time      0.1917: real time      0.1926
     EDDAV:  cpu time      0.3735: real time      0.3755
       DOS:  cpu time      0.0001: real time      0.0001
    CHARGE:  cpu time      0.1941: real time      0.1949
    MIXING:  cpu time      0.0169: real time      0.0169
    --------------------------------------------
      LOOP:  cpu time      1.0786: real time      1.0839

 eigenvalue-minimisations  :    56
 total energy-change (2. order) :-0.9727856E-04  (-0.3715438E-06)
 number of electron      22.0000000 magnetization 
 augmentation part        0.4818170 magnetization 

 Broyden mixing:
  rms(total) = 0.12074E-03    rms(broyden)= 0.12065E-03
  rms(prec ) = 0.20255E-03
  weight for this iteration     100.00

 eigenvalues of (default mixing * dielectric matrix)
  average eigenvalue GAMMA=   2.3063
  8.5551  5.3449  3.2808  2.3330  2.2900  1.7939  1.4777  1.1694  1.1694  0.9830
  0.9830  0.8847  1.0433  0.9795

 Free energy of the ion-electron system (eV)
  ---------------------------------------------------
  alpha Z        PSCENC =         0.62641250
  Ewald energy   TEWEN  =       862.61032905
  -Hartree energ DENC   =     -1395.33592583
  -exchange      EXHF   =         0.00000000
  -V(xc)+E(xc)   XCENC  =        72.24369923
  PAW double counting   =       288.71353807     -293.98571109
  entropy T*S    EENTRO =        -0.00000000
  eigenvalues    EBANDS =      -255.05172557
  atomic energy  EATOM  =       663.51739852
  Solvation  Ediel_sol  =         0.00000000
  ---------------------------------------------------
  free energy    TOTEN  =       -56.66198512 eV

  energy without entropy =      -56.66198512  energy(sigma->0) =      -56.66198512


--------------------------------------------------------------------------------------------------------




--------------------------------------- Iteration      1(  20)  ---------------------------------------


    POTLOK:  cpu time      0.3057: real time      0.3073
    SETDIJ:  cpu time      0.1945: real time      0.1954
     EDDAV:  cpu time      0.4142: real time      0.4165
       DOS:  cpu time      0.0001: real time      0.0001
    CHARGE:  cpu time      0.1948: real time      0.1956
    MIXING:  cpu time      0.0173: real time      0.0173
    --------------------------------------------
      LOOP:  cpu time      1.1266: real time      1.1323

 eigenvalue-minimisations  :    64
 total energy-change (2. order) :-0.3973459E-04  (-0.6003525E-07)
 number of electron      22.0000000 magnetization 
 augmentation part        0.4818183 magnetization 

 Broyden mixing:
  rms(total) = 0.54056E-04    rms(broyden)= 0.53896E-04
  rms(prec ) = 0.11155E-03
  weight for this iteration     100.00

 eigenvalues of (default mixing * dielectric matrix)
  average eigenvalue GAMMA=   2.3778
  8.8644  5.7642  3.9494  2.7569  2.4050  1.8598  1.6138  1.4549  1.1093  1.1093
  0.9749  0.9749  0.8740  0.9780  0.9780

 Free energy of the ion-electron system (eV)
  ---------------------------------------------------
  alpha Z        PSCENC =         0.62641250
  Ewald energy   TEWEN  =       862.61032905
  -Hartree energ DENC   =     -1395.34265597
  -exchange      EXHF   =         0.00000000
  -V(xc)+E(xc)   XCENC  =        72.24390407
  PAW double counting   =       288.71981432     -293.99195767
  entropy T*S    EENTRO =        -0.00000000
  eigenvalues    EBANDS =      -255.04526969
  atomic energy  EATOM  =       663.51739852
  Solvation  Ediel_sol  =         0.00000000
  ---------------------------------------------------
  free energy    TOTEN  =       -56.66202485 eV

  energy without entropy =      -56.66202485  energy(sigma->0) =      -56.66202485


--------------------------------------------------------------------------------------------------------




--------------------------------------- Iteration      1(  21)  ---------------------------------------


    POTLOK:  cpu time      0.3108: real time      0.3124
    SETDIJ:  cpu time      0.1906: real time      0.1914
     EDDAV:  cpu time      0.4128: real time      0.4151
       DOS:  cpu time      0.0001: real time      0.0001
    CHARGE:  cpu time      0.1937: real time      0.1945
    MIXING:  cpu time      0.0179: real time      0.0180
    --------------------------------------------
      LOOP:  cpu time      1.1259: real time      1.1315

 eigenvalue-minimisations  :    64
 total energy-change (2. order) :-0.2482569E-04  (-0.3673429E-07)
 number of electron      22.0000000 magnetization 
 augmentation part        0.4818200 magnetization 

 Broyden mixing:
  rms(total) = 0.49094E-04    rms(broyden)= 0.48925E-04
  rms(prec ) = 0.73751E-04
  weight for this iteration     100.00

 eigenvalues of (default mixing * dielectric matrix)
  average eigenvalue GAMMA=   2.3672
  8.9394  5.9153  4.1473  2.8304  2.4238  1.8536  1.5747  1.5747  1.3879  1.3879
  0.9799  0.9799  1.0410  1.0410  0.9294  0.8695

 Free energy of the ion-electron system (eV)
  ---------------------------------------------------
  alpha Z        PSCENC =         0.62641250
  Ewald energy   TEWEN  =       862.61032905
  -Hartree energ DENC   =     -1395.34244526
  -exchange      EXHF   =         0.00000000
  -V(xc)+E(xc)   XCENC  =        72.24372750
  PAW double counting   =       288.71919198     -293.99133894
  entropy T*S    EENTRO =        -0.00000000
  eigenvalues    EBANDS =      -255.04532503
  atomic energy  EATOM  =       663.51739852
  Solvation  Ediel_sol  =         0.00000000
  ---------------------------------------------------
  free energy    TOTEN  =       -56.66204968 eV

  energy without entropy =      -56.66204968  energy(sigma->0) =      -56.66204968


--------------------------------------------------------------------------------------------------------




--------------------------------------- Iteration      1(  22)  ---------------------------------------


    POTLOK:  cpu time      0.3150: real time      0.3167
    SETDIJ:  cpu time      0.1917: real time      0.1926
     EDDAV:  cpu time      0.4149: real time      0.4171
       DOS:  cpu time      0.0001: real time      0.0001
    CHARGE:  cpu time      0.1960: real time      0.1967
    MIXING:  cpu time      0.0174: real time      0.0174
    --------------------------------------------
      LOOP:  cpu time      1.1351: real time      1.1406

 eigenvalue-minimisations  :    64
 total energy-change (2. order) :-0.9135207E-05  (-0.1196435E-07)
 number of electron      22.0000000 magnetization 
 augmentation part        0.4818196 magnetization 

 Broyden mixing:
  rms(total) = 0.26800E-04    rms(broyden)= 0.26493E-04
  rms(prec ) = 0.40174E-04
  weight for this iteration     100.00

 eigenvalues of (default mixing * dielectric matrix)
  average eigenvalue GAMMA=   2.4055
  9.0272  6.3430  4.6601  3.1260  2.5457  2.2822  1.9282  1.4086  1.2968  1.2968
  0.9754  0.9754  1.1135  1.1135  0.9861  0.9399  0.8758

 Free energy of the ion-electron system (eV)
  ---------------------------------------------------
  alpha Z        PSCENC =         0.62641250
  Ewald energy   TEWEN  =       862.61032905
  -Hartree energ DENC   =     -1395.34411696
  -exchange      EXHF   =         0.00000000
  -V(xc)+E(xc)   XCENC  =        72.24375174
  PAW double counting   =       288.71969928     -293.99184743
  entropy T*S    EENTRO =        -0.00000000
  eigenvalues    EBANDS =      -255.04368552
  atomic energy  EATOM  =       663.51739852
  Solvation  Ediel_sol  =         0.00000000
  ---------------------------------------------------
  free energy    TOTEN  =       -56.66205881 eV

  energy without entropy =      -56.66205881  energy(sigma->0) =      -56.66205881


--------------------------------------------------------------------------------------------------------




--------------------------------------- Iteration      1(  23)  ---------------------------------------


    POTLOK:  cpu time      0.3148: real time      0.3164
    SETDIJ:  cpu time      0.1919: real time      0.1927
     EDDAV:  cpu time      0.4142: real time      0.4163
       DOS:  cpu time      0.0001: real time      0.0001
    CHARGE:  cpu time      0.1942: real time      0.1950
    MIXING:  cpu time      0.0190: real time      0.0191
    --------------------------------------------
      LOOP:  cpu time      1.1342: real time      1.1396

 eigenvalue-minimisations  :    64
 total energy-change (2. order) :-0.3056958E-05  (-0.6512712E-08)
 number of electron      22.0000000 magnetization 
 augmentation part        0.4818186 magnetization 

 Broyden mixing:
  rms(total) = 0.15087E-04    rms(broyden)= 0.14535E-04
  rms(prec ) = 0.22509E-04
  weight for this iteration     100.00

 eigenvalues of (default mixing * dielectric matrix)
  average eigenvalue GAMMA=   2.3811
  9.0903  6.4948  4.8260  3.2681  2.4870  2.4870  1.8184  1.2750  1.2750  1.5063
  1.4503  0.9785  0.9785  1.0371  1.0371  1.0463  0.8719  0.9324

 Free energy of the ion-electron system (eV)
  ---------------------------------------------------
  alpha Z        PSCENC =         0.62641250
  Ewald energy   TEWEN  =       862.61032905
  -Hartree energ DENC   =     -1395.34597106
  -exchange      EXHF   =         0.00000000
  -V(xc)+E(xc)   XCENC  =        72.24379730
  PAW double counting   =       288.72071696     -293.99287577
  entropy T*S    EENTRO =        -0.00000000
  eigenvalues    EBANDS =      -255.04186937
  atomic energy  EATOM  =       663.51739852
  Solvation  Ediel_sol  =         0.00000000
  ---------------------------------------------------
  free energy    TOTEN  =       -56.66206187 eV

  energy without entropy =      -56.66206187  energy(sigma->0) =      -56.66206187


--------------------------------------------------------------------------------------------------------




--------------------------------------- Iteration      1(  24)  ---------------------------------------


    POTLOK:  cpu time      0.3152: real time      0.3169
    SETDIJ:  cpu time      0.1903: real time      0.1911
     EDDAV:  cpu time      0.4152: real time      0.4174
       DOS:  cpu time      0.0001: real time      0.0001
    CHARGE:  cpu time      0.1952: real time      0.1959
    MIXING:  cpu time      0.0187: real time      0.0188
    --------------------------------------------
      LOOP:  cpu time      1.1346: real time      1.1401

 eigenvalue-minimisations  :    64
 total energy-change (2. order) :-0.1328810E-05  (-0.2352191E-08)
 number of electron      22.0000000 magnetization 
 augmentation part        0.4818183 magnetization 

 Broyden mixing:
  rms(total) = 0.11507E-04    rms(broyden)= 0.10777E-04
  rms(prec ) = 0.16008E-04
  weight for this iteration     100.00

 eigenvalues of (default mixing * dielectric matrix)
  average eigenvalue GAMMA=   2.4312
  9.1343  6.8584  5.1230  3.7458  2.7512  2.4237  2.2210  1.9556  1.3012  1.3012
  1.3703  0.9769  0.9769  1.0516  1.0516  1.1020  1.0488  0.8712  0.9280

 Free energy of the ion-electron system (eV)
  ---------------------------------------------------
  alpha Z        PSCENC =         0.62641250
  Ewald energy   TEWEN  =       862.61032905
  -Hartree energ DENC   =     -1395.34599821
  -exchange      EXHF   =         0.00000000
  -V(xc)+E(xc)   XCENC  =        72.24378456
  PAW double counting   =       288.72029816     -293.99245960
  entropy T*S    EENTRO =        -0.00000000
  eigenvalues    EBANDS =      -255.04182817
  atomic energy  EATOM  =       663.51739852
  Solvation  Ediel_sol  =         0.00000000
  ---------------------------------------------------
  free energy    TOTEN  =       -56.66206320 eV

  energy without entropy =      -56.66206320  energy(sigma->0) =      -56.66206320


--------------------------------------------------------------------------------------------------------




--------------------------------------- Iteration      1(  25)  ---------------------------------------


    POTLOK:  cpu time      0.3205: real time      0.3222
    SETDIJ:  cpu time      0.1899: real time      0.1907
     EDDAV:  cpu time      0.3759: real time      0.3779
       DOS:  cpu time      0.0001: real time      0.0001
    --------------------------------------------
      LOOP:  cpu time      0.8864: real time      0.8909

 eigenvalue-minimisations  :    56
 total energy-change (2. order) :-0.8740659E-06  (-0.2140945E-08)
 number of electron      22.0000000 magnetization 
 augmentation part        0.4818183 magnetization 

 Free energy of the ion-electron system (eV)
  ---------------------------------------------------
  alpha Z        PSCENC =         0.62641250
  Ewald energy   TEWEN  =       862.61032905
  -Hartree energ DENC   =     -1395.34593132
  -exchange      EXHF   =         0.00000000
  -V(xc)+E(xc)   XCENC  =        72.24378448
  PAW double counting   =       288.71992330     -293.99207877
  entropy T*S    EENTRO =        -0.00000000
  eigenvalues    EBANDS =      -255.04190184
  atomic energy  EATOM  =       663.51739852
  Solvation  Ediel_sol  =         0.00000000
  ---------------------------------------------------
  free energy    TOTEN  =       -56.66206407 eV

  energy without entropy =      -56.66206407  energy(sigma->0) =      -56.66206407


--------------------------------------------------------------------------------------------------------




 average (electrostatic) potential at core
  the test charge radii are     0.6991  0.5201
  (the norm of the test charge is              1.0000)
       1 -58.6148       2 -58.8819       3 -58.9479       4 -58.6486       5 -41.7884
       6 -41.7452       7 -41.7871       8 -41.8844       9 -41.8273      10 -42.0616
 
 
 
 E-fermi :  -5.5758     XC(G=0):  -0.4451     alpha+bet : -0.1681

 Fermi energy:        -5.5757883764

 k-point     1 :       0.0000    0.0000    0.0000
  band No.  band energies     occupation 
      1     -19.5593      2.00000
      2     -17.7768      2.00000
      3     -14.9762      2.00000
      4     -12.7724      2.00000
      5     -11.6446      2.00000
      6     -10.4505      2.00000
      7     -10.2055      2.00000
      8      -8.7871      2.00000
      9      -8.1001      2.00000
     10      -7.4191      2.00000
     11      -5.8294      2.00000
     12      -1.9448      0.00000
     13      -0.3924      0.00000
     14       0.0092      0.00000
     15       0.2037      0.00000
     16       0.2280      0.00000
     17       0.3830      0.00000
     18       0.4487      0.00000
     19       0.5425      0.00000
     20       0.6854      0.00000
     21       0.8795      0.00000
     22       0.9188      0.00000
     23       0.9995      0.00000
     24       1.1194      0.00000


--------------------------------------------------------------------------------------------------------


 soft charge-density along one line, spin component           1
         0         1         2         3         4         5         6         7         8         9
 total charge-density along one line
 
 pseudopotential strength for first ion, spin component:           1
 10.253   0.020   0.002  -0.001   0.000   0.002  -0.001   0.001
  0.020  -0.001  -0.000   0.000  -0.000   0.000  -0.000   0.000
  0.002  -0.000  -4.371   0.004  -0.008  -0.016   0.001  -0.002
 -0.001   0.000   0.004  -4.369   0.001   0.001  -0.016   0.000
  0.000  -0.000  -0.008   0.001  -4.356  -0.002   0.000  -0.013
  0.002   0.000  -0.016   0.001  -0.002  -0.773   0.000  -0.000
 -0.001  -0.000   0.001  -0.016   0.000   0.000  -0.773   0.000
  0.001   0.000  -0.002   0.000  -0.013  -0.000   0.000  -0.772
 total augmentation occupancy for first ion, spin component:           1
  1.482  -1.055  -0.044   0.027  -0.015  -0.022   0.015  -0.012
 -1.055   0.842   0.088  -0.064   0.056   0.040  -0.026   0.020
 -0.044   0.088   1.164  -0.047   0.126   0.194  -0.019   0.047
  0.027  -0.064  -0.047   1.164  -0.016  -0.019   0.194  -0.005
 -0.015   0.056   0.126  -0.016   0.959   0.047  -0.005   0.107
 -0.022   0.040   0.194  -0.019   0.047   0.036  -0.006   0.012
  0.015  -0.026  -0.019   0.194  -0.005  -0.006   0.034  -0.002
 -0.012   0.020   0.047  -0.005   0.107   0.012  -0.002   0.014


------------------------ aborting loop because EDIFF is reached ----------------------------------------


    CHARGE:  cpu time      0.1955: real time      0.1963
    FORLOC:  cpu time      0.0360: real time      0.0361
    FORNL :  cpu time      1.0722: real time      1.0773
    STRESS:  cpu time      3.3924: real time      3.4085
    FORHAR:  cpu time      0.1127: real time      0.1132
    MIXING:  cpu time      0.0122: real time      0.0122
    OFIELD:  cpu time      0.0001: real time      0.0001

  FORCE on cell =-STRESS in cart. coord.  units (eV):
  Direction    XX          YY          ZZ          XY          YZ          ZX
  --------------------------------------------------------------------------------------
  Alpha Z     0.62641     0.62641     0.62641
  Ewald    -152.90938   364.77504   650.74435    68.26023    -7.30943  -100.01036
  Hartree   220.50348   466.00340   708.83932    34.25863    -6.95583   -73.08090
  E(xc)     -77.16108   -75.27116   -75.12868     0.21820     0.01034    -0.08528
  Local    -288.41539 -1017.64365 -1549.16465   -98.62536    14.13271   173.38968
  n-local   -27.84349   -30.27176   -29.72968    -0.27091    -0.02296    -0.12820
  augment    -0.50237    -0.66001    -0.63085    -0.01825     0.00161    -0.00578
  Kinetic   325.18228   287.66264   289.48861    -3.91130    -0.65479     0.10404
  Fock        0.00000     0.00000     0.00000     0.00000     0.00000     0.00000
  -------------------------------------------------------------------------------------
  Total      -0.51953    -4.77910    -4.95518    -0.08876    -0.79834     0.18320
  in kB      -0.24663    -2.26873    -2.35232    -0.04214    -0.37899     0.08697
  external pressure =       -1.62 kB  Pullay stress =        0.00 kB


 VOLUME and BASIS-vectors are now :
 -----------------------------------------------------------------------------
  energy-cutoff  :      520.00
  volume of cell :     3375.00
      direct lattice vectors                 reciprocal lattice vectors
    15.000000000  0.000000000  0.000000000     0.066666667  0.000000000  0.000000000
     0.000000000 15.000000000  0.000000000     0.000000000  0.066666667  0.000000000
     0.000000000  0.000000000 15.000000000     0.000000000  0.000000000  0.066666667

  length of vectors
    15.000000000 15.000000000 15.000000000     0.066666667  0.066666667  0.066666667


 FORCES acting on ions
    electron-ion (+dipol)            ewald-force                    non-local-force                 convergence-correction
 -----------------------------------------------------------------------------------------------
   -.485E+02 -.896E+02 0.103E+03   0.491E+02 0.903E+02 -.103E+03   -.525E+00 -.944E-01 0.234E+00   -.715E-05 0.348E-04 0.416E-04
   0.255E+02 0.854E+02 0.507E+02   -.262E+02 -.858E+02 -.504E+02   0.212E+00 -.590E-01 0.525E+00   -.455E-04 -.649E-04 0.116E-03
   0.691E+01 0.960E+02 -.416E+02   -.662E+01 -.958E+02 0.420E+02   0.341E+00 0.309E+00 -.139E+01   0.170E-05 0.157E-04 0.382E-04
   0.257E+02 -.800E+02 -.114E+03   -.257E+02 0.805E+02 0.114E+03   0.252E+00 -.105E+01 -.118E+01   0.186E-04 -.392E-04 -.545E-04
   -.285E+01 -.116E+02 0.643E+02   0.283E+01 0.117E+02 -.687E+02   0.120E+00 -.435E+00 0.529E+01   -.256E-05 0.651E-05 -.209E-04
   -.271E+02 -.563E+02 -.953E+01   0.287E+02 0.599E+02 0.117E+02   -.189E+01 -.430E+01 -.248E+01   0.426E-05 0.195E-04 0.179E-04
   0.191E+02 0.550E+02 0.376E+02   -.204E+02 -.586E+02 -.399E+02   0.150E+01 0.423E+01 0.278E+01   -.663E-05 -.132E-04 0.524E-05
   -.990E+01 0.640E+02 -.242E+02   0.106E+02 -.682E+02 0.259E+02   -.981E+00 0.502E+01 -.147E+01   -.228E-05 0.186E-04 -.644E-05
   0.140E+02 -.614E+02 0.188E+01   -.148E+02 0.655E+02 -.355E+01   0.873E+00 -.488E+01 0.202E+01   0.453E-05 -.131E-04 0.971E-06
   -.230E+01 -.106E+01 -.666E+02   0.261E+01 0.446E+00 0.724E+02   -.489E+00 0.606E+00 -.571E+01   0.211E-05 0.112E-05 -.191E-04
 -----------------------------------------------------------------------------------------------
   0.570E+00 0.634E+00 0.138E+01   -.133E-14 -.351E-13 -.142E-13   -.579E+00 -.652E+00 -.138E+01   -.329E-04 -.341E-04 0.119E-03
 
 
 POSITION                                       TOTAL-FORCE (eV/Angst)
 -----------------------------------------------------------------------------------
      7.91300      8.00100      6.03200         0.043630      0.675202     -0.239075
      7.45100      6.93000      6.70400        -0.466041     -0.392924      0.802074
      7.34400      6.80500      8.22600         0.630761      0.492437     -0.975803
      7.17300      7.86300      9.07600         0.185855     -0.630811     -1.224752
      7.89100      8.08200      4.91600         0.092870     -0.293028      0.862595
      8.30400      8.90800      6.55700        -0.299384     -0.681801     -0.276515
      7.12900      6.02500      6.12300         0.188978      0.683701      0.460721
      7.54100      5.75100      8.55000        -0.309825      0.869686      0.223335
      6.99500      8.88400      8.66000         0.104802     -0.712440      0.357796
      7.25800      7.75000     10.15600        -0.171646     -0.010022      0.009623
 -----------------------------------------------------------------------------------
    total drift:                               -0.009335     -0.018626     -0.000439


--------------------------------------------------------------------------------------------------------



  FREE ENERGIE OF THE ION-ELECTRON SYSTEM (eV)
  ---------------------------------------------------
  free  energy   TOTEN  =       -56.66206407 eV

  energy  without entropy=      -56.66206407  energy(sigma->0) =      -56.66206407
 


--------------------------------------------------------------------------------------------------------


    POTLOK:  cpu time      0.5124: real time      0.5149


--------------------------------------------------------------------------------------------------------


 stress matrix after NEB project (eV)
     -0.51953     -0.08876      0.18320
     -0.08876     -4.77910     -0.79834
      0.18320     -0.79834     -4.95518
  FORCES: max atom, RMS     1.390138    0.939056
  FORCE total and by dimension    2.969557    1.224752
  Stress total and by dimension    7.001509    4.955182
     LOOP+:  cpu time     30.7164: real time     30.8703
    4ORBIT:  cpu time      0.0000: real time      0.0000

 total amount of memory used by VASP MPI-rank0   224783. kBytes
=======================================================================

   base      :      30000. kBytes
   nonlr-proj:       1259. kBytes
   fftplans  :     123538. kBytes
   grid      :      67787. kBytes
   one-center:         15. kBytes
   wavefun   :       2184. kBytes
 
  
  
 General timing and accounting informations for this job:
 ========================================================
  
                  Total CPU time used (sec):       37.305
                            User time (sec):       34.048
                          System time (sec):        3.258
                         Elapsed time (sec):       38.855
  
                   Maximum memory used (kb):      560540.
                   Average memory used (kb):          N/A
  
                          Minor page faults:       190740
                          Major page faults:         5449
                 Voluntary context switches:         3102
