 vasp.6.4.2 20Jul23 (build Apr 10 2024 13:39:58) complex                        
  
 executed on             LinuxIFC date 2024.05.17  20:47:23
 running   16 mpi-ranks, on    1 nodes
 distrk:  each k-point on   16 cores,    1 groups
 distr:  one band on NCORE=   2 cores,    8 groups


--------------------------------------------------------------------------------------------------------


 INCAR:
   ISTART = 0
   ISPIN = 1
   LREAL = Auto
   ENCUT = 520
   NPAR = 8
   LPLANE = .TRUE.
   LSCALU = .FALSE.
   NSIM = 4
   LWAVE = .FALSE.
   LCHARG = .FALSE.
   ADDGRID = .TRUE.
   LASPH = .TRUE.
   PREC = Accurate
   ISMEAR = 0
   SIGMA = 0.05
   EDIFF = 1E-06
   NSW = 0
   TEBEG = 300
   TEEND = 700     	
   ISYM = 0
   NWRITE = 2

 POTCAR:   PAW_PBE C 08Apr2002                    
 POTCAR:   PAW_PBE H 15Jun2001                    
 POTCAR:   PAW_PBE C 08Apr2002                    
   VRHFIN =C: s2p2                                                                                  
   LEXCH  = PE                                                                                      
   EATOM  =   147.1560 eV,   10.8157 Ry                                                             
                                                                                                    
   TITEL  = PAW_PBE C 08Apr2002                                                                     
   LULTRA =        F    use ultrasoft PP ?                                                          
   IUNSCR =        0    unscreen: 0-lin 1-nonlin 2-no                                               
   RPACOR =     .000    partial core radius                                                         
   POMASS =   12.011; ZVAL   =    4.000    mass and valenz                                          
   RCORE  =    1.500    outmost cutoff radius                                                       
   RWIGS  =    1.630; RWIGS  =     .863    wigner-seitz radius (au A)                               
   ENMAX  =  400.000; ENMIN  =  300.000 eV                                                          
   ICORE  =        2    local potential                                                             
   LCOR   =        T    correct aug charges                                                         
   LPAW   =        T    paw PP                                                                      
   EAUG   =  644.873                                                                                
   DEXC   =     .000                                                                                
   RMAX   =    2.266    core radius for proj-oper                                                   
   RAUG   =    1.300    factor for augmentation sphere                                              
   RDEP   =    1.501    radius for radial grids                                                     
   RDEPT  =    1.300    core radius for aug-charge                                                  
   QCUT   =   -5.516; QGAM   =   11.032    optimization parameters                                  
                                                                                                    
   Description                                                                                      
     l     E      TYP  RCUT    TYP  RCUT                                                            
     0   .000     23  1.200                                                                         
     0   .000     23  1.200                                                                         
     1   .000     23  1.500                                                                         
     1  2.500     23  1.500                                                                         
     2   .000      7  1.500                                                                         
  local pseudopotential read in
  atomic valenz-charges read in
  non local Contribution for L=           0  read in
    real space projection operators read in
  non local Contribution for L=           0  read in
    real space projection operators read in
  non local Contribution for L=           1  read in
    real space projection operators read in
  non local Contribution for L=           1  read in
    real space projection operators read in
    PAW grid and wavefunctions read in
 
   number of l-projection  operators is LMAX  =           4
   number of lm-projection operators is LMMAX =           8
 
 POTCAR:   PAW_PBE H 15Jun2001                    
   VRHFIN =H: ultrasoft test                                                                        
   LEXCH  = PE                                                                                      
   EATOM  =    12.4884 eV,     .9179 Ry                                                             
                                                                                                    
   TITEL  = PAW_PBE H 15Jun2001                                                                     
   LULTRA =        F    use ultrasoft PP ?                                                          
   IUNSCR =        0    unscreen: 0-lin 1-nonlin 2-no                                               
   RPACOR =     .000    partial core radius                                                         
   POMASS =    1.000; ZVAL   =    1.000    mass and valenz                                          
   RCORE  =    1.100    outmost cutoff radius                                                       
   RWIGS  =     .700; RWIGS  =     .370    wigner-seitz radius (au A)                               
   ENMAX  =  250.000; ENMIN  =  200.000 eV                                                          
   RCLOC  =     .701    cutoff for local pot                                                        
   LCOR   =        T    correct aug charges                                                         
   LPAW   =        T    paw PP                                                                      
   EAUG   =  400.000                                                                                
   RMAX   =    2.174    core radius for proj-oper                                                   
   RAUG   =    1.200    factor for augmentation sphere                                              
   RDEP   =    1.112    radius for radial grids                                                     
   QCUT   =   -5.749; QGAM   =   11.498    optimization parameters                                  
                                                                                                    
   Description                                                                                      
     l     E      TYP  RCUT    TYP  RCUT                                                            
     0   .000     23  1.100                                                                         
     0   .500     23  1.100                                                                         
     1  -.300     23  1.100                                                                         
  local pseudopotential read in
  atomic valenz-charges read in
  non local Contribution for L=           0  read in
    real space projection operators read in
  non local Contribution for L=           0  read in
    real space projection operators read in
  non local Contribution for L=           1  read in
    real space projection operators read in
    PAW grid and wavefunctions read in
 
   number of l-projection  operators is LMAX  =           3
   number of lm-projection operators is LMMAX =           5
 
 Optimization of the real space projectors (new method)

 maximal supplied QI-value         = 25.13
 optimisation between [QCUT,QGAM] = [ 11.56, 23.12] = [ 37.43,149.72] Ry 
 Optimized for a Real-space Cutoff    1.04 Angstroem

   l    n(q)    QCUT    max X(q) W(low)/X(q) W(high)/X(q)  e(spline) 
   0      7    11.561     5.582    0.47E-04    0.94E-04    0.17E-07
   0      7    11.561    69.432    0.20E-03    0.59E-03    0.21E-06
   1      7    11.561     2.780    0.24E-04    0.70E-04    0.44E-07
   1      7    11.561     4.549    0.18E-03    0.25E-03    0.12E-06
 Optimization of the real space projectors (new method)

 maximal supplied QI-value         = 34.20
 optimisation between [QCUT,QGAM] = [ 11.63, 23.26] = [ 37.87,151.49] Ry 
 Optimized for a Real-space Cutoff    1.21 Angstroem

   l    n(q)    QCUT    max X(q) W(low)/X(q) W(high)/X(q)  e(spline) 
   0      8    11.629     4.436    0.19E-04    0.32E-04    0.47E-07
   0      8    11.629    16.131    0.16E-03    0.33E-03    0.21E-06
   1      8    11.629     4.654    0.18E-03    0.16E-03    0.26E-06
 PAW_PBE C 08Apr2002                    :
 energy of atom  1       EATOM= -147.1560
 kinetic energy error for atom=    0.0071 (will be added to EATOM!!)
 PAW_PBE H 15Jun2001                    :
 energy of atom  2       EATOM=  -12.4884
 kinetic energy error for atom=    0.0014 (will be added to EATOM!!)
 
 
 POSCAR:  C  H
  positions in cartesian coordinates
  No initial velocities read in
 exchange correlation table for  LEXCH =        8
   RHO(1)=    0.500       N(1)  =     2000
   RHO(2)=  100.500       N(2)  =     4000

 VTST: version 4.1, (05/19/21)

 CHAIN: initializing optimizer
 
 OPT: Using VASP Dynamics algorithm
 CHAIN: Read ICHAIN            0
 
 POSCAR:  C  H
  positions in cartesian coordinates
  No initial velocities read in
 


--------------------------------------------------------------------------------------------------------


 ion  position               nearest neighbor table
   1  0.541  0.533  0.404-   5 1.07   6 1.07   2 1.47
   2  0.480  0.469  0.446-   7 1.11   3 1.39   1 1.47
   3  0.466  0.464  0.538-   8 1.11   2 1.39   4 1.41
   4  0.493  0.522  0.607-   9 1.11  10 1.11   3 1.41
   5  0.540  0.539  0.333-   1 1.07
   6  0.586  0.569  0.446-   1 1.07
   7  0.448  0.420  0.400-   2 1.11
   8  0.431  0.402  0.560-   3 1.11
   9  0.528  0.586  0.590-   4 1.11
  10  0.488  0.496  0.676-   4 1.11
 

IMPORTANT INFORMATION: All symmetrisations will be switched off!
NOSYMM: (Re-)initialisation of all symmetry stuff for point group C_1.


----------------------------------------------------------------------------------------

                                     Primitive cell                                     

  volume of cell :    3375.0000

  direct lattice vectors                    reciprocal lattice vectors
    15.000000000  0.000000000  0.000000000     0.066666667  0.000000000  0.000000000
     0.000000000 15.000000000  0.000000000     0.000000000  0.066666667  0.000000000
     0.000000000  0.000000000 15.000000000     0.000000000  0.000000000  0.066666667

  length of vectors
    15.000000000 15.000000000 15.000000000     0.066666667  0.066666667  0.066666667

  position of ions in fractional coordinates (direct lattice)
     0.540933355  0.532866669  0.403933334
     0.479733340  0.468800004  0.446266651
     0.465666676  0.464333344  0.537866656
     0.493199984  0.522466660  0.606733322
     0.539599991  0.538533338  0.332999992
     0.585666656  0.568733342  0.446199989
     0.447933324  0.420199998  0.400466665
     0.431266658  0.402333323  0.559800021
     0.528066667  0.585533333  0.589800008
     0.487933318  0.496199989  0.675933329

  ion indices of the primitive-cell ions
   primitive index   ion index
                 1           1
                 2           2
                 3           3
                 4           4
                 5           5
                 6           6
                 7           7
                 8           8
                 9           9
                10          10

----------------------------------------------------------------------------------------

 
 
 KPOINTS: K-Spacing Value to Generate K-Mesh: 1.00

Automatic generation of k-mesh.
 Grid dimensions read from file:
 generate k-points for:    1    1    1

 Generating k-lattice:

  Cartesian coordinates                     Fractional coordinates (reciprocal lattice)
     0.066666667  0.000000000  0.000000000     1.000000000  0.000000000  0.000000000
     0.000000000  0.066666667  0.000000000     0.000000000  1.000000000  0.000000000
     0.000000000  0.000000000  0.066666667     0.000000000  0.000000000  1.000000000

  Length of vectors
     0.066666667  0.066666667  0.066666667

  Shift w.r.t. Gamma in fractional coordinates (k-lattice)
     0.000000000  0.000000000  0.000000000

 
 Subroutine IBZKPT returns following result:
 ===========================================
 
 Found      1 irreducible k-points:
 
 Following reciprocal coordinates:
            Coordinates               Weight
  0.000000  0.000000  0.000000      1.000000
 
 Following cartesian coordinates:
            Coordinates               Weight
  0.000000  0.000000  0.000000      1.000000
 


--------------------------------------------------------------------------------------------------------




 Dimension of arrays:
   k-points           NKPTS =      1   k-points in BZ     NKDIM =      1   number of bands    NBANDS=     24
   number of dos      NEDOS =    301   number of ions     NIONS =     10
   non local maximal  LDIM  =      4   non local SUM 2l+1 LMDIM =      8
   total plane-waves  NPLWV = ******
   max r-space proj   IRMAX =   3145   max aug-charges    IRDMAX=  39494
   dimension x,y,z NGX =   112 NGY =  112 NGZ =  112
   dimension x,y,z NGXF=   224 NGYF=  224 NGZF=  224
   support grid    NGXF=   448 NGYF=  448 NGZF=  448
   ions per type =               4   6
   NGX,Y,Z   is equivalent  to a cutoff of  12.41, 12.41, 12.41 a.u.
   NGXF,Y,Z  is equivalent  to a cutoff of  24.83, 24.83, 24.83 a.u.

 SYSTEM =  unknown system                          
 POSCAR =   C  H                                   

 Startparameter for this run:
   NWRITE =      2    write-flag & timer
   PREC   = accura    normal or accurate (medium, high low for compatibility)
   ISTART =      0    job   : 0-new  1-cont  2-samecut
   ICHARG =      2    charge: 1-file 2-atom 10-const
   ISPIN  =      1    spin polarized calculation?
   LNONCOLLINEAR =      F non collinear calculations
   LSORBIT =      F    spin-orbit coupling
   INIWAV =      1    electr: 0-lowe 1-rand  2-diag
   LASPH  =      T    aspherical Exc in radial PAW
 Electronic Relaxation 1
   ENCUT  =  520.0 eV  38.22 Ry    6.18 a.u.  27.89 27.89 27.89*2*pi/ulx,y,z
   ENINI  =  520.0     initial cutoff
   ENAUG  =  644.9 eV  augmentation charge cutoff
   NELM   =     60;   NELMIN=  2; NELMDL= -5     # of ELM steps 
   EDIFF  = 0.1E-05   stopping-criterion for ELM
   LREAL  =      T    real-space projection
   NLSPLINE    = F    spline interpolate recip. space projectors
   LCOMPAT=      F    compatible to vasp.4.4
   GGA_COMPAT  = T    GGA compatible to vasp.4.4-vasp.4.6
   LMAXPAW     = -100 max onsite density
   LMAXMIX     =    2 max onsite mixed and CHGCAR
   VOSKOWN=      0    Vosko Wilk Nusair interpolation
   ROPT   =   -0.00025  -0.00025
 Ionic relaxation
   EDIFFG = 0.1E-04   stopping-criterion for IOM
   NSW    =      0    number of steps for IOM
   NBLOCK =      1;   KBLOCK =      1    inner block; outer block 
   IBRION =     -1    ionic relax: 0-MD 1-quasi-New 2-CG
   NFREE  =      0    steps in history (QN), initial steepest desc. (CG)
   ISIF   =      2    stress and relaxation
   IWAVPR =     10    prediction:  0-non 1-charg 2-wave 3-comb
   ISYM   =      0    0-nonsym 1-usesym 2-fastsym
   LCORR  =      T    Harris-Foulkes like correction to forces

   POTIM  = 0.5000    time-step for ionic-motion
   TEIN   =    0.0    initial temperature
   TEBEG  =  300.0;   TEEND  = 700.0 temperature during run
   SMASS  =  -3.00    Nose mass-parameter (am)
   estimated Nose-frequenzy (Omega)   =  0.10E-29 period in steps = 0.13E+47 mass=  -0.514E-26a.u.
   SCALEE = 1.0000    scale energy and forces
   NPACO  =    256;   APACO  = 10.0  distance and # of slots for P.C.
   PSTRESS=    0.0 pullay stress

  Mass of Ions in am
   POMASS =  12.01  1.00
  Ionic Valenz
   ZVAL   =   4.00  1.00
  Atomic Wigner-Seitz radii
   RWIGS  =  -1.00 -1.00
  virtual crystal weights 
   VCA    =   1.00  1.00
   NELECT =      22.0000    total number of electrons
   NUPDOWN=      -1.0000    fix difference up-down

 DOS related values:
   EMIN   =  10.00;   EMAX   =-10.00  energy-range for DOS
   EFERMI =   0.00;   METHOD = LEGACY      
   ISMEAR =     0;   SIGMA  =   0.05  broadening in eV -4-tet -1-fermi 0-gaus

 Electronic relaxation 2 (details)
   IALGO  =     38    algorithm
   LDIAG  =      T    sub-space diagonalisation (order eigenvalues)
   LSUBROT=      F    optimize rotation matrix (better conditioning)
   TURBO    =      0    0=normal 1=particle mesh
   IRESTART =      0    0=no restart 2=restart with 2 vectors
   NREBOOT  =      0    no. of reboots
   NMIN     =      0    reboot dimension
   EREF     =   0.00    reference energy to select bands
   IMIX   =      4    mixing-type and parameters
     AMIX     =   0.40;   BMIX     =  1.00
     AMIX_MAG =   1.60;   BMIX_MAG =  1.00
     AMIN     =   0.10
     WC   =   100.;   INIMIX=   1;  MIXPRE=   1;  MAXMIX= -45

 Intra band minimization:
   WEIMIN = 0.0000     energy-eigenvalue tresh-hold
   EBREAK =  0.10E-07  absolut break condition
   DEPER  =   0.30     relativ break condition  

   TIME   =   0.40     timestep for ELM

  volume/ion in A,a.u.               =     337.50      2277.56
  Fermi-wavevector in a.u.,A,eV,Ry     =   0.305814  0.577905  1.272449  0.093522
  Thomas-Fermi vector in A             =   1.179187
 
 Write flags
   LWAVE        =      F    write WAVECAR
   LDOWNSAMPLE  =      F    k-point downsampling of WAVECAR
   LCHARG       =      F    write CHGCAR
   LVTOT        =      F    write LOCPOT, total local potential
   LVHAR        =      F    write LOCPOT, Hartree potential only
   LELF         =      F    write electronic localiz. function (ELF)
   LORBIT       =      0    0 simple, 1 ext, 2 COOP (PROOUT), +10 PAW based schemes


 Dipole corrections
   LMONO  =      F    monopole corrections only (constant potential shift)
   LDIPOL =      F    correct potential (dipole corrections)
   IDIPOL =      0    1-x, 2-y, 3-z, 4-all directions 
   EPSILON=  1.0000000 bulk dielectric constant

 Exchange correlation treatment:
   GGA     =    --    GGA type
   LEXCH   =     8    internal setting for exchange type
   LIBXC   =     F    Libxc                    
   VOSKOWN =     0    Vosko Wilk Nusair interpolation
   LHFCALC =     F    Hartree Fock is set to
   LHFONE  =     F    Hartree Fock one center treatment
   AEXX    =    0.0000 exact exchange contribution

 Linear response parameters
   LEPSILON=     F    determine dielectric tensor
   LRPA    =     F    only Hartree local field effects (RPA)
   LNABLA  =     F    use nabla operator in PAW spheres
   LVEL    =     F    velocity operator in full k-point grid
   CSHIFT  =0.1000    complex shift for real part using Kramers Kronig
   OMEGAMAX=  -1.0    maximum frequency
   DEG_THRESHOLD= 0.2000000E-02 threshold for treating states as degnerate
   RTIME   =   -0.100 relaxation time in fs
  (WPLASMAI=    0.000 imaginary part of plasma frequency in eV, 0.658/RTIME)
   DFIELD  = 0.0000000 0.0000000 0.0000000 field for delta impulse in time
 
  Optional k-point grid parameters
   LKPOINTS_OPT  =     F    use optional k-point grid
   KPOINTS_OPT_MODE=     1    mode for optional k-point grid
 
 Orbital magnetization related:
   ORBITALMAG=     F  switch on orbital magnetization
   LCHIMAG   =     F  perturbation theory with respect to B field
   DQ        =  0.001000  dq finite difference perturbation B field
   LLRAUG    =     F  two centre corrections for induced B field
   LBONE     =     F  B-component reconstruction in AE one-centre
   LVGVCALC  =     T  calculate vGv susceptibility
   LVGVAPPL  =     F  apply vGv susceptibility instead of pGv for G=0

 Random number generation:
   RANDOM_GENERATOR = DEFAULT
   PCG_SEED         = not used


--------------------------------------------------------------------------------------------------------


 Static calculation
 charge density and potential will be updated during run
 non-spin polarized calculation
 Variant of blocked Davidson
 Davidson routine will perform the subspace rotation
 perform sub-space diagonalisation
    after iterative eigenvector-optimisation
 modified Broyden-mixing scheme, WC =      100.0
 initial mixing is a Kerker type mixing with AMIX =  0.4000 and BMIX =      1.0000
 Hartree-type preconditioning will be used
 using additional bands           13
 real space projection scheme for non local part
 calculate Harris-corrections to forces 
   (improved forces if not selfconsistent)
 use gradient corrections 
 use of overlap-Matrix (Vanderbilt PP)
 Gauss-broadening in eV      SIGMA  =   0.05


--------------------------------------------------------------------------------------------------------


  energy-cutoff  :      520.00
  volume of cell :     3375.00
      direct lattice vectors                 reciprocal lattice vectors
    15.000000000  0.000000000  0.000000000     0.066666667  0.000000000  0.000000000
     0.000000000 15.000000000  0.000000000     0.000000000  0.066666667  0.000000000
     0.000000000  0.000000000 15.000000000     0.000000000  0.000000000  0.066666667

  length of vectors
    15.000000000 15.000000000 15.000000000     0.066666667  0.066666667  0.066666667


 
 k-points in units of 2pi/SCALE and weight: K-Spacing Value to Generate K-Mesh: 1.00
   0.00000000  0.00000000  0.00000000       1.000
 
 k-points in reciprocal lattice and weights: K-Spacing Value to Generate K-Mesh: 1.00
   0.00000000  0.00000000  0.00000000       1.000
 
 position of ions in fractional coordinates (direct lattice) 
   0.54093335  0.53286667  0.40393333
   0.47973334  0.46880000  0.44626665
   0.46566668  0.46433334  0.53786666
   0.49319998  0.52246666  0.60673332
   0.53959999  0.53853334  0.33299999
   0.58566666  0.56873334  0.44619999
   0.44793332  0.42020000  0.40046666
   0.43126666  0.40233332  0.55980002
   0.52806667  0.58553333  0.58980001
   0.48793332  0.49619999  0.67593333
 
 position of ions in cartesian coordinates  (Angst):
   8.11400032  7.99300003  6.05900002
   7.19600010  7.03200006  6.69399977
   6.98500013  6.96500015  8.06799984
   7.39799976  7.83699989  9.10099983
   8.09399986  8.07800007  4.99499989
   8.78499985  8.53100014  6.69299984
   6.71899986  6.30299997  6.00699997
   6.46899986  6.03499985  8.39700031
   7.92100000  8.78299999  8.84700012
   7.31899977  7.44299984 10.13899994
 


--------------------------------------------------------------------------------------------------------


 k-point   1 :   0.0000 0.0000 0.0000  plane waves:   90879

 maximum and minimum number of plane-waves per node :     45467    45412

 maximum number of plane-waves:     90879
 maximum index in each direction: 
   IXMAX=   27   IYMAX=   27   IZMAX=   27
   IXMIN=  -27   IYMIN=  -27   IZMIN=  -27


 real space projection operators:
  total allocation   :       1185.79 KBytes
  max/ min on nodes  :        592.95        592.84


 parallel 3D FFT for wavefunctions:
    minimum data exchange during FFTs selected (reduces bandwidth)
 parallel 3D FFT for charge:
    minimum data exchange during FFTs selected (reduces bandwidth)


 total amount of memory used by VASP MPI-rank0   224782. kBytes
=======================================================================

   base      :      30000. kBytes
   nonlr-proj:       1258. kBytes
   fftplans  :     123538. kBytes
   grid      :      67787. kBytes
   one-center:         15. kBytes
   wavefun   :       2184. kBytes
 
     INWAV:  cpu time      0.0000: real time      0.0000
 Broyden mixing: mesh for mixing (old mesh)
   NGX = 55   NGY = 55   NGZ = 55
  (NGX  =224   NGY  =224   NGZ  =224)
  gives a total of 166375 points

 initial charge density was supplied:
 charge density of overlapping atoms calculated
 number of electron      22.0000000 magnetization 
 keeping initial charge density in first step


--------------------------------------------------------------------------------------------------------


 Maximum index for non-local projection operator         1508
 Maximum index for augmentation-charges         2489 (set IRDMAX)


--------------------------------------------------------------------------------------------------------


 First call to EWALD:  gamma=   0.118
 Maximum number of real-space cells 3x 3x 3
 Maximum number of reciprocal cells 3x 3x 3

    FEWALD:  cpu time      0.0016: real time      0.0016


--------------------------------------- Ionic step        1  -------------------------------------------




--------------------------------------- Iteration      1(   1)  ---------------------------------------


    POTLOK:  cpu time      0.3332: real time      0.3351
    SETDIJ:  cpu time      0.1924: real time      0.1932
     EDDAV:  cpu time      0.4189: real time      0.4212
       DOS:  cpu time      0.0002: real time      0.0002
    --------------------------------------------
      LOOP:  cpu time      0.9448: real time      0.9498

 eigenvalue-minimisations  :    64
 total energy-change (2. order) : 0.9683403E+02  (-0.5313678E+03)
 number of electron      22.0000000 magnetization 
 augmentation part       22.0000000 magnetization 

 Free energy of the ion-electron system (eV)
  ---------------------------------------------------
  alpha Z        PSCENC =         0.62641250
  Ewald energy   TEWEN  =       867.89112439
  -Hartree energ DENC   =     -1297.75825824
  -exchange      EXHF   =         0.00000000
  -V(xc)+E(xc)   XCENC  =        66.90992596
  PAW double counting   =       156.01372664     -160.66969168
  entropy T*S    EENTRO =        -0.00099688
  eigenvalues    EBANDS =      -199.69560727
  atomic energy  EATOM  =       663.51739852
  Solvation  Ediel_sol  =         0.00000000
  ---------------------------------------------------
  free energy    TOTEN  =        96.83403395 eV

  energy without entropy =       96.83503083  energy(sigma->0) =       96.83453239


--------------------------------------------------------------------------------------------------------




--------------------------------------- Iteration      1(   2)  ---------------------------------------


     EDDAV:  cpu time      0.4854: real time      0.4881
       DOS:  cpu time      0.0001: real time      0.0001
    --------------------------------------------
      LOOP:  cpu time      0.4855: real time      0.4882

 eigenvalue-minimisations  :    80
 total energy-change (2. order) :-0.1196817E+03  (-0.1162840E+03)
 number of electron      22.0000000 magnetization 
 augmentation part       22.0000000 magnetization 

 Free energy of the ion-electron system (eV)
  ---------------------------------------------------
  alpha Z        PSCENC =         0.62641250
  Ewald energy   TEWEN  =       867.89112439
  -Hartree energ DENC   =     -1297.75825824
  -exchange      EXHF   =         0.00000000
  -V(xc)+E(xc)   XCENC  =        66.90992596
  PAW double counting   =       156.01372664     -160.66969168
  entropy T*S    EENTRO =        -0.00000000
  eigenvalues    EBANDS =      -319.37834462
  atomic energy  EATOM  =       663.51739852
  Solvation  Ediel_sol  =         0.00000000
  ---------------------------------------------------
  free energy    TOTEN  =       -22.84770652 eV

  energy without entropy =      -22.84770652  energy(sigma->0) =      -22.84770652


--------------------------------------------------------------------------------------------------------




--------------------------------------- Iteration      1(   3)  ---------------------------------------


     EDDAV:  cpu time      0.4438: real time      0.4463
       DOS:  cpu time      0.0001: real time      0.0001
    --------------------------------------------
      LOOP:  cpu time      0.4439: real time      0.4464

 eigenvalue-minimisations  :    72
 total energy-change (2. order) :-0.3742504E+02  (-0.3734597E+02)
 number of electron      22.0000000 magnetization 
 augmentation part       22.0000000 magnetization 

 Free energy of the ion-electron system (eV)
  ---------------------------------------------------
  alpha Z        PSCENC =         0.62641250
  Ewald energy   TEWEN  =       867.89112439
  -Hartree energ DENC   =     -1297.75825824
  -exchange      EXHF   =         0.00000000
  -V(xc)+E(xc)   XCENC  =        66.90992596
  PAW double counting   =       156.01372664     -160.66969168
  entropy T*S    EENTRO =        -0.00000000
  eigenvalues    EBANDS =      -356.80338793
  atomic energy  EATOM  =       663.51739852
  Solvation  Ediel_sol  =         0.00000000
  ---------------------------------------------------
  free energy    TOTEN  =       -60.27274982 eV

  energy without entropy =      -60.27274982  energy(sigma->0) =      -60.27274982


--------------------------------------------------------------------------------------------------------




--------------------------------------- Iteration      1(   4)  ---------------------------------------


     EDDAV:  cpu time      0.4045: real time      0.4068
       DOS:  cpu time      0.0001: real time      0.0001
    --------------------------------------------
      LOOP:  cpu time      0.4046: real time      0.4069

 eigenvalue-minimisations  :    64
 total energy-change (2. order) :-0.1785819E+01  (-0.1783346E+01)
 number of electron      22.0000000 magnetization 
 augmentation part       22.0000000 magnetization 

 Free energy of the ion-electron system (eV)
  ---------------------------------------------------
  alpha Z        PSCENC =         0.62641250
  Ewald energy   TEWEN  =       867.89112439
  -Hartree energ DENC   =     -1297.75825824
  -exchange      EXHF   =         0.00000000
  -V(xc)+E(xc)   XCENC  =        66.90992596
  PAW double counting   =       156.01372664     -160.66969168
  entropy T*S    EENTRO =        -0.00000000
  eigenvalues    EBANDS =      -358.58920649
  atomic energy  EATOM  =       663.51739852
  Solvation  Ediel_sol  =         0.00000000
  ---------------------------------------------------
  free energy    TOTEN  =       -62.05856838 eV

  energy without entropy =      -62.05856838  energy(sigma->0) =      -62.05856838


--------------------------------------------------------------------------------------------------------




--------------------------------------- Iteration      1(   5)  ---------------------------------------


     EDDAV:  cpu time      0.4095: real time      0.4118
       DOS:  cpu time      0.0001: real time      0.0001
    CHARGE:  cpu time      0.1992: real time      0.2000
    MIXING:  cpu time      0.0130: real time      0.0130
    --------------------------------------------
      LOOP:  cpu time      0.6219: real time      0.6250

 eigenvalue-minimisations  :    64
 total energy-change (2. order) :-0.3067354E-01  (-0.3066851E-01)
 number of electron      22.0000000 magnetization 
 augmentation part        0.5612607 magnetization 

 Broyden mixing:
  rms(total) = 0.11359E+01    rms(broyden)= 0.11357E+01
  rms(prec ) = 0.13582E+01
  weight for this iteration     100.00

 Free energy of the ion-electron system (eV)
  ---------------------------------------------------
  alpha Z        PSCENC =         0.62641250
  Ewald energy   TEWEN  =       867.89112439
  -Hartree energ DENC   =     -1297.75825824
  -exchange      EXHF   =         0.00000000
  -V(xc)+E(xc)   XCENC  =        66.90992596
  PAW double counting   =       156.01372664     -160.66969168
  entropy T*S    EENTRO =        -0.00000000
  eigenvalues    EBANDS =      -358.61988003
  atomic energy  EATOM  =       663.51739852
  Solvation  Ediel_sol  =         0.00000000
  ---------------------------------------------------
  free energy    TOTEN  =       -62.08924192 eV

  energy without entropy =      -62.08924192  energy(sigma->0) =      -62.08924192


--------------------------------------------------------------------------------------------------------




--------------------------------------- Iteration      1(   6)  ---------------------------------------


    POTLOK:  cpu time      0.3064: real time      0.3081
    SETDIJ:  cpu time      0.1945: real time      0.1953
     EDDAV:  cpu time      0.3255: real time      0.3274
       DOS:  cpu time      0.0001: real time      0.0001
    CHARGE:  cpu time      0.1932: real time      0.1940
    MIXING:  cpu time      0.0148: real time      0.0149
    --------------------------------------------
      LOOP:  cpu time      1.0345: real time      1.0397

 eigenvalue-minimisations  :    48
 total energy-change (2. order) : 0.4588258E+01  (-0.6563021E+00)
 number of electron      22.0000000 magnetization 
 augmentation part        0.5165399 magnetization 

 Broyden mixing:
  rms(total) = 0.55930E+00    rms(broyden)= 0.55928E+00
  rms(prec ) = 0.66103E+00
  weight for this iteration     100.00

 eigenvalues of (default mixing * dielectric matrix)
  average eigenvalue GAMMA=   1.6659
  1.6659

 Free energy of the ion-electron system (eV)
  ---------------------------------------------------
  alpha Z        PSCENC =         0.62641250
  Ewald energy   TEWEN  =       867.89112439
  -Hartree energ DENC   =     -1341.63102953
  -exchange      EXHF   =         0.00000000
  -V(xc)+E(xc)   XCENC  =        69.22794257
  PAW double counting   =       223.85335306     -229.02002020
  entropy T*S    EENTRO =        -0.00000000
  eigenvalues    EBANDS =      -311.96616475
  atomic energy  EATOM  =       663.51739852
  Solvation  Ediel_sol  =         0.00000000
  ---------------------------------------------------
  free energy    TOTEN  =       -57.50098344 eV

  energy without entropy =      -57.50098344  energy(sigma->0) =      -57.50098344


--------------------------------------------------------------------------------------------------------




--------------------------------------- Iteration      1(   7)  ---------------------------------------


    POTLOK:  cpu time      0.3079: real time      0.3096
    SETDIJ:  cpu time      0.1919: real time      0.1927
     EDDAV:  cpu time      0.4109: real time      0.4131
       DOS:  cpu time      0.0001: real time      0.0001
    CHARGE:  cpu time      0.1991: real time      0.1999
    MIXING:  cpu time      0.0127: real time      0.0127
    --------------------------------------------
      LOOP:  cpu time      1.1225: real time      1.1281

 eigenvalue-minimisations  :    64
 total energy-change (2. order) : 0.1180461E+01  (-0.3783659E+00)
 number of electron      22.0000000 magnetization 
 augmentation part        0.4861491 magnetization 

 Broyden mixing:
  rms(total) = 0.20945E+00    rms(broyden)= 0.20939E+00
  rms(prec ) = 0.24058E+00
  weight for this iteration     100.00

 eigenvalues of (default mixing * dielectric matrix)
  average eigenvalue GAMMA=   1.8975
  1.8437  1.9513

 Free energy of the ion-electron system (eV)
  ---------------------------------------------------
  alpha Z        PSCENC =         0.62641250
  Ewald energy   TEWEN  =       867.89112439
  -Hartree energ DENC   =     -1378.62753227
  -exchange      EXHF   =         0.00000000
  -V(xc)+E(xc)   XCENC  =        71.39832689
  PAW double counting   =       282.58134470     -287.99576176
  entropy T*S    EENTRO =        -0.00000000
  eigenvalues    EBANDS =      -275.71183563
  atomic energy  EATOM  =       663.51739852
  Solvation  Ediel_sol  =         0.00000000
  ---------------------------------------------------
  free energy    TOTEN  =       -56.32052267 eV

  energy without entropy =      -56.32052267  energy(sigma->0) =      -56.32052267


--------------------------------------------------------------------------------------------------------




--------------------------------------- Iteration      1(   8)  ---------------------------------------


    POTLOK:  cpu time      0.3114: real time      0.3131
    SETDIJ:  cpu time      0.1925: real time      0.1934
     EDDAV:  cpu time      0.4832: real time      0.4859
       DOS:  cpu time      0.0001: real time      0.0001
    CHARGE:  cpu time      0.1965: real time      0.1973
    MIXING:  cpu time      0.0120: real time      0.0121
    --------------------------------------------
      LOOP:  cpu time      1.1958: real time      1.2018

 eigenvalue-minimisations  :    80
 total energy-change (2. order) : 0.1419198E+00  (-0.2715675E-01)
 number of electron      22.0000000 magnetization 
 augmentation part        0.4872390 magnetization 

 Broyden mixing:
  rms(total) = 0.48548E-01    rms(broyden)= 0.48537E-01
  rms(prec ) = 0.78312E-01
  weight for this iteration     100.00

 eigenvalues of (default mixing * dielectric matrix)
  average eigenvalue GAMMA=   1.5822
  2.3441  1.6463  0.7561

 Free energy of the ion-electron system (eV)
  ---------------------------------------------------
  alpha Z        PSCENC =         0.62641250
  Ewald energy   TEWEN  =       867.89112439
  -Hartree energ DENC   =     -1385.42762823
  -exchange      EXHF   =         0.00000000
  -V(xc)+E(xc)   XCENC  =        71.91638522
  PAW double counting   =       287.21879613     -292.49864580
  entropy T*S    EENTRO =        -0.00000000
  eigenvalues    EBANDS =      -269.42244564
  atomic energy  EATOM  =       663.51739852
  Solvation  Ediel_sol  =         0.00000000
  ---------------------------------------------------
  free energy    TOTEN  =       -56.17860290 eV

  energy without entropy =      -56.17860290  energy(sigma->0) =      -56.17860290


--------------------------------------------------------------------------------------------------------




--------------------------------------- Iteration      1(   9)  ---------------------------------------


    POTLOK:  cpu time      0.3128: real time      0.3144
    SETDIJ:  cpu time      0.1941: real time      0.1949
     EDDAV:  cpu time      0.4093: real time      0.4115
       DOS:  cpu time      0.0001: real time      0.0001
    CHARGE:  cpu time      0.1994: real time      0.2002
    MIXING:  cpu time      0.0114: real time      0.0115
    --------------------------------------------
      LOOP:  cpu time      1.1271: real time      1.1326

 eigenvalue-minimisations  :    64
 total energy-change (2. order) : 0.2223050E-01  (-0.5123156E-02)
 number of electron      22.0000000 magnetization 
 augmentation part        0.4853060 magnetization 

 Broyden mixing:
  rms(total) = 0.22775E-01    rms(broyden)= 0.22767E-01
  rms(prec ) = 0.47399E-01
  weight for this iteration     100.00

 eigenvalues of (default mixing * dielectric matrix)
  average eigenvalue GAMMA=   1.4252
  2.3122  1.5840  1.0395  0.7650

 Free energy of the ion-electron system (eV)
  ---------------------------------------------------
  alpha Z        PSCENC =         0.62641250
  Ewald energy   TEWEN  =       867.89112439
  -Hartree energ DENC   =     -1389.32422102
  -exchange      EXHF   =         0.00000000
  -V(xc)+E(xc)   XCENC  =        72.10926942
  PAW double counting   =       290.22266693     -295.50186655
  entropy T*S    EENTRO =        -0.00000000
  eigenvalues    EBANDS =      -265.69715660
  atomic energy  EATOM  =       663.51739852
  Solvation  Ediel_sol  =         0.00000000
  ---------------------------------------------------
  free energy    TOTEN  =       -56.15637241 eV

  energy without entropy =      -56.15637241  energy(sigma->0) =      -56.15637241


--------------------------------------------------------------------------------------------------------




--------------------------------------- Iteration      1(  10)  ---------------------------------------


    POTLOK:  cpu time      0.3138: real time      0.3155
    SETDIJ:  cpu time      0.1928: real time      0.1937
     EDDAV:  cpu time      0.3659: real time      0.3680
       DOS:  cpu time      0.0001: real time      0.0001
    CHARGE:  cpu time      0.1984: real time      0.1992
    MIXING:  cpu time      0.0126: real time      0.0127
    --------------------------------------------
      LOOP:  cpu time      1.0837: real time      1.0893

 eigenvalue-minimisations  :    56
 total energy-change (2. order) : 0.6915150E-02  (-0.2157797E-02)
 number of electron      22.0000000 magnetization 
 augmentation part        0.4831014 magnetization 

 Broyden mixing:
  rms(total) = 0.18191E-01    rms(broyden)= 0.18186E-01
  rms(prec ) = 0.35380E-01
  weight for this iteration     100.00

 eigenvalues of (default mixing * dielectric matrix)
  average eigenvalue GAMMA=   1.5586
  2.3470  2.3470  1.2501  0.9610  0.8878

 Free energy of the ion-electron system (eV)
  ---------------------------------------------------
  alpha Z        PSCENC =         0.62641250
  Ewald energy   TEWEN  =       867.89112439
  -Hartree energ DENC   =     -1392.43559589
  -exchange      EXHF   =         0.00000000
  -V(xc)+E(xc)   XCENC  =        72.20050955
  PAW double counting   =       290.89381221     -296.18460296
  entropy T*S    EENTRO =        -0.00000000
  eigenvalues    EBANDS =      -262.65851559
  atomic energy  EATOM  =       663.51739852
  Solvation  Ediel_sol  =         0.00000000
  ---------------------------------------------------
  free energy    TOTEN  =       -56.14945726 eV

  energy without entropy =      -56.14945726  energy(sigma->0) =      -56.14945726


--------------------------------------------------------------------------------------------------------




--------------------------------------- Iteration      1(  11)  ---------------------------------------


    POTLOK:  cpu time      0.3141: real time      0.3158
    SETDIJ:  cpu time      0.1948: real time      0.1956
     EDDAV:  cpu time      0.4069: real time      0.4092
       DOS:  cpu time      0.0001: real time      0.0001
    CHARGE:  cpu time      0.1961: real time      0.1969
    MIXING:  cpu time      0.0122: real time      0.0122
    --------------------------------------------
      LOOP:  cpu time      1.1241: real time      1.1298

 eigenvalue-minimisations  :    64
 total energy-change (2. order) : 0.7499377E-02  (-0.4477783E-03)
 number of electron      22.0000000 magnetization 
 augmentation part        0.4829272 magnetization 

 Broyden mixing:
  rms(total) = 0.73524E-02    rms(broyden)= 0.73520E-02
  rms(prec ) = 0.18522E-01
  weight for this iteration     100.00

 eigenvalues of (default mixing * dielectric matrix)
  average eigenvalue GAMMA=   1.7321
  3.5388  2.4325  1.5197  0.9097  0.9960  0.9960

 Free energy of the ion-electron system (eV)
  ---------------------------------------------------
  alpha Z        PSCENC =         0.62641250
  Ewald energy   TEWEN  =       867.89112439
  -Hartree energ DENC   =     -1395.83678916
  -exchange      EXHF   =         0.00000000
  -V(xc)+E(xc)   XCENC  =        72.27615292
  PAW double counting   =       288.99059179     -294.26513028
  entropy T*S    EENTRO =        -0.00000000
  eigenvalues    EBANDS =      -259.34171857
  atomic energy  EATOM  =       663.51739852
  Solvation  Ediel_sol  =         0.00000000
  ---------------------------------------------------
  free energy    TOTEN  =       -56.14195788 eV

  energy without entropy =      -56.14195788  energy(sigma->0) =      -56.14195788


--------------------------------------------------------------------------------------------------------




--------------------------------------- Iteration      1(  12)  ---------------------------------------


    POTLOK:  cpu time      0.3125: real time      0.3141
    SETDIJ:  cpu time      0.1915: real time      0.1924
     EDDAV:  cpu time      0.4093: real time      0.4116
       DOS:  cpu time      0.0001: real time      0.0001
    CHARGE:  cpu time      0.1965: real time      0.1973
    MIXING:  cpu time      0.0127: real time      0.0128
    --------------------------------------------
      LOOP:  cpu time      1.1227: real time      1.1283

 eigenvalue-minimisations  :    64
 total energy-change (2. order) : 0.1919446E-02  (-0.3696033E-03)
 number of electron      22.0000000 magnetization 
 augmentation part        0.4824851 magnetization 

 Broyden mixing:
  rms(total) = 0.55668E-02    rms(broyden)= 0.55664E-02
  rms(prec ) = 0.11514E-01
  weight for this iteration     100.00

 eigenvalues of (default mixing * dielectric matrix)
  average eigenvalue GAMMA=   1.9899
  4.7163  2.4659  2.4659  1.4698  1.0074  0.9021  0.9021

 Free energy of the ion-electron system (eV)
  ---------------------------------------------------
  alpha Z        PSCENC =         0.62641250
  Ewald energy   TEWEN  =       867.89112439
  -Hartree energ DENC   =     -1398.33935286
  -exchange      EXHF   =         0.00000000
  -V(xc)+E(xc)   XCENC  =        72.33045204
  PAW double counting   =       288.64166127     -293.91653631
  entropy T*S    EENTRO =        -0.00000000
  eigenvalues    EBANDS =      -256.89119799
  atomic energy  EATOM  =       663.51739852
  Solvation  Ediel_sol  =         0.00000000
  ---------------------------------------------------
  free energy    TOTEN  =       -56.14003843 eV

  energy without entropy =      -56.14003843  energy(sigma->0) =      -56.14003843


--------------------------------------------------------------------------------------------------------




--------------------------------------- Iteration      1(  13)  ---------------------------------------


    POTLOK:  cpu time      0.3059: real time      0.3075
    SETDIJ:  cpu time      0.1891: real time      0.1899
     EDDAV:  cpu time      0.4063: real time      0.4086
       DOS:  cpu time      0.0001: real time      0.0001
    CHARGE:  cpu time      0.1955: real time      0.1963
    MIXING:  cpu time      0.0129: real time      0.0129
    --------------------------------------------
      LOOP:  cpu time      1.1098: real time      1.1154

 eigenvalue-minimisations  :    64
 total energy-change (2. order) :-0.1267571E-01  (-0.2662154E-03)
 number of electron      22.0000000 magnetization 
 augmentation part        0.4824243 magnetization 

 Broyden mixing:
  rms(total) = 0.30111E-02    rms(broyden)= 0.30110E-02
  rms(prec ) = 0.55731E-02
  weight for this iteration     100.00

 eigenvalues of (default mixing * dielectric matrix)
  average eigenvalue GAMMA=   1.9513
  5.0663  2.7721  2.2790  1.4729  1.2882  0.8928  0.9195  0.9195

 Free energy of the ion-electron system (eV)
  ---------------------------------------------------
  alpha Z        PSCENC =         0.62641250
  Ewald energy   TEWEN  =       867.89112439
  -Hartree energ DENC   =     -1399.20506147
  -exchange      EXHF   =         0.00000000
  -V(xc)+E(xc)   XCENC  =        72.32549629
  PAW double counting   =       288.69252458     -293.96866593
  entropy T*S    EENTRO =        -0.00000000
  eigenvalues    EBANDS =      -256.03194302
  atomic energy  EATOM  =       663.51739852
  Solvation  Ediel_sol  =         0.00000000
  ---------------------------------------------------
  free energy    TOTEN  =       -56.15271414 eV

  energy without entropy =      -56.15271414  energy(sigma->0) =      -56.15271414


--------------------------------------------------------------------------------------------------------




--------------------------------------- Iteration      1(  14)  ---------------------------------------


    POTLOK:  cpu time      0.3114: real time      0.3130
    SETDIJ:  cpu time      0.1886: real time      0.1894
     EDDAV:  cpu time      0.4088: real time      0.4111
       DOS:  cpu time      0.0001: real time      0.0001
    CHARGE:  cpu time      0.1969: real time      0.1977
    MIXING:  cpu time      0.0130: real time      0.0130
    --------------------------------------------
      LOOP:  cpu time      1.1188: real time      1.1244

 eigenvalue-minimisations  :    64
 total energy-change (2. order) :-0.3473095E-02  (-0.4310965E-04)
 number of electron      22.0000000 magnetization 
 augmentation part        0.4823691 magnetization 

 Broyden mixing:
  rms(total) = 0.19228E-02    rms(broyden)= 0.19226E-02
  rms(prec ) = 0.38148E-02
  weight for this iteration     100.00

 eigenvalues of (default mixing * dielectric matrix)
  average eigenvalue GAMMA=   2.1454
  6.2227  3.3125  2.2733  2.2733  1.3816  1.1957  0.8987  0.8987  0.8524

 Free energy of the ion-electron system (eV)
  ---------------------------------------------------
  alpha Z        PSCENC =         0.62641250
  Ewald energy   TEWEN  =       867.89112439
  -Hartree energ DENC   =     -1399.26238560
  -exchange      EXHF   =         0.00000000
  -V(xc)+E(xc)   XCENC  =        72.31589986
  PAW double counting   =       288.59222100     -293.86765835
  entropy T*S    EENTRO =        -0.00000000
  eigenvalues    EBANDS =      -255.96919957
  atomic energy  EATOM  =       663.51739852
  Solvation  Ediel_sol  =         0.00000000
  ---------------------------------------------------
  free energy    TOTEN  =       -56.15618724 eV

  energy without entropy =      -56.15618724  energy(sigma->0) =      -56.15618724


--------------------------------------------------------------------------------------------------------




--------------------------------------- Iteration      1(  15)  ---------------------------------------


    POTLOK:  cpu time      0.3027: real time      0.3043
    SETDIJ:  cpu time      0.1884: real time      0.1892
     EDDAV:  cpu time      0.4084: real time      0.4107
       DOS:  cpu time      0.0002: real time      0.0001
    CHARGE:  cpu time      0.1967: real time      0.1975
    MIXING:  cpu time      0.0133: real time      0.0133
    --------------------------------------------
      LOOP:  cpu time      1.1096: real time      1.1152

 eigenvalue-minimisations  :    64
 total energy-change (2. order) :-0.4617462E-02  (-0.7722066E-04)
 number of electron      22.0000000 magnetization 
 augmentation part        0.4823990 magnetization 

 Broyden mixing:
  rms(total) = 0.13019E-02    rms(broyden)= 0.13018E-02
  rms(prec ) = 0.20705E-02
  weight for this iteration     100.00

 eigenvalues of (default mixing * dielectric matrix)
  average eigenvalue GAMMA=   2.1552
  6.6524  3.9691  2.4136  2.1424  1.4884  1.2140  0.9077  0.9077  0.8757  0.9811

 Free energy of the ion-electron system (eV)
  ---------------------------------------------------
  alpha Z        PSCENC =         0.62641250
  Ewald energy   TEWEN  =       867.89112439
  -Hartree energ DENC   =     -1399.25334850
  -exchange      EXHF   =         0.00000000
  -V(xc)+E(xc)   XCENC  =        72.30295499
  PAW double counting   =       288.54676410     -293.82064744
  entropy T*S    EENTRO =        -0.00000000
  eigenvalues    EBANDS =      -255.97146328
  atomic energy  EATOM  =       663.51739852
  Solvation  Ediel_sol  =         0.00000000
  ---------------------------------------------------
  free energy    TOTEN  =       -56.16080470 eV

  energy without entropy =      -56.16080470  energy(sigma->0) =      -56.16080470


--------------------------------------------------------------------------------------------------------




--------------------------------------- Iteration      1(  16)  ---------------------------------------


    POTLOK:  cpu time      0.3021: real time      0.3037
    SETDIJ:  cpu time      0.1890: real time      0.1898
     EDDAV:  cpu time      0.4116: real time      0.4139
       DOS:  cpu time      0.0001: real time      0.0001
    CHARGE:  cpu time      0.1959: real time      0.1968
    MIXING:  cpu time      0.0148: real time      0.0148
    --------------------------------------------
      LOOP:  cpu time      1.1135: real time      1.1192

 eigenvalue-minimisations  :    64
 total energy-change (2. order) :-0.7900647E-03  (-0.1028337E-04)
 number of electron      22.0000000 magnetization 
 augmentation part        0.4822824 magnetization 

 Broyden mixing:
  rms(total) = 0.64326E-03    rms(broyden)= 0.64311E-03
  rms(prec ) = 0.11801E-02
  weight for this iteration     100.00

 eigenvalues of (default mixing * dielectric matrix)
  average eigenvalue GAMMA=   2.2115
  7.2965  4.3558  2.4030  2.4030  1.7525  1.3044  1.3044  0.9129  0.9129  0.8821
  0.7987

 Free energy of the ion-electron system (eV)
  ---------------------------------------------------
  alpha Z        PSCENC =         0.62641250
  Ewald energy   TEWEN  =       867.89112439
  -Hartree energ DENC   =     -1399.39313398
  -exchange      EXHF   =         0.00000000
  -V(xc)+E(xc)   XCENC  =        72.30716292
  PAW double counting   =       288.65713335     -293.93173014
  entropy T*S    EENTRO =        -0.00000000
  eigenvalues    EBANDS =      -255.83596233
  atomic energy  EATOM  =       663.51739852
  Solvation  Ediel_sol  =         0.00000000
  ---------------------------------------------------
  free energy    TOTEN  =       -56.16159476 eV

  energy without entropy =      -56.16159476  energy(sigma->0) =      -56.16159476


--------------------------------------------------------------------------------------------------------




--------------------------------------- Iteration      1(  17)  ---------------------------------------


    POTLOK:  cpu time      0.2989: real time      0.3005
    SETDIJ:  cpu time      0.1883: real time      0.1891
     EDDAV:  cpu time      0.3689: real time      0.3709
       DOS:  cpu time      0.0001: real time      0.0001
    CHARGE:  cpu time      0.1953: real time      0.1961
    MIXING:  cpu time      0.0131: real time      0.0132
    --------------------------------------------
      LOOP:  cpu time      1.0647: real time      1.0700

 eigenvalue-minimisations  :    56
 total energy-change (2. order) :-0.8064967E-03  (-0.6124364E-05)
 number of electron      22.0000000 magnetization 
 augmentation part        0.4822732 magnetization 

 Broyden mixing:
  rms(total) = 0.37810E-03    rms(broyden)= 0.37803E-03
  rms(prec ) = 0.65286E-03
  weight for this iteration     100.00

 eigenvalues of (default mixing * dielectric matrix)
  average eigenvalue GAMMA=   2.2434
  7.9262  4.8133  2.7712  2.4114  1.6122  1.4586  1.4586  0.9177  0.9177  0.9011
  0.8664  0.8664

 Free energy of the ion-electron system (eV)
  ---------------------------------------------------
  alpha Z        PSCENC =         0.62641250
  Ewald energy   TEWEN  =       867.89112439
  -Hartree energ DENC   =     -1399.39428637
  -exchange      EXHF   =         0.00000000
  -V(xc)+E(xc)   XCENC  =        72.30550280
  PAW double counting   =       288.62502662     -293.89979196
  entropy T*S    EENTRO =        -0.00000000
  eigenvalues    EBANDS =      -255.83378776
  atomic energy  EATOM  =       663.51739852
  Solvation  Ediel_sol  =         0.00000000
  ---------------------------------------------------
  free energy    TOTEN  =       -56.16240126 eV

  energy without entropy =      -56.16240126  energy(sigma->0) =      -56.16240126


--------------------------------------------------------------------------------------------------------




--------------------------------------- Iteration      1(  18)  ---------------------------------------


    POTLOK:  cpu time      0.2973: real time      0.2989
    SETDIJ:  cpu time      0.1889: real time      0.1897
     EDDAV:  cpu time      0.4062: real time      0.4085
       DOS:  cpu time      0.0001: real time      0.0001
    CHARGE:  cpu time      0.1949: real time      0.1958
    MIXING:  cpu time      0.0154: real time      0.0155
    --------------------------------------------
      LOOP:  cpu time      1.1030: real time      1.1085

 eigenvalue-minimisations  :    64
 total energy-change (2. order) :-0.2336962E-03  (-0.1465270E-05)
 number of electron      22.0000000 magnetization 
 augmentation part        0.4822693 magnetization 

 Broyden mixing:
  rms(total) = 0.24891E-03    rms(broyden)= 0.24886E-03
  rms(prec ) = 0.42801E-03
  weight for this iteration     100.00

 eigenvalues of (default mixing * dielectric matrix)
  average eigenvalue GAMMA=   2.2932
  8.3412  5.1276  3.0092  2.3470  2.3470  1.4800  1.2622  1.2130  1.2130  0.9051
  0.9051  0.8310  0.8310

 Free energy of the ion-electron system (eV)
  ---------------------------------------------------
  alpha Z        PSCENC =         0.62641250
  Ewald energy   TEWEN  =       867.89112439
  -Hartree energ DENC   =     -1399.39703498
  -exchange      EXHF   =         0.00000000
  -V(xc)+E(xc)   XCENC  =        72.30544671
  PAW double counting   =       288.61917153     -293.89378615
  entropy T*S    EENTRO =        -0.00000000
  eigenvalues    EBANDS =      -255.83136748
  atomic energy  EATOM  =       663.51739852
  Solvation  Ediel_sol  =         0.00000000
  ---------------------------------------------------
  free energy    TOTEN  =       -56.16263496 eV

  energy without entropy =      -56.16263496  energy(sigma->0) =      -56.16263496


--------------------------------------------------------------------------------------------------------




--------------------------------------- Iteration      1(  19)  ---------------------------------------


    POTLOK:  cpu time      0.2968: real time      0.2984
    SETDIJ:  cpu time      0.1889: real time      0.1897
     EDDAV:  cpu time      0.4124: real time      0.4149
       DOS:  cpu time      0.0001: real time      0.0001
    CHARGE:  cpu time      0.1939: real time      0.1947
    MIXING:  cpu time      0.0145: real time      0.0145
    --------------------------------------------
      LOOP:  cpu time      1.1066: real time      1.1123

 eigenvalue-minimisations  :    64
 total energy-change (2. order) :-0.1719934E-03  (-0.8059183E-06)
 number of electron      22.0000000 magnetization 
 augmentation part        0.4822745 magnetization 

 Broyden mixing:
  rms(total) = 0.14965E-03    rms(broyden)= 0.14955E-03
  rms(prec ) = 0.23927E-03
  weight for this iteration     100.00

 eigenvalues of (default mixing * dielectric matrix)
  average eigenvalue GAMMA=   2.2693
  8.5810  5.2847  3.3168  2.3537  2.3537  1.4590  1.4591  1.4591  0.9147  0.9147
  0.9751  0.9751  0.9018  0.8211

 Free energy of the ion-electron system (eV)
  ---------------------------------------------------
  alpha Z        PSCENC =         0.62641250
  Ewald energy   TEWEN  =       867.89112439
  -Hartree energ DENC   =     -1399.39925311
  -exchange      EXHF   =         0.00000000
  -V(xc)+E(xc)   XCENC  =        72.30538695
  PAW double counting   =       288.61651404     -293.89114773
  entropy T*S    EENTRO =        -0.00000000
  eigenvalues    EBANDS =      -255.82924253
  atomic energy  EATOM  =       663.51739852
  Solvation  Ediel_sol  =         0.00000000
  ---------------------------------------------------
  free energy    TOTEN  =       -56.16280695 eV

  energy without entropy =      -56.16280695  energy(sigma->0) =      -56.16280695


--------------------------------------------------------------------------------------------------------




--------------------------------------- Iteration      1(  20)  ---------------------------------------


    POTLOK:  cpu time      0.2986: real time      0.3002
    SETDIJ:  cpu time      0.1875: real time      0.1883
     EDDAV:  cpu time      0.3695: real time      0.3715
       DOS:  cpu time      0.0002: real time      0.0002
    CHARGE:  cpu time      0.1969: real time      0.1977
    MIXING:  cpu time      0.0175: real time      0.0175
    --------------------------------------------
      LOOP:  cpu time      1.0701: real time      1.0754

 eigenvalue-minimisations  :    56
 total energy-change (2. order) :-0.3958025E-04  (-0.9727429E-07)
 number of electron      22.0000000 magnetization 
 augmentation part        0.4822739 magnetization 

 Broyden mixing:
  rms(total) = 0.80599E-04    rms(broyden)= 0.80492E-04
  rms(prec ) = 0.14190E-03
  weight for this iteration     100.00

 eigenvalues of (default mixing * dielectric matrix)
  average eigenvalue GAMMA=   2.3340
  8.8266  5.7081  3.8509  2.6987  2.4281  1.6724  1.6724  1.4046  1.1169  1.1169
  1.0190  0.9076  0.9076  0.8460  0.8335

 Free energy of the ion-electron system (eV)
  ---------------------------------------------------
  alpha Z        PSCENC =         0.62641250
  Ewald energy   TEWEN  =       867.89112439
  -Hartree energ DENC   =     -1399.40218664
  -exchange      EXHF   =         0.00000000
  -V(xc)+E(xc)   XCENC  =        72.30525301
  PAW double counting   =       288.61358918     -293.88821062
  entropy T*S    EENTRO =        -0.00000000
  eigenvalues    EBANDS =      -255.82622687
  atomic energy  EATOM  =       663.51739852
  Solvation  Ediel_sol  =         0.00000000
  ---------------------------------------------------
  free energy    TOTEN  =       -56.16284653 eV

  energy without entropy =      -56.16284653  energy(sigma->0) =      -56.16284653


--------------------------------------------------------------------------------------------------------




--------------------------------------- Iteration      1(  21)  ---------------------------------------


    POTLOK:  cpu time      0.3055: real time      0.3072
    SETDIJ:  cpu time      0.1880: real time      0.1888
     EDDAV:  cpu time      0.3665: real time      0.3685
       DOS:  cpu time      0.0001: real time      0.0001
    CHARGE:  cpu time      0.1943: real time      0.1952
    MIXING:  cpu time      0.0160: real time      0.0161
    --------------------------------------------
      LOOP:  cpu time      1.0705: real time      1.0759

 eigenvalue-minimisations  :    56
 total energy-change (2. order) :-0.3112149E-04  (-0.5970935E-07)
 number of electron      22.0000000 magnetization 
 augmentation part        0.4822738 magnetization 

 Broyden mixing:
  rms(total) = 0.40483E-04    rms(broyden)= 0.40273E-04
  rms(prec ) = 0.70288E-04
  weight for this iteration     100.00

 eigenvalues of (default mixing * dielectric matrix)
  average eigenvalue GAMMA=   2.3126
  8.8962  5.8707  4.0601  2.7641  2.3020  2.0833  1.4266  1.4266  1.4555  1.1007
  1.1007  1.0247  0.9077  0.9077  0.8379  0.8379

 Free energy of the ion-electron system (eV)
  ---------------------------------------------------
  alpha Z        PSCENC =         0.62641250
  Ewald energy   TEWEN  =       867.89112439
  -Hartree energ DENC   =     -1399.40300026
  -exchange      EXHF   =         0.00000000
  -V(xc)+E(xc)   XCENC  =        72.30508573
  PAW double counting   =       288.61591125     -293.89055274
  entropy T*S    EENTRO =        -0.00000000
  eigenvalues    EBANDS =      -255.82525705
  atomic energy  EATOM  =       663.51739852
  Solvation  Ediel_sol  =         0.00000000
  ---------------------------------------------------
  free energy    TOTEN  =       -56.16287765 eV

  energy without entropy =      -56.16287765  energy(sigma->0) =      -56.16287765


--------------------------------------------------------------------------------------------------------




--------------------------------------- Iteration      1(  22)  ---------------------------------------


    POTLOK:  cpu time      0.3084: real time      0.3100
    SETDIJ:  cpu time      0.1871: real time      0.1880
     EDDAV:  cpu time      0.3749: real time      0.3768
       DOS:  cpu time      0.0001: real time      0.0001
    CHARGE:  cpu time      0.1952: real time      0.1959
    MIXING:  cpu time      0.0165: real time      0.0166
    --------------------------------------------
      LOOP:  cpu time      1.0822: real time      1.0875

 eigenvalue-minimisations  :    56
 total energy-change (2. order) :-0.9703874E-05  (-0.9656558E-08)
 number of electron      22.0000000 magnetization 
 augmentation part        0.4822741 magnetization 

 Broyden mixing:
  rms(total) = 0.28154E-04    rms(broyden)= 0.27856E-04
  rms(prec ) = 0.44860E-04
  weight for this iteration     100.00

 eigenvalues of (default mixing * dielectric matrix)
  average eigenvalue GAMMA=   2.3940
  8.9916  6.3777  4.6229  3.2696  2.5457  2.3292  1.7123  1.6326  1.1954  1.1954
  1.2450  1.1034  0.9080  0.9080  0.9747  0.8586  0.8276

 Free energy of the ion-electron system (eV)
  ---------------------------------------------------
  alpha Z        PSCENC =         0.62641250
  Ewald energy   TEWEN  =       867.89112439
  -Hartree energ DENC   =     -1399.40392528
  -exchange      EXHF   =         0.00000000
  -V(xc)+E(xc)   XCENC  =        72.30504311
  PAW double counting   =       288.61462152     -293.88924767
  entropy T*S    EENTRO =        -0.00000000
  eigenvalues    EBANDS =      -255.82431446
  atomic energy  EATOM  =       663.51739852
  Solvation  Ediel_sol  =         0.00000000
  ---------------------------------------------------
  free energy    TOTEN  =       -56.16288736 eV

  energy without entropy =      -56.16288736  energy(sigma->0) =      -56.16288736


--------------------------------------------------------------------------------------------------------




--------------------------------------- Iteration      1(  23)  ---------------------------------------


    POTLOK:  cpu time      0.3088: real time      0.3105
    SETDIJ:  cpu time      0.1875: real time      0.1883
     EDDAV:  cpu time      0.3274: real time      0.3292
       DOS:  cpu time      0.0001: real time      0.0001
    CHARGE:  cpu time      0.1947: real time      0.1955
    MIXING:  cpu time      0.0168: real time      0.0169
    --------------------------------------------
      LOOP:  cpu time      1.0355: real time      1.0405

 eigenvalue-minimisations  :    48
 total energy-change (2. order) :-0.5578891E-05  (-0.1116134E-07)
 number of electron      22.0000000 magnetization 
 augmentation part        0.4822737 magnetization 

 Broyden mixing:
  rms(total) = 0.11301E-04    rms(broyden)= 0.10541E-04
  rms(prec ) = 0.19003E-04
  weight for this iteration     100.00

 eigenvalues of (default mixing * dielectric matrix)
  average eigenvalue GAMMA=   2.3868
  9.0895  6.5558  4.9186  3.3499  2.6112  2.3984  1.8851  1.5226  1.2640  1.2640
  1.3324  1.1477  1.1477  0.9078  0.9078  0.9769  0.8559  0.8263

 Free energy of the ion-electron system (eV)
  ---------------------------------------------------
  alpha Z        PSCENC =         0.62641250
  Ewald energy   TEWEN  =       867.89112439
  -Hartree energ DENC   =     -1399.40517886
  -exchange      EXHF   =         0.00000000
  -V(xc)+E(xc)   XCENC  =        72.30508018
  PAW double counting   =       288.61628309     -293.89090874
  entropy T*S    EENTRO =        -0.00000000
  eigenvalues    EBANDS =      -255.82310401
  atomic energy  EATOM  =       663.51739852
  Solvation  Ediel_sol  =         0.00000000
  ---------------------------------------------------
  free energy    TOTEN  =       -56.16289293 eV

  energy without entropy =      -56.16289293  energy(sigma->0) =      -56.16289293


--------------------------------------------------------------------------------------------------------




--------------------------------------- Iteration      1(  24)  ---------------------------------------


    POTLOK:  cpu time      0.3091: real time      0.3108
    SETDIJ:  cpu time      0.1885: real time      0.1893
     EDDAV:  cpu time      0.3663: real time      0.3683
       DOS:  cpu time      0.0001: real time      0.0001
    CHARGE:  cpu time      0.1941: real time      0.1949
    MIXING:  cpu time      0.0174: real time      0.0175
    --------------------------------------------
      LOOP:  cpu time      1.0757: real time      1.0809

 eigenvalue-minimisations  :    56
 total energy-change (2. order) :-0.1440381E-05  (-0.2850832E-08)
 number of electron      22.0000000 magnetization 
 augmentation part        0.4822734 magnetization 

 Broyden mixing:
  rms(total) = 0.82250E-05    rms(broyden)= 0.71477E-05
  rms(prec ) = 0.12717E-04
  weight for this iteration     100.00
  WARNING: grid for Broyden might be to small

 eigenvalues of (default mixing * dielectric matrix)
  average eigenvalue GAMMA=   2.4043
  9.0852  6.8414  5.1293  3.6228  2.7790  2.3262  2.3262  1.7750  1.5847  1.2082
  1.2082  1.2180  0.9086  0.9086  1.1239  0.9794  0.9794  0.8486  0.8288

 Free energy of the ion-electron system (eV)
  ---------------------------------------------------
  alpha Z        PSCENC =         0.62641250
  Ewald energy   TEWEN  =       867.89112439
  -Hartree energ DENC   =     -1399.40600347
  -exchange      EXHF   =         0.00000000
  -V(xc)+E(xc)   XCENC  =        72.30510785
  PAW double counting   =       288.61584324     -293.89047151
  entropy T*S    EENTRO =        -0.00000000
  eigenvalues    EBANDS =      -255.82230590
  atomic energy  EATOM  =       663.51739852
  Solvation  Ediel_sol  =         0.00000000
  ---------------------------------------------------
  free energy    TOTEN  =       -56.16289437 eV

  energy without entropy =      -56.16289437  energy(sigma->0) =      -56.16289437


--------------------------------------------------------------------------------------------------------




--------------------------------------- Iteration      1(  25)  ---------------------------------------


    POTLOK:  cpu time      0.3140: real time      0.3157
    SETDIJ:  cpu time      0.1876: real time      0.1885
     EDDAV:  cpu time      0.2859: real time      0.2874
       DOS:  cpu time      0.0001: real time      0.0001
    --------------------------------------------
      LOOP:  cpu time      0.7875: real time      0.7916

 eigenvalue-minimisations  :    40
 total energy-change (2. order) :-0.8663876E-06  (-0.1811312E-08)
 number of electron      22.0000000 magnetization 
 augmentation part        0.4822734 magnetization 

 Free energy of the ion-electron system (eV)
  ---------------------------------------------------
  alpha Z        PSCENC =         0.62641250
  Ewald energy   TEWEN  =       867.89112439
  -Hartree energ DENC   =     -1399.40617021
  -exchange      EXHF   =         0.00000000
  -V(xc)+E(xc)   XCENC  =        72.30511977
  PAW double counting   =       288.61595626     -293.89058483
  entropy T*S    EENTRO =        -0.00000000
  eigenvalues    EBANDS =      -255.82215165
  atomic energy  EATOM  =       663.51739852
  Solvation  Ediel_sol  =         0.00000000
  ---------------------------------------------------
  free energy    TOTEN  =       -56.16289524 eV

  energy without entropy =      -56.16289524  energy(sigma->0) =      -56.16289524


--------------------------------------------------------------------------------------------------------




 average (electrostatic) potential at core
  the test charge radii are     0.6991  0.5201
  (the norm of the test charge is              1.0000)
       1 -58.7006       2 -58.9620       3 -58.8710       4 -58.7222       5 -42.2791
       6 -42.3081       7 -41.9710       8 -41.7653       9 -41.9577      10 -41.9011
 
 
 
 E-fermi :  -5.0548     XC(G=0):  -0.4460     alpha+bet : -0.1681

 Fermi energy:        -5.0548335206

 k-point     1 :       0.0000    0.0000    0.0000
  band No.  band energies     occupation 
      1     -19.7178      2.00000
      2     -17.3945      2.00000
      3     -15.5016      2.00000
      4     -12.6949      2.00000
      5     -11.9317      2.00000
      6     -10.3319      2.00000
      7     -10.0702      2.00000
      8      -8.9942      2.00000
      9      -8.2698      2.00000
     10      -7.7036      2.00000
     11      -5.3009      2.00000
     12      -2.6892      0.00000
     13      -0.4222      0.00000
     14       0.0257      0.00000
     15       0.2274      0.00000
     16       0.3582      0.00000
     17       0.4813      0.00000
     18       0.5438      0.00000
     19       0.5650      0.00000
     20       0.6680      0.00000
     21       0.8514      0.00000
     22       0.9401      0.00000
     23       1.0212      0.00000
     24       1.0574      0.00000


--------------------------------------------------------------------------------------------------------


 soft charge-density along one line, spin component           1
         0         1         2         3         4         5         6         7         8         9
 total charge-density along one line
 
 pseudopotential strength for first ion, spin component:           1
 10.256   0.020   0.000   0.000  -0.001  -0.001   0.001  -0.001
  0.020  -0.001   0.000  -0.000   0.000  -0.000   0.000  -0.000
  0.000   0.000  -4.367  -0.000  -0.008  -0.012   0.000  -0.002
  0.000  -0.000  -0.000  -4.378  -0.003   0.000  -0.016  -0.001
 -0.001   0.000  -0.008  -0.003  -4.368  -0.002  -0.001  -0.013
 -0.001  -0.000  -0.012   0.000  -0.002  -0.773   0.000  -0.000
  0.001   0.000   0.000  -0.016  -0.001   0.000  -0.773  -0.000
 -0.001  -0.000  -0.002  -0.001  -0.013  -0.000  -0.000  -0.773
 total augmentation occupancy for first ion, spin component:           1
  1.479  -1.006   0.017  -0.015   0.026  -0.001   0.000   0.001
 -1.006   0.750   0.017  -0.012   0.011   0.015  -0.009   0.011
  0.017   0.017   1.000  -0.002   0.150   0.128  -0.006   0.061
 -0.015  -0.012  -0.002   1.200   0.027  -0.006   0.198   0.009
  0.026   0.011   0.150   0.027   1.033   0.061   0.009   0.138
 -0.001   0.015   0.128  -0.006   0.061   0.020  -0.002   0.014
  0.000  -0.009  -0.006   0.198   0.009  -0.002   0.034   0.001
  0.001   0.011   0.061   0.009   0.138   0.014   0.001   0.021


------------------------ aborting loop because EDIFF is reached ----------------------------------------


    CHARGE:  cpu time      0.1949: real time      0.1957
    FORLOC:  cpu time      0.0333: real time      0.0334
    FORNL :  cpu time      1.0526: real time      1.0576
    STRESS:  cpu time      3.3232: real time      3.3391
    FORHAR:  cpu time      0.1100: real time      0.1105
    MIXING:  cpu time      0.0121: real time      0.0121
    OFIELD:  cpu time      0.0001: real time      0.0001

  FORCE on cell =-STRESS in cart. coord.  units (eV):
  Direction    XX          YY          ZZ          XY          YZ          ZX
  --------------------------------------------------------------------------------------
  Alpha Z     0.62641     0.62641     0.62641
  Ewald       9.55139   178.06073   680.27870   274.33969    16.24392   -79.39338
  Hartree   305.38831   381.53197   712.48575   135.81063     5.64086   -62.74862
  E(xc)     -76.67281   -75.99438   -75.10550     0.97397     0.04873    -0.05901
  Local    -527.27225  -760.12768 -1576.83217  -395.06373   -20.96426   143.69782
  n-local   -28.67846   -29.68312   -30.34362    -1.46865     0.00800    -0.12712
  augment    -0.51368    -0.56551    -0.64256    -0.05991    -0.00642    -0.01686
  Kinetic   314.82098   300.90933   288.68590   -17.91178    -0.88138    -0.85357
  Fock        0.00000     0.00000     0.00000     0.00000     0.00000     0.00000
  -------------------------------------------------------------------------------------
  Total      -2.75010    -5.24224    -0.84708    -3.37978     0.08946     0.49926
  in kB      -1.30552    -2.48859    -0.40213    -1.60444     0.04247     0.23701
  external pressure =       -1.40 kB  Pullay stress =        0.00 kB


 VOLUME and BASIS-vectors are now :
 -----------------------------------------------------------------------------
  energy-cutoff  :      520.00
  volume of cell :     3375.00
      direct lattice vectors                 reciprocal lattice vectors
    15.000000000  0.000000000  0.000000000     0.066666667  0.000000000  0.000000000
     0.000000000 15.000000000  0.000000000     0.000000000  0.066666667  0.000000000
     0.000000000  0.000000000 15.000000000     0.000000000  0.000000000  0.066666667

  length of vectors
    15.000000000 15.000000000 15.000000000     0.066666667  0.066666667  0.066666667


 FORCES acting on ions
    electron-ion (+dipol)            ewald-force                    non-local-force                 convergence-correction
 -----------------------------------------------------------------------------------------------
   -.685E+02 -.675E+02 0.882E+02   0.671E+02 0.655E+02 -.873E+02   -.191E+01 -.168E+01 0.125E+01   -.215E-04 -.157E-04 0.282E-04
   0.434E+02 0.581E+02 0.828E+02   -.416E+02 -.561E+02 -.861E+02   0.123E+01 0.121E+01 -.662E+00   0.733E-05 0.874E-05 -.261E-04
   0.583E+02 0.673E+02 -.473E+02   -.578E+02 -.670E+02 0.506E+02   -.186E+00 -.180E+00 0.480E+00   0.215E-04 0.157E-04 -.308E-04
   -.154E+02 -.679E+02 -.123E+03   0.148E+02 0.679E+02 0.123E+03   0.148E+00 -.176E+01 -.164E+01   0.280E-04 0.323E-04 -.299E-05
   -.604E+01 -.118E+02 0.660E+02   0.617E+01 0.123E+02 -.728E+02   0.215E+00 -.469E+00 0.611E+01   -.136E-05 -.709E-06 0.124E-04
   -.485E+02 -.383E+02 -.169E+02   0.527E+02 0.420E+02 0.208E+02   -.387E+01 -.296E+01 -.368E+01   -.627E-05 -.320E-05 0.137E-05
   0.299E+02 0.454E+02 0.443E+02   -.323E+02 -.485E+02 -.474E+02   0.225E+01 0.361E+01 0.348E+01   0.875E-05 0.131E-04 0.114E-04
   0.338E+02 0.577E+02 -.229E+02   -.361E+02 -.617E+02 0.245E+02   0.250E+01 0.451E+01 -.161E+01   0.405E-06 -.345E-05 -.154E-05
   -.272E+02 -.562E+02 -.745E+01   0.294E+02 0.603E+02 0.659E+01   -.254E+01 -.463E+01 0.130E+01   -.316E-05 -.961E-05 -.393E-06
   0.198E+01 0.135E+02 -.641E+02   -.238E+01 -.148E+02 0.685E+02   0.375E+00 0.201E+01 -.502E+01   0.442E-05 0.577E-05 -.135E-04
 -----------------------------------------------------------------------------------------------
   0.178E+01 0.348E+00 -.766E-02   -.338E-13 -.142E-13 0.000E+00   -.178E+01 -.344E+00 0.214E-03   0.381E-04 0.429E-04 -.220E-04
 
 
 POSITION                                       TOTAL-FORCE (eV/Angst)
 -----------------------------------------------------------------------------------
      8.11400      7.99300      6.05900        -3.308869     -3.604982      2.179965
      7.19600      7.03200      6.69400         2.981296      3.177381     -3.947404
      6.98500      6.96500      8.06800         0.270849      0.177050      3.775324
      7.39800      7.83700      9.10100        -0.400895     -1.731200     -1.791799
      8.09400      8.07800      4.99500         0.339268      0.083417     -0.689522
      8.78500      8.53100      6.69300         0.387110      0.684428      0.170686
      6.71900      6.30300      6.00700        -0.097978      0.503227      0.437925
      6.46900      6.03500      8.39700         0.215212      0.477833      0.039767
      7.92100      8.78300      8.84700        -0.360961     -0.467767      0.441303
      7.31900      7.44300     10.13900        -0.025031      0.700612     -0.616247
 -----------------------------------------------------------------------------------
    total drift:                                0.000720      0.004394     -0.007469


--------------------------------------------------------------------------------------------------------



  FREE ENERGIE OF THE ION-ELECTRON SYSTEM (eV)
  ---------------------------------------------------
  free  energy   TOTEN  =       -56.16289524 eV

  energy  without entropy=      -56.16289524  energy(sigma->0) =      -56.16289524
 


--------------------------------------------------------------------------------------------------------


    POTLOK:  cpu time      0.5017: real time      0.5042


--------------------------------------------------------------------------------------------------------


 stress matrix after NEB project (eV)
     -2.75010     -3.37978      0.49926
     -3.37978     -5.24224      0.08946
      0.49926      0.08946     -0.84708
  FORCES: max atom, RMS     5.879275    2.956004
  FORCE total and by dimension    9.347705    3.947404
  Stress total and by dimension    7.689079    5.242236
     LOOP+:  cpu time     29.9769: real time     30.1271
    4ORBIT:  cpu time      0.0000: real time      0.0000

 total amount of memory used by VASP MPI-rank0   224782. kBytes
=======================================================================

   base      :      30000. kBytes
   nonlr-proj:       1258. kBytes
   fftplans  :     123538. kBytes
   grid      :      67787. kBytes
   one-center:         15. kBytes
   wavefun   :       2184. kBytes
 
  
  
 General timing and accounting informations for this job:
 ========================================================
  
                  Total CPU time used (sec):       36.579
                            User time (sec):       33.416
                          System time (sec):        3.163
                         Elapsed time (sec):       37.894
  
                   Maximum memory used (kb):      559328.
                   Average memory used (kb):          N/A
  
                          Minor page faults:       159298
                          Major page faults:         5438
                 Voluntary context switches:         3061
