 vasp.6.4.2 20Jul23 (build Apr 10 2024 13:39:58) complex                        
  
 executed on             LinuxIFC date 2024.05.17  20:45:24
 running   16 mpi-ranks, on    1 nodes
 distrk:  each k-point on   16 cores,    1 groups
 distr:  one band on NCORE=   2 cores,    8 groups


--------------------------------------------------------------------------------------------------------


 INCAR:
   ISTART = 0
   ISPIN = 1
   LREAL = Auto
   ENCUT = 520
   NPAR = 8
   LPLANE = .TRUE.
   LSCALU = .FALSE.
   NSIM = 4
   LWAVE = .FALSE.
   LCHARG = .FALSE.
   ADDGRID = .TRUE.
   LASPH = .TRUE.
   PREC = Accurate
   ISMEAR = 0
   SIGMA = 0.05
   EDIFF = 1E-06
   NSW = 0
   TEBEG = 300
   TEEND = 700     	
   ISYM = 0
   NWRITE = 2

 POTCAR:   PAW_PBE C 08Apr2002                    
 POTCAR:   PAW_PBE H 15Jun2001                    
 POTCAR:   PAW_PBE C 08Apr2002                    
   VRHFIN =C: s2p2                                                                                  
   LEXCH  = PE                                                                                      
   EATOM  =   147.1560 eV,   10.8157 Ry                                                             
                                                                                                    
   TITEL  = PAW_PBE C 08Apr2002                                                                     
   LULTRA =        F    use ultrasoft PP ?                                                          
   IUNSCR =        0    unscreen: 0-lin 1-nonlin 2-no                                               
   RPACOR =     .000    partial core radius                                                         
   POMASS =   12.011; ZVAL   =    4.000    mass and valenz                                          
   RCORE  =    1.500    outmost cutoff radius                                                       
   RWIGS  =    1.630; RWIGS  =     .863    wigner-seitz radius (au A)                               
   ENMAX  =  400.000; ENMIN  =  300.000 eV                                                          
   ICORE  =        2    local potential                                                             
   LCOR   =        T    correct aug charges                                                         
   LPAW   =        T    paw PP                                                                      
   EAUG   =  644.873                                                                                
   DEXC   =     .000                                                                                
   RMAX   =    2.266    core radius for proj-oper                                                   
   RAUG   =    1.300    factor for augmentation sphere                                              
   RDEP   =    1.501    radius for radial grids                                                     
   RDEPT  =    1.300    core radius for aug-charge                                                  
   QCUT   =   -5.516; QGAM   =   11.032    optimization parameters                                  
                                                                                                    
   Description                                                                                      
     l     E      TYP  RCUT    TYP  RCUT                                                            
     0   .000     23  1.200                                                                         
     0   .000     23  1.200                                                                         
     1   .000     23  1.500                                                                         
     1  2.500     23  1.500                                                                         
     2   .000      7  1.500                                                                         
  local pseudopotential read in
  atomic valenz-charges read in
  non local Contribution for L=           0  read in
    real space projection operators read in
  non local Contribution for L=           0  read in
    real space projection operators read in
  non local Contribution for L=           1  read in
    real space projection operators read in
  non local Contribution for L=           1  read in
    real space projection operators read in
    PAW grid and wavefunctions read in
 
   number of l-projection  operators is LMAX  =           4
   number of lm-projection operators is LMMAX =           8
 
 POTCAR:   PAW_PBE H 15Jun2001                    
   VRHFIN =H: ultrasoft test                                                                        
   LEXCH  = PE                                                                                      
   EATOM  =    12.4884 eV,     .9179 Ry                                                             
                                                                                                    
   TITEL  = PAW_PBE H 15Jun2001                                                                     
   LULTRA =        F    use ultrasoft PP ?                                                          
   IUNSCR =        0    unscreen: 0-lin 1-nonlin 2-no                                               
   RPACOR =     .000    partial core radius                                                         
   POMASS =    1.000; ZVAL   =    1.000    mass and valenz                                          
   RCORE  =    1.100    outmost cutoff radius                                                       
   RWIGS  =     .700; RWIGS  =     .370    wigner-seitz radius (au A)                               
   ENMAX  =  250.000; ENMIN  =  200.000 eV                                                          
   RCLOC  =     .701    cutoff for local pot                                                        
   LCOR   =        T    correct aug charges                                                         
   LPAW   =        T    paw PP                                                                      
   EAUG   =  400.000                                                                                
   RMAX   =    2.174    core radius for proj-oper                                                   
   RAUG   =    1.200    factor for augmentation sphere                                              
   RDEP   =    1.112    radius for radial grids                                                     
   QCUT   =   -5.749; QGAM   =   11.498    optimization parameters                                  
                                                                                                    
   Description                                                                                      
     l     E      TYP  RCUT    TYP  RCUT                                                            
     0   .000     23  1.100                                                                         
     0   .500     23  1.100                                                                         
     1  -.300     23  1.100                                                                         
  local pseudopotential read in
  atomic valenz-charges read in
  non local Contribution for L=           0  read in
    real space projection operators read in
  non local Contribution for L=           0  read in
    real space projection operators read in
  non local Contribution for L=           1  read in
    real space projection operators read in
    PAW grid and wavefunctions read in
 
   number of l-projection  operators is LMAX  =           3
   number of lm-projection operators is LMMAX =           5
 
 Optimization of the real space projectors (new method)

 maximal supplied QI-value         = 25.13
 optimisation between [QCUT,QGAM] = [ 11.56, 23.12] = [ 37.43,149.72] Ry 
 Optimized for a Real-space Cutoff    1.04 Angstroem

   l    n(q)    QCUT    max X(q) W(low)/X(q) W(high)/X(q)  e(spline) 
   0      7    11.561     5.582    0.47E-04    0.94E-04    0.17E-07
   0      7    11.561    69.432    0.20E-03    0.59E-03    0.21E-06
   1      7    11.561     2.780    0.24E-04    0.70E-04    0.44E-07
   1      7    11.561     4.549    0.18E-03    0.25E-03    0.12E-06
 Optimization of the real space projectors (new method)

 maximal supplied QI-value         = 34.20
 optimisation between [QCUT,QGAM] = [ 11.63, 23.26] = [ 37.87,151.49] Ry 
 Optimized for a Real-space Cutoff    1.21 Angstroem

   l    n(q)    QCUT    max X(q) W(low)/X(q) W(high)/X(q)  e(spline) 
   0      8    11.629     4.436    0.19E-04    0.32E-04    0.47E-07
   0      8    11.629    16.131    0.16E-03    0.33E-03    0.21E-06
   1      8    11.629     4.654    0.18E-03    0.16E-03    0.26E-06
 PAW_PBE C 08Apr2002                    :
 energy of atom  1       EATOM= -147.1560
 kinetic energy error for atom=    0.0071 (will be added to EATOM!!)
 PAW_PBE H 15Jun2001                    :
 energy of atom  2       EATOM=  -12.4884
 kinetic energy error for atom=    0.0014 (will be added to EATOM!!)
 
 
 POSCAR:  C  H
  positions in cartesian coordinates
  No initial velocities read in
 exchange correlation table for  LEXCH =        8
   RHO(1)=    0.500       N(1)  =     2000
   RHO(2)=  100.500       N(2)  =     4000

 VTST: version 4.1, (05/19/21)

 CHAIN: initializing optimizer
 
 OPT: Using VASP Dynamics algorithm
 CHAIN: Read ICHAIN            0
 
 POSCAR:  C  H
  positions in cartesian coordinates
  No initial velocities read in
 


--------------------------------------------------------------------------------------------------------


 ion  position               nearest neighbor table
   1  0.540  0.530  0.402-   5 1.09   6 1.16   2 1.47
   2  0.489  0.461  0.448-   7 1.12   3 1.43   1 1.47
   3  0.468  0.456  0.541-   8 1.12   4 1.43   2 1.43
   4  0.494  0.520  0.606-  10 1.06   9 1.12   3 1.43
   5  0.548  0.539  0.330-   1 1.09
   6  0.566  0.591  0.443-   1 1.16
   7  0.457  0.412  0.401-   2 1.12
   8  0.428  0.396  0.564-   3 1.12
   9  0.527  0.586  0.590-   4 1.12
  10  0.483  0.509  0.674-   4 1.06
 

IMPORTANT INFORMATION: All symmetrisations will be switched off!
NOSYMM: (Re-)initialisation of all symmetry stuff for point group C_1.


----------------------------------------------------------------------------------------

                                     Primitive cell                                     

  volume of cell :    3375.0000

  direct lattice vectors                    reciprocal lattice vectors
    15.000000000  0.000000000  0.000000000     0.066666667  0.000000000  0.000000000
     0.000000000 15.000000000  0.000000000     0.000000000  0.066666667  0.000000000
     0.000000000  0.000000000 15.000000000     0.000000000  0.000000000  0.066666667

  length of vectors
    15.000000000 15.000000000 15.000000000     0.066666667  0.066666667  0.066666667

  position of ions in fractional coordinates (direct lattice)
     0.539933332  0.530399990  0.401666673
     0.488799985  0.461266677  0.448266665
     0.468266678  0.455533346  0.541133308
     0.494399993  0.520333322  0.605733363
     0.547599983  0.538533338  0.330133343
     0.565666644  0.590733337  0.442866675
     0.457133325  0.412200006  0.401466656
     0.428466670  0.396333345  0.564266650
     0.526733335  0.586066691  0.590066655
     0.482999992  0.508533319  0.674333318

  ion indices of the primitive-cell ions
   primitive index   ion index
                 1           1
                 2           2
                 3           3
                 4           4
                 5           5
                 6           6
                 7           7
                 8           8
                 9           9
                10          10

----------------------------------------------------------------------------------------

 
 
 KPOINTS: K-Spacing Value to Generate K-Mesh: 1.00

Automatic generation of k-mesh.
 Grid dimensions read from file:
 generate k-points for:    1    1    1

 Generating k-lattice:

  Cartesian coordinates                     Fractional coordinates (reciprocal lattice)
     0.066666667  0.000000000  0.000000000     1.000000000  0.000000000  0.000000000
     0.000000000  0.066666667  0.000000000     0.000000000  1.000000000  0.000000000
     0.000000000  0.000000000  0.066666667     0.000000000  0.000000000  1.000000000

  Length of vectors
     0.066666667  0.066666667  0.066666667

  Shift w.r.t. Gamma in fractional coordinates (k-lattice)
     0.000000000  0.000000000  0.000000000

 
 Subroutine IBZKPT returns following result:
 ===========================================
 
 Found      1 irreducible k-points:
 
 Following reciprocal coordinates:
            Coordinates               Weight
  0.000000  0.000000  0.000000      1.000000
 
 Following cartesian coordinates:
            Coordinates               Weight
  0.000000  0.000000  0.000000      1.000000
 


--------------------------------------------------------------------------------------------------------




 Dimension of arrays:
   k-points           NKPTS =      1   k-points in BZ     NKDIM =      1   number of bands    NBANDS=     24
   number of dos      NEDOS =    301   number of ions     NIONS =     10
   non local maximal  LDIM  =      4   non local SUM 2l+1 LMDIM =      8
   total plane-waves  NPLWV = ******
   max r-space proj   IRMAX =   3145   max aug-charges    IRDMAX=  39494
   dimension x,y,z NGX =   112 NGY =  112 NGZ =  112
   dimension x,y,z NGXF=   224 NGYF=  224 NGZF=  224
   support grid    NGXF=   448 NGYF=  448 NGZF=  448
   ions per type =               4   6
   NGX,Y,Z   is equivalent  to a cutoff of  12.41, 12.41, 12.41 a.u.
   NGXF,Y,Z  is equivalent  to a cutoff of  24.83, 24.83, 24.83 a.u.

 SYSTEM =  unknown system                          
 POSCAR =   C  H                                   

 Startparameter for this run:
   NWRITE =      2    write-flag & timer
   PREC   = accura    normal or accurate (medium, high low for compatibility)
   ISTART =      0    job   : 0-new  1-cont  2-samecut
   ICHARG =      2    charge: 1-file 2-atom 10-const
   ISPIN  =      1    spin polarized calculation?
   LNONCOLLINEAR =      F non collinear calculations
   LSORBIT =      F    spin-orbit coupling
   INIWAV =      1    electr: 0-lowe 1-rand  2-diag
   LASPH  =      T    aspherical Exc in radial PAW
 Electronic Relaxation 1
   ENCUT  =  520.0 eV  38.22 Ry    6.18 a.u.  27.89 27.89 27.89*2*pi/ulx,y,z
   ENINI  =  520.0     initial cutoff
   ENAUG  =  644.9 eV  augmentation charge cutoff
   NELM   =     60;   NELMIN=  2; NELMDL= -5     # of ELM steps 
   EDIFF  = 0.1E-05   stopping-criterion for ELM
   LREAL  =      T    real-space projection
   NLSPLINE    = F    spline interpolate recip. space projectors
   LCOMPAT=      F    compatible to vasp.4.4
   GGA_COMPAT  = T    GGA compatible to vasp.4.4-vasp.4.6
   LMAXPAW     = -100 max onsite density
   LMAXMIX     =    2 max onsite mixed and CHGCAR
   VOSKOWN=      0    Vosko Wilk Nusair interpolation
   ROPT   =   -0.00025  -0.00025
 Ionic relaxation
   EDIFFG = 0.1E-04   stopping-criterion for IOM
   NSW    =      0    number of steps for IOM
   NBLOCK =      1;   KBLOCK =      1    inner block; outer block 
   IBRION =     -1    ionic relax: 0-MD 1-quasi-New 2-CG
   NFREE  =      0    steps in history (QN), initial steepest desc. (CG)
   ISIF   =      2    stress and relaxation
   IWAVPR =     10    prediction:  0-non 1-charg 2-wave 3-comb
   ISYM   =      0    0-nonsym 1-usesym 2-fastsym
   LCORR  =      T    Harris-Foulkes like correction to forces

   POTIM  = 0.5000    time-step for ionic-motion
   TEIN   =    0.0    initial temperature
   TEBEG  =  300.0;   TEEND  = 700.0 temperature during run
   SMASS  =  -3.00    Nose mass-parameter (am)
   estimated Nose-frequenzy (Omega)   =  0.10E-29 period in steps = 0.13E+47 mass=  -0.514E-26a.u.
   SCALEE = 1.0000    scale energy and forces
   NPACO  =    256;   APACO  = 10.0  distance and # of slots for P.C.
   PSTRESS=    0.0 pullay stress

  Mass of Ions in am
   POMASS =  12.01  1.00
  Ionic Valenz
   ZVAL   =   4.00  1.00
  Atomic Wigner-Seitz radii
   RWIGS  =  -1.00 -1.00
  virtual crystal weights 
   VCA    =   1.00  1.00
   NELECT =      22.0000    total number of electrons
   NUPDOWN=      -1.0000    fix difference up-down

 DOS related values:
   EMIN   =  10.00;   EMAX   =-10.00  energy-range for DOS
   EFERMI =   0.00;   METHOD = LEGACY      
   ISMEAR =     0;   SIGMA  =   0.05  broadening in eV -4-tet -1-fermi 0-gaus

 Electronic relaxation 2 (details)
   IALGO  =     38    algorithm
   LDIAG  =      T    sub-space diagonalisation (order eigenvalues)
   LSUBROT=      F    optimize rotation matrix (better conditioning)
   TURBO    =      0    0=normal 1=particle mesh
   IRESTART =      0    0=no restart 2=restart with 2 vectors
   NREBOOT  =      0    no. of reboots
   NMIN     =      0    reboot dimension
   EREF     =   0.00    reference energy to select bands
   IMIX   =      4    mixing-type and parameters
     AMIX     =   0.40;   BMIX     =  1.00
     AMIX_MAG =   1.60;   BMIX_MAG =  1.00
     AMIN     =   0.10
     WC   =   100.;   INIMIX=   1;  MIXPRE=   1;  MAXMIX= -45

 Intra band minimization:
   WEIMIN = 0.0000     energy-eigenvalue tresh-hold
   EBREAK =  0.10E-07  absolut break condition
   DEPER  =   0.30     relativ break condition  

   TIME   =   0.40     timestep for ELM

  volume/ion in A,a.u.               =     337.50      2277.56
  Fermi-wavevector in a.u.,A,eV,Ry     =   0.305814  0.577905  1.272449  0.093522
  Thomas-Fermi vector in A             =   1.179187
 
 Write flags
   LWAVE        =      F    write WAVECAR
   LDOWNSAMPLE  =      F    k-point downsampling of WAVECAR
   LCHARG       =      F    write CHGCAR
   LVTOT        =      F    write LOCPOT, total local potential
   LVHAR        =      F    write LOCPOT, Hartree potential only
   LELF         =      F    write electronic localiz. function (ELF)
   LORBIT       =      0    0 simple, 1 ext, 2 COOP (PROOUT), +10 PAW based schemes


 Dipole corrections
   LMONO  =      F    monopole corrections only (constant potential shift)
   LDIPOL =      F    correct potential (dipole corrections)
   IDIPOL =      0    1-x, 2-y, 3-z, 4-all directions 
   EPSILON=  1.0000000 bulk dielectric constant

 Exchange correlation treatment:
   GGA     =    --    GGA type
   LEXCH   =     8    internal setting for exchange type
   LIBXC   =     F    Libxc                    
   VOSKOWN =     0    Vosko Wilk Nusair interpolation
   LHFCALC =     F    Hartree Fock is set to
   LHFONE  =     F    Hartree Fock one center treatment
   AEXX    =    0.0000 exact exchange contribution

 Linear response parameters
   LEPSILON=     F    determine dielectric tensor
   LRPA    =     F    only Hartree local field effects (RPA)
   LNABLA  =     F    use nabla operator in PAW spheres
   LVEL    =     F    velocity operator in full k-point grid
   CSHIFT  =0.1000    complex shift for real part using Kramers Kronig
   OMEGAMAX=  -1.0    maximum frequency
   DEG_THRESHOLD= 0.2000000E-02 threshold for treating states as degnerate
   RTIME   =   -0.100 relaxation time in fs
  (WPLASMAI=    0.000 imaginary part of plasma frequency in eV, 0.658/RTIME)
   DFIELD  = 0.0000000 0.0000000 0.0000000 field for delta impulse in time
 
  Optional k-point grid parameters
   LKPOINTS_OPT  =     F    use optional k-point grid
   KPOINTS_OPT_MODE=     1    mode for optional k-point grid
 
 Orbital magnetization related:
   ORBITALMAG=     F  switch on orbital magnetization
   LCHIMAG   =     F  perturbation theory with respect to B field
   DQ        =  0.001000  dq finite difference perturbation B field
   LLRAUG    =     F  two centre corrections for induced B field
   LBONE     =     F  B-component reconstruction in AE one-centre
   LVGVCALC  =     T  calculate vGv susceptibility
   LVGVAPPL  =     F  apply vGv susceptibility instead of pGv for G=0

 Random number generation:
   RANDOM_GENERATOR = DEFAULT
   PCG_SEED         = not used


--------------------------------------------------------------------------------------------------------


 Static calculation
 charge density and potential will be updated during run
 non-spin polarized calculation
 Variant of blocked Davidson
 Davidson routine will perform the subspace rotation
 perform sub-space diagonalisation
    after iterative eigenvector-optimisation
 modified Broyden-mixing scheme, WC =      100.0
 initial mixing is a Kerker type mixing with AMIX =  0.4000 and BMIX =      1.0000
 Hartree-type preconditioning will be used
 using additional bands           13
 real space projection scheme for non local part
 calculate Harris-corrections to forces 
   (improved forces if not selfconsistent)
 use gradient corrections 
 use of overlap-Matrix (Vanderbilt PP)
 Gauss-broadening in eV      SIGMA  =   0.05


--------------------------------------------------------------------------------------------------------


  energy-cutoff  :      520.00
  volume of cell :     3375.00
      direct lattice vectors                 reciprocal lattice vectors
    15.000000000  0.000000000  0.000000000     0.066666667  0.000000000  0.000000000
     0.000000000 15.000000000  0.000000000     0.000000000  0.066666667  0.000000000
     0.000000000  0.000000000 15.000000000     0.000000000  0.000000000  0.066666667

  length of vectors
    15.000000000 15.000000000 15.000000000     0.066666667  0.066666667  0.066666667


 
 k-points in units of 2pi/SCALE and weight: K-Spacing Value to Generate K-Mesh: 1.00
   0.00000000  0.00000000  0.00000000       1.000
 
 k-points in reciprocal lattice and weights: K-Spacing Value to Generate K-Mesh: 1.00
   0.00000000  0.00000000  0.00000000       1.000
 
 position of ions in fractional coordinates (direct lattice) 
   0.53993333  0.53039999  0.40166667
   0.48879999  0.46126668  0.44826667
   0.46826668  0.45553335  0.54113331
   0.49439999  0.52033332  0.60573336
   0.54759998  0.53853334  0.33013334
   0.56566664  0.59073334  0.44286668
   0.45713332  0.41220001  0.40146666
   0.42846667  0.39633334  0.56426665
   0.52673333  0.58606669  0.59006666
   0.48299999  0.50853332  0.67433332
 
 position of ions in cartesian coordinates  (Angst):
   8.09899998  7.95599985  6.02500010
   7.33199978  6.91900015  6.72399998
   7.02400017  6.83300018  8.11699963
   7.41599989  7.80499983  9.08600044
   8.21399975  8.07800007  4.95200014
   8.48499966  8.86100006  6.64300013
   6.85699987  6.18300009  6.02199984
   6.42700005  5.94500017  8.46399975
   7.90100002  8.79100037  8.85099983
   7.24499989  7.62799978 10.11499977
 


--------------------------------------------------------------------------------------------------------


 k-point   1 :   0.0000 0.0000 0.0000  plane waves:   90879

 maximum and minimum number of plane-waves per node :     45467    45412

 maximum number of plane-waves:     90879
 maximum index in each direction: 
   IXMAX=   27   IYMAX=   27   IZMAX=   27
   IXMIN=  -27   IYMIN=  -27   IZMIN=  -27


 real space projection operators:
  total allocation   :       1185.42 KBytes
  max/ min on nodes  :        592.79        592.63


 parallel 3D FFT for wavefunctions:
    minimum data exchange during FFTs selected (reduces bandwidth)
 parallel 3D FFT for charge:
    minimum data exchange during FFTs selected (reduces bandwidth)


 total amount of memory used by VASP MPI-rank0   224780. kBytes
=======================================================================

   base      :      30000. kBytes
   nonlr-proj:       1256. kBytes
   fftplans  :     123538. kBytes
   grid      :      67787. kBytes
   one-center:         15. kBytes
   wavefun   :       2184. kBytes
 
     INWAV:  cpu time      0.0000: real time      0.0000
 Broyden mixing: mesh for mixing (old mesh)
   NGX = 55   NGY = 55   NGZ = 55
  (NGX  =224   NGY  =224   NGZ  =224)
  gives a total of 166375 points

 initial charge density was supplied:
 charge density of overlapping atoms calculated
 number of electron      22.0000000 magnetization 
 keeping initial charge density in first step


--------------------------------------------------------------------------------------------------------


 Maximum index for non-local projection operator         1510
 Maximum index for augmentation-charges         2465 (set IRDMAX)


--------------------------------------------------------------------------------------------------------


 First call to EWALD:  gamma=   0.118
 Maximum number of real-space cells 3x 3x 3
 Maximum number of reciprocal cells 3x 3x 3

    FEWALD:  cpu time      0.0011: real time      0.0011


--------------------------------------- Ionic step        1  -------------------------------------------




--------------------------------------- Iteration      1(   1)  ---------------------------------------


    POTLOK:  cpu time      0.3347: real time      0.3367
    SETDIJ:  cpu time      0.1957: real time      0.1965
     EDDAV:  cpu time      0.4229: real time      0.4253
       DOS:  cpu time      0.0002: real time      0.0002
    --------------------------------------------
      LOOP:  cpu time      0.9536: real time      0.9587

 eigenvalue-minimisations  :    64
 total energy-change (2. order) : 0.9622712E+02  (-0.5265999E+03)
 number of electron      22.0000000 magnetization 
 augmentation part       22.0000000 magnetization 

 Free energy of the ion-electron system (eV)
  ---------------------------------------------------
  alpha Z        PSCENC =         0.62641250
  Ewald energy   TEWEN  =       847.89701908
  -Hartree energ DENC   =     -1282.45670768
  -exchange      EXHF   =         0.00000000
  -V(xc)+E(xc)   XCENC  =        66.62381785
  PAW double counting   =       156.01372664     -160.66969168
  entropy T*S    EENTRO =        -0.00024982
  eigenvalues    EBANDS =      -195.32460268
  atomic energy  EATOM  =       663.51739852
  Solvation  Ediel_sol  =         0.00000000
  ---------------------------------------------------
  free energy    TOTEN  =        96.22712274 eV

  energy without entropy =       96.22737255  energy(sigma->0) =       96.22724765


--------------------------------------------------------------------------------------------------------




--------------------------------------- Iteration      1(   2)  ---------------------------------------


     EDDAV:  cpu time      0.4484: real time      0.4510
       DOS:  cpu time      0.0001: real time      0.0001
    --------------------------------------------
      LOOP:  cpu time      0.4486: real time      0.4511

 eigenvalue-minimisations  :    72
 total energy-change (2. order) :-0.1158628E+03  (-0.1132092E+03)
 number of electron      22.0000000 magnetization 
 augmentation part       22.0000000 magnetization 

 Free energy of the ion-electron system (eV)
  ---------------------------------------------------
  alpha Z        PSCENC =         0.62641250
  Ewald energy   TEWEN  =       847.89701908
  -Hartree energ DENC   =     -1282.45670768
  -exchange      EXHF   =         0.00000000
  -V(xc)+E(xc)   XCENC  =        66.62381785
  PAW double counting   =       156.01372664     -160.66969168
  entropy T*S    EENTRO =        -0.00000000
  eigenvalues    EBANDS =      -311.18767672
  atomic energy  EATOM  =       663.51739852
  Solvation  Ediel_sol  =         0.00000000
  ---------------------------------------------------
  free energy    TOTEN  =       -19.63570148 eV

  energy without entropy =      -19.63570148  energy(sigma->0) =      -19.63570148


--------------------------------------------------------------------------------------------------------




--------------------------------------- Iteration      1(   3)  ---------------------------------------


     EDDAV:  cpu time      0.4473: real time      0.4499
       DOS:  cpu time      0.0001: real time      0.0001
    --------------------------------------------
      LOOP:  cpu time      0.4474: real time      0.4500

 eigenvalue-minimisations  :    72
 total energy-change (2. order) :-0.3999611E+02  (-0.3990075E+02)
 number of electron      22.0000000 magnetization 
 augmentation part       22.0000000 magnetization 

 Free energy of the ion-electron system (eV)
  ---------------------------------------------------
  alpha Z        PSCENC =         0.62641250
  Ewald energy   TEWEN  =       847.89701908
  -Hartree energ DENC   =     -1282.45670768
  -exchange      EXHF   =         0.00000000
  -V(xc)+E(xc)   XCENC  =        66.62381785
  PAW double counting   =       156.01372664     -160.66969168
  entropy T*S    EENTRO =        -0.00000000
  eigenvalues    EBANDS =      -351.18378174
  atomic energy  EATOM  =       663.51739852
  Solvation  Ediel_sol  =         0.00000000
  ---------------------------------------------------
  free energy    TOTEN  =       -59.63180651 eV

  energy without entropy =      -59.63180651  energy(sigma->0) =      -59.63180651


--------------------------------------------------------------------------------------------------------




--------------------------------------- Iteration      1(   4)  ---------------------------------------


     EDDAV:  cpu time      0.4055: real time      0.4078
       DOS:  cpu time      0.0001: real time      0.0001
    --------------------------------------------
      LOOP:  cpu time      0.4056: real time      0.4079

 eigenvalue-minimisations  :    64
 total energy-change (2. order) :-0.1948318E+01  (-0.1945639E+01)
 number of electron      22.0000000 magnetization 
 augmentation part       22.0000000 magnetization 

 Free energy of the ion-electron system (eV)
  ---------------------------------------------------
  alpha Z        PSCENC =         0.62641250
  Ewald energy   TEWEN  =       847.89701908
  -Hartree energ DENC   =     -1282.45670768
  -exchange      EXHF   =         0.00000000
  -V(xc)+E(xc)   XCENC  =        66.62381785
  PAW double counting   =       156.01372664     -160.66969168
  entropy T*S    EENTRO =        -0.00000000
  eigenvalues    EBANDS =      -353.13209929
  atomic energy  EATOM  =       663.51739852
  Solvation  Ediel_sol  =         0.00000000
  ---------------------------------------------------
  free energy    TOTEN  =       -61.58012405 eV

  energy without entropy =      -61.58012405  energy(sigma->0) =      -61.58012405


--------------------------------------------------------------------------------------------------------




--------------------------------------- Iteration      1(   5)  ---------------------------------------


     EDDAV:  cpu time      0.4099: real time      0.4122
       DOS:  cpu time      0.0001: real time      0.0001
    CHARGE:  cpu time      0.1985: real time      0.1993
    MIXING:  cpu time      0.0143: real time      0.0144
    --------------------------------------------
      LOOP:  cpu time      0.6228: real time      0.6260

 eigenvalue-minimisations  :    64
 total energy-change (2. order) :-0.3428419E-01  (-0.3424956E-01)
 number of electron      22.0000000 magnetization 
 augmentation part        0.5475943 magnetization 

 Broyden mixing:
  rms(total) = 0.10954E+01    rms(broyden)= 0.10952E+01
  rms(prec ) = 0.13107E+01
  weight for this iteration     100.00

 Free energy of the ion-electron system (eV)
  ---------------------------------------------------
  alpha Z        PSCENC =         0.62641250
  Ewald energy   TEWEN  =       847.89701908
  -Hartree energ DENC   =     -1282.45670768
  -exchange      EXHF   =         0.00000000
  -V(xc)+E(xc)   XCENC  =        66.62381785
  PAW double counting   =       156.01372664     -160.66969168
  entropy T*S    EENTRO =        -0.00000000
  eigenvalues    EBANDS =      -353.16638348
  atomic energy  EATOM  =       663.51739852
  Solvation  Ediel_sol  =         0.00000000
  ---------------------------------------------------
  free energy    TOTEN  =       -61.61440824 eV

  energy without entropy =      -61.61440824  energy(sigma->0) =      -61.61440824


--------------------------------------------------------------------------------------------------------




--------------------------------------- Iteration      1(   6)  ---------------------------------------


    POTLOK:  cpu time      0.3063: real time      0.3080
    SETDIJ:  cpu time      0.1942: real time      0.1950
     EDDAV:  cpu time      0.4053: real time      0.4076
       DOS:  cpu time      0.0001: real time      0.0001
    CHARGE:  cpu time      0.1976: real time      0.1983
    MIXING:  cpu time      0.0117: real time      0.0117
    --------------------------------------------
      LOOP:  cpu time      1.1151: real time      1.1207

 eigenvalue-minimisations  :    64
 total energy-change (2. order) : 0.4251518E+01  (-0.5893224E+00)
 number of electron      22.0000000 magnetization 
 augmentation part        0.5048829 magnetization 

 Broyden mixing:
  rms(total) = 0.54211E+00    rms(broyden)= 0.54209E+00
  rms(prec ) = 0.64212E+00
  weight for this iteration     100.00

 eigenvalues of (default mixing * dielectric matrix)
  average eigenvalue GAMMA=   1.6602
  1.6602

 Free energy of the ion-electron system (eV)
  ---------------------------------------------------
  alpha Z        PSCENC =         0.62641250
  Ewald energy   TEWEN  =       847.89701908
  -Hartree energ DENC   =     -1324.39675309
  -exchange      EXHF   =         0.00000000
  -V(xc)+E(xc)   XCENC  =        68.85729121
  PAW double counting   =       219.91190811     -225.04790154
  entropy T*S    EENTRO =        -0.00000000
  eigenvalues    EBANDS =      -308.72826550
  atomic energy  EATOM  =       663.51739852
  Solvation  Ediel_sol  =         0.00000000
  ---------------------------------------------------
  free energy    TOTEN  =       -57.36289071 eV

  energy without entropy =      -57.36289071  energy(sigma->0) =      -57.36289071


--------------------------------------------------------------------------------------------------------




--------------------------------------- Iteration      1(   7)  ---------------------------------------


    POTLOK:  cpu time      0.3063: real time      0.3079
    SETDIJ:  cpu time      0.1933: real time      0.1941
     EDDAV:  cpu time      0.4159: real time      0.4181
       DOS:  cpu time      0.0001: real time      0.0001
    CHARGE:  cpu time      0.2007: real time      0.2015
    MIXING:  cpu time      0.0119: real time      0.0119
    --------------------------------------------
      LOOP:  cpu time      1.1282: real time      1.1338

 eigenvalue-minimisations  :    64
 total energy-change (2. order) : 0.1093456E+01  (-0.3704309E+00)
 number of electron      22.0000000 magnetization 
 augmentation part        0.4755431 magnetization 

 Broyden mixing:
  rms(total) = 0.21249E+00    rms(broyden)= 0.21244E+00
  rms(prec ) = 0.24460E+00
  weight for this iteration     100.00

 eigenvalues of (default mixing * dielectric matrix)
  average eigenvalue GAMMA=   1.6921
  1.6921  1.6921

 Free energy of the ion-electron system (eV)
  ---------------------------------------------------
  alpha Z        PSCENC =         0.62641250
  Ewald energy   TEWEN  =       847.89701908
  -Hartree energ DENC   =     -1359.94610000
  -exchange      EXHF   =         0.00000000
  -V(xc)+E(xc)   XCENC  =        70.94183444
  PAW double counting   =       274.46087511     -279.82804970
  entropy T*S    EENTRO =        -0.00000000
  eigenvalues    EBANDS =      -273.93882451
  atomic energy  EATOM  =       663.51739852
  Solvation  Ediel_sol  =         0.00000000
  ---------------------------------------------------
  free energy    TOTEN  =       -56.26943456 eV

  energy without entropy =      -56.26943456  energy(sigma->0) =      -56.26943456


--------------------------------------------------------------------------------------------------------




--------------------------------------- Iteration      1(   8)  ---------------------------------------


    POTLOK:  cpu time      0.3109: real time      0.3126
    SETDIJ:  cpu time      0.1933: real time      0.1941
     EDDAV:  cpu time      0.4072: real time      0.4095
       DOS:  cpu time      0.0001: real time      0.0001
    CHARGE:  cpu time      0.1976: real time      0.1984
    MIXING:  cpu time      0.0121: real time      0.0121
    --------------------------------------------
      LOOP:  cpu time      1.1213: real time      1.1269

 eigenvalue-minimisations  :    64
 total energy-change (2. order) : 0.1287910E+00  (-0.2517114E-01)
 number of electron      22.0000000 magnetization 
 augmentation part        0.4760295 magnetization 

 Broyden mixing:
  rms(total) = 0.80097E-01    rms(broyden)= 0.80085E-01
  rms(prec ) = 0.10645E+00
  weight for this iteration     100.00

 eigenvalues of (default mixing * dielectric matrix)
  average eigenvalue GAMMA=   1.5989
  2.4015  1.6528  0.7423

 Free energy of the ion-electron system (eV)
  ---------------------------------------------------
  alpha Z        PSCENC =         0.62641250
  Ewald energy   TEWEN  =       847.89701908
  -Hartree energ DENC   =     -1365.12902392
  -exchange      EXHF   =         0.00000000
  -V(xc)+E(xc)   XCENC  =        71.33829894
  PAW double counting   =       277.74069472     -283.00993755
  entropy T*S    EENTRO =        -0.00000000
  eigenvalues    EBANDS =      -269.12150583
  atomic energy  EATOM  =       663.51739852
  Solvation  Ediel_sol  =         0.00000000
  ---------------------------------------------------
  free energy    TOTEN  =       -56.14064353 eV

  energy without entropy =      -56.14064353  energy(sigma->0) =      -56.14064353


--------------------------------------------------------------------------------------------------------




--------------------------------------- Iteration      1(   9)  ---------------------------------------


    POTLOK:  cpu time      0.3113: real time      0.3130
    SETDIJ:  cpu time      0.1928: real time      0.1936
     EDDAV:  cpu time      0.4485: real time      0.4510
       DOS:  cpu time      0.0001: real time      0.0001
    CHARGE:  cpu time      0.1987: real time      0.1995
    MIXING:  cpu time      0.0116: real time      0.0116
    --------------------------------------------
      LOOP:  cpu time      1.1631: real time      1.1687

 eigenvalue-minimisations  :    72
 total energy-change (2. order) : 0.4066368E-01  (-0.7631387E-02)
 number of electron      22.0000000 magnetization 
 augmentation part        0.4747612 magnetization 

 Broyden mixing:
  rms(total) = 0.26864E-01    rms(broyden)= 0.26855E-01
  rms(prec ) = 0.50327E-01
  weight for this iteration     100.00

 eigenvalues of (default mixing * dielectric matrix)
  average eigenvalue GAMMA=   1.3868
  2.3178  1.6085  0.8105  0.8105

 Free energy of the ion-electron system (eV)
  ---------------------------------------------------
  alpha Z        PSCENC =         0.62641250
  Ewald energy   TEWEN  =       847.89701908
  -Hartree energ DENC   =     -1370.52286298
  -exchange      EXHF   =         0.00000000
  -V(xc)+E(xc)   XCENC  =        71.65980267
  PAW double counting   =       281.17204615     -286.40200740
  entropy T*S    EENTRO =        -0.00000000
  eigenvalues    EBANDS =      -264.04778839
  atomic energy  EATOM  =       663.51739852
  Solvation  Ediel_sol  =         0.00000000
  ---------------------------------------------------
  free energy    TOTEN  =       -56.09997985 eV

  energy without entropy =      -56.09997985  energy(sigma->0) =      -56.09997985


--------------------------------------------------------------------------------------------------------




--------------------------------------- Iteration      1(  10)  ---------------------------------------


    POTLOK:  cpu time      0.3127: real time      0.3144
    SETDIJ:  cpu time      0.1938: real time      0.1946
     EDDAV:  cpu time      0.4069: real time      0.4092
       DOS:  cpu time      0.0001: real time      0.0001
    CHARGE:  cpu time      0.1970: real time      0.1978
    MIXING:  cpu time      0.0135: real time      0.0135
    --------------------------------------------
      LOOP:  cpu time      1.1239: real time      1.1296

 eigenvalue-minimisations  :    64
 total energy-change (2. order) : 0.5039181E-02  (-0.1309267E-02)
 number of electron      22.0000000 magnetization 
 augmentation part        0.4735369 magnetization 

 Broyden mixing:
  rms(total) = 0.17005E-01    rms(broyden)= 0.17002E-01
  rms(prec ) = 0.37840E-01
  weight for this iteration     100.00

 eigenvalues of (default mixing * dielectric matrix)
  average eigenvalue GAMMA=   1.4826
  2.1862  2.1862  1.3601  0.8404  0.8404

 Free energy of the ion-electron system (eV)
  ---------------------------------------------------
  alpha Z        PSCENC =         0.62641250
  Ewald energy   TEWEN  =       847.89701908
  -Hartree energ DENC   =     -1372.33496345
  -exchange      EXHF   =         0.00000000
  -V(xc)+E(xc)   XCENC  =        71.70484053
  PAW double counting   =       281.58151388     -286.82247451
  entropy T*S    EENTRO =        -0.00000000
  eigenvalues    EBANDS =      -262.26468723
  atomic energy  EATOM  =       663.51739852
  Solvation  Ediel_sol  =         0.00000000
  ---------------------------------------------------
  free energy    TOTEN  =       -56.09494067 eV

  energy without entropy =      -56.09494067  energy(sigma->0) =      -56.09494067


--------------------------------------------------------------------------------------------------------




--------------------------------------- Iteration      1(  11)  ---------------------------------------


    POTLOK:  cpu time      0.3144: real time      0.3161
    SETDIJ:  cpu time      0.1939: real time      0.1947
     EDDAV:  cpu time      0.4094: real time      0.4117
       DOS:  cpu time      0.0002: real time      0.0002
    CHARGE:  cpu time      0.1985: real time      0.1993
    MIXING:  cpu time      0.0161: real time      0.0162
    --------------------------------------------
      LOOP:  cpu time      1.1326: real time      1.1383

 eigenvalue-minimisations  :    64
 total energy-change (2. order) : 0.8649296E-02  (-0.1446851E-02)
 number of electron      22.0000000 magnetization 
 augmentation part        0.4723961 magnetization 

 Broyden mixing:
  rms(total) = 0.10852E-01    rms(broyden)= 0.10850E-01
  rms(prec ) = 0.20934E-01
  weight for this iteration     100.00

 eigenvalues of (default mixing * dielectric matrix)
  average eigenvalue GAMMA=   1.6193
  3.1502  2.4592  1.4133  0.9091  0.8919  0.8919

 Free energy of the ion-electron system (eV)
  ---------------------------------------------------
  alpha Z        PSCENC =         0.62641250
  Ewald energy   TEWEN  =       847.89701908
  -Hartree energ DENC   =     -1377.10242409
  -exchange      EXHF   =         0.00000000
  -V(xc)+E(xc)   XCENC  =        71.81817006
  PAW double counting   =       280.35955947     -285.59748081
  entropy T*S    EENTRO =        -0.00000000
  eigenvalues    EBANDS =      -257.60494611
  atomic energy  EATOM  =       663.51739852
  Solvation  Ediel_sol  =         0.00000000
  ---------------------------------------------------
  free energy    TOTEN  =       -56.08629137 eV

  energy without entropy =      -56.08629137  energy(sigma->0) =      -56.08629137


--------------------------------------------------------------------------------------------------------




--------------------------------------- Iteration      1(  12)  ---------------------------------------


    POTLOK:  cpu time      0.3146: real time      0.3163
    SETDIJ:  cpu time      0.1932: real time      0.1940
     EDDAV:  cpu time      0.3289: real time      0.3307
       DOS:  cpu time      0.0001: real time      0.0001
    CHARGE:  cpu time      0.1944: real time      0.1952
    MIXING:  cpu time      0.0126: real time      0.0127
    --------------------------------------------
      LOOP:  cpu time      1.0438: real time      1.0489

 eigenvalue-minimisations  :    48
 total energy-change (2. order) : 0.3076258E-02  (-0.2045127E-03)
 number of electron      22.0000000 magnetization 
 augmentation part        0.4723169 magnetization 

 Broyden mixing:
  rms(total) = 0.69166E-02    rms(broyden)= 0.69163E-02
  rms(prec ) = 0.13780E-01
  weight for this iteration     100.00

 eigenvalues of (default mixing * dielectric matrix)
  average eigenvalue GAMMA=   1.6617
  3.5035  2.3535  1.5008  1.5008  1.1138  0.8299  0.8299

 Free energy of the ion-electron system (eV)
  ---------------------------------------------------
  alpha Z        PSCENC =         0.62641250
  Ewald energy   TEWEN  =       847.89701908
  -Hartree energ DENC   =     -1378.75936295
  -exchange      EXHF   =         0.00000000
  -V(xc)+E(xc)   XCENC  =        71.85601355
  PAW double counting   =       279.72397471     -284.95578295
  entropy T*S    EENTRO =        -0.00000000
  eigenvalues    EBANDS =      -255.98888757
  atomic energy  EATOM  =       663.51739852
  Solvation  Ediel_sol  =         0.00000000
  ---------------------------------------------------
  free energy    TOTEN  =       -56.08321511 eV

  energy without entropy =      -56.08321511  energy(sigma->0) =      -56.08321511


--------------------------------------------------------------------------------------------------------




--------------------------------------- Iteration      1(  13)  ---------------------------------------


    POTLOK:  cpu time      0.3091: real time      0.3108
    SETDIJ:  cpu time      0.1934: real time      0.1942
     EDDAV:  cpu time      0.4088: real time      0.4111
       DOS:  cpu time      0.0001: real time      0.0001
    CHARGE:  cpu time      0.1965: real time      0.1973
    MIXING:  cpu time      0.0126: real time      0.0126
    --------------------------------------------
      LOOP:  cpu time      1.1206: real time      1.1262

 eigenvalue-minimisations  :    64
 total energy-change (2. order) :-0.6820745E-02  (-0.1495260E-03)
 number of electron      22.0000000 magnetization 
 augmentation part        0.4723493 magnetization 

 Broyden mixing:
  rms(total) = 0.42753E-02    rms(broyden)= 0.42748E-02
  rms(prec ) = 0.86536E-02
  weight for this iteration     100.00

 eigenvalues of (default mixing * dielectric matrix)
  average eigenvalue GAMMA=   1.8475
  4.8480  2.6257  2.1222  1.3659  1.0735  1.0735  0.8355  0.8355

 Free energy of the ion-electron system (eV)
  ---------------------------------------------------
  alpha Z        PSCENC =         0.62641250
  Ewald energy   TEWEN  =       847.89701908
  -Hartree energ DENC   =     -1379.68547645
  -exchange      EXHF   =         0.00000000
  -V(xc)+E(xc)   XCENC  =        71.86648926
  PAW double counting   =       279.62620394     -284.85594122
  entropy T*S    EENTRO =        -0.00000000
  eigenvalues    EBANDS =      -255.08214149
  atomic energy  EATOM  =       663.51739852
  Solvation  Ediel_sol  =         0.00000000
  ---------------------------------------------------
  free energy    TOTEN  =       -56.09003586 eV

  energy without entropy =      -56.09003586  energy(sigma->0) =      -56.09003586


--------------------------------------------------------------------------------------------------------




--------------------------------------- Iteration      1(  14)  ---------------------------------------


    POTLOK:  cpu time      0.3099: real time      0.3115
    SETDIJ:  cpu time      0.1933: real time      0.1941
     EDDAV:  cpu time      0.4097: real time      0.4120
       DOS:  cpu time      0.0001: real time      0.0001
    CHARGE:  cpu time      0.1980: real time      0.1988
    MIXING:  cpu time      0.0128: real time      0.0128
    --------------------------------------------
      LOOP:  cpu time      1.1237: real time      1.1293

 eigenvalue-minimisations  :    64
 total energy-change (2. order) :-0.7105983E-02  (-0.9530733E-04)
 number of electron      22.0000000 magnetization 
 augmentation part        0.4722322 magnetization 

 Broyden mixing:
  rms(total) = 0.23833E-02    rms(broyden)= 0.23832E-02
  rms(prec ) = 0.48469E-02
  weight for this iteration     100.00

 eigenvalues of (default mixing * dielectric matrix)
  average eigenvalue GAMMA=   2.0101
  5.6610  3.0807  2.5071  1.6682  1.2639  1.2639  0.9786  0.8340  0.8340

 Free energy of the ion-electron system (eV)
  ---------------------------------------------------
  alpha Z        PSCENC =         0.62641250
  Ewald energy   TEWEN  =       847.89701908
  -Hartree energ DENC   =     -1380.27448609
  -exchange      EXHF   =         0.00000000
  -V(xc)+E(xc)   XCENC  =        71.85979253
  PAW double counting   =       279.57468621     -284.80669352
  entropy T*S    EENTRO =        -0.00000000
  eigenvalues    EBANDS =      -254.49127107
  atomic energy  EATOM  =       663.51739852
  Solvation  Ediel_sol  =         0.00000000
  ---------------------------------------------------
  free energy    TOTEN  =       -56.09714184 eV

  energy without entropy =      -56.09714184  energy(sigma->0) =      -56.09714184


--------------------------------------------------------------------------------------------------------




--------------------------------------- Iteration      1(  15)  ---------------------------------------


    POTLOK:  cpu time      0.3028: real time      0.3044
    SETDIJ:  cpu time      0.1947: real time      0.1956
     EDDAV:  cpu time      0.4084: real time      0.4107
       DOS:  cpu time      0.0001: real time      0.0001
    CHARGE:  cpu time      0.1977: real time      0.1985
    MIXING:  cpu time      0.0132: real time      0.0132
    --------------------------------------------
      LOOP:  cpu time      1.1168: real time      1.1225

 eigenvalue-minimisations  :    64
 total energy-change (2. order) :-0.6211449E-02  (-0.1082235E-03)
 number of electron      22.0000000 magnetization 
 augmentation part        0.4722184 magnetization 

 Broyden mixing:
  rms(total) = 0.18605E-02    rms(broyden)= 0.18604E-02
  rms(prec ) = 0.27327E-02
  weight for this iteration     100.00

 eigenvalues of (default mixing * dielectric matrix)
  average eigenvalue GAMMA=   2.0776
  6.4117  3.6462  2.2978  2.0717  1.4279  1.1512  1.1512  0.8361  0.8361  0.9458

 Free energy of the ion-electron system (eV)
  ---------------------------------------------------
  alpha Z        PSCENC =         0.62641250
  Ewald energy   TEWEN  =       847.89701908
  -Hartree energ DENC   =     -1380.37323579
  -exchange      EXHF   =         0.00000000
  -V(xc)+E(xc)   XCENC  =        71.84985770
  PAW double counting   =       279.70267667     -284.93370822
  entropy T*S    EENTRO =        -0.00000000
  eigenvalues    EBANDS =      -254.38977375
  atomic energy  EATOM  =       663.51739852
  Solvation  Ediel_sol  =         0.00000000
  ---------------------------------------------------
  free energy    TOTEN  =       -56.10335329 eV

  energy without entropy =      -56.10335329  energy(sigma->0) =      -56.10335329


--------------------------------------------------------------------------------------------------------




--------------------------------------- Iteration      1(  16)  ---------------------------------------


    POTLOK:  cpu time      0.3032: real time      0.3049
    SETDIJ:  cpu time      0.1946: real time      0.1956
     EDDAV:  cpu time      0.4500: real time      0.4525
       DOS:  cpu time      0.0001: real time      0.0001
    CHARGE:  cpu time      0.1966: real time      0.1974
    MIXING:  cpu time      0.0153: real time      0.0153
    --------------------------------------------
      LOOP:  cpu time      1.1598: real time      1.1659

 eigenvalue-minimisations  :    72
 total energy-change (2. order) :-0.1394653E-02  (-0.1853006E-04)
 number of electron      22.0000000 magnetization 
 augmentation part        0.4720971 magnetization 

 Broyden mixing:
  rms(total) = 0.87583E-03    rms(broyden)= 0.87564E-03
  rms(prec ) = 0.15048E-02
  weight for this iteration     100.00

 eigenvalues of (default mixing * dielectric matrix)
  average eigenvalue GAMMA=   2.1826
  7.5004  4.1074  2.3490  2.3490  1.4554  1.4554  1.1079  1.1079  0.8333  0.8333
  0.9090

 Free energy of the ion-electron system (eV)
  ---------------------------------------------------
  alpha Z        PSCENC =         0.62641250
  Ewald energy   TEWEN  =       847.89701908
  -Hartree energ DENC   =     -1380.47778375
  -exchange      EXHF   =         0.00000000
  -V(xc)+E(xc)   XCENC  =        71.84790579
  PAW double counting   =       279.67918658     -284.91096241
  entropy T*S    EENTRO =        -0.00000000
  eigenvalues    EBANDS =      -254.28392424
  atomic energy  EATOM  =       663.51739852
  Solvation  Ediel_sol  =         0.00000000
  ---------------------------------------------------
  free energy    TOTEN  =       -56.10474794 eV

  energy without entropy =      -56.10474794  energy(sigma->0) =      -56.10474794


--------------------------------------------------------------------------------------------------------




--------------------------------------- Iteration      1(  17)  ---------------------------------------


    POTLOK:  cpu time      0.3007: real time      0.3024
    SETDIJ:  cpu time      0.1902: real time      0.1910
     EDDAV:  cpu time      0.4096: real time      0.4119
       DOS:  cpu time      0.0001: real time      0.0001
    CHARGE:  cpu time      0.1978: real time      0.1986
    MIXING:  cpu time      0.0162: real time      0.0162
    --------------------------------------------
      LOOP:  cpu time      1.1146: real time      1.1203

 eigenvalue-minimisations  :    64
 total energy-change (2. order) :-0.1031835E-02  (-0.1211488E-04)
 number of electron      22.0000000 magnetization 
 augmentation part        0.4721423 magnetization 

 Broyden mixing:
  rms(total) = 0.47532E-03    rms(broyden)= 0.47527E-03
  rms(prec ) = 0.81995E-03
  weight for this iteration     100.00

 eigenvalues of (default mixing * dielectric matrix)
  average eigenvalue GAMMA=   2.2011
  7.7194  4.6705  2.6623  2.3086  1.7114  1.3605  1.3605  1.0548  1.0548  0.8311
  0.8311  0.8480

 Free energy of the ion-electron system (eV)
  ---------------------------------------------------
  alpha Z        PSCENC =         0.62641250
  Ewald energy   TEWEN  =       847.89701908
  -Hartree energ DENC   =     -1380.41517813
  -exchange      EXHF   =         0.00000000
  -V(xc)+E(xc)   XCENC  =        71.84398053
  PAW double counting   =       279.63144898     -284.86250667
  entropy T*S    EENTRO =        -0.00000000
  eigenvalues    EBANDS =      -254.34435458
  atomic energy  EATOM  =       663.51739852
  Solvation  Ediel_sol  =         0.00000000
  ---------------------------------------------------
  free energy    TOTEN  =       -56.10577978 eV

  energy without entropy =      -56.10577978  energy(sigma->0) =      -56.10577978


--------------------------------------------------------------------------------------------------------




--------------------------------------- Iteration      1(  18)  ---------------------------------------


    POTLOK:  cpu time      0.2999: real time      0.3016
    SETDIJ:  cpu time      0.1931: real time      0.1940
     EDDAV:  cpu time      0.4106: real time      0.4129
       DOS:  cpu time      0.0001: real time      0.0001
    CHARGE:  cpu time      0.1965: real time      0.1974
    MIXING:  cpu time      0.0154: real time      0.0154
    --------------------------------------------
      LOOP:  cpu time      1.1157: real time      1.1214

 eigenvalue-minimisations  :    64
 total energy-change (2. order) :-0.3214776E-03  (-0.2432406E-05)
 number of electron      22.0000000 magnetization 
 augmentation part        0.4721086 magnetization 

 Broyden mixing:
  rms(total) = 0.27888E-03    rms(broyden)= 0.27880E-03
  rms(prec ) = 0.48949E-03
  weight for this iteration     100.00

 eigenvalues of (default mixing * dielectric matrix)
  average eigenvalue GAMMA=   2.2368
  8.2623  4.9439  2.8489  2.5039  1.9074  1.4934  1.4934  1.0918  1.0918  0.8352
  0.8352  0.9656  0.8050

 Free energy of the ion-electron system (eV)
  ---------------------------------------------------
  alpha Z        PSCENC =         0.62641250
  Ewald energy   TEWEN  =       847.89701908
  -Hartree energ DENC   =     -1380.46498343
  -exchange      EXHF   =         0.00000000
  -V(xc)+E(xc)   XCENC  =        71.84557146
  PAW double counting   =       279.65489417     -284.88620223
  entropy T*S    EENTRO =        -0.00000000
  eigenvalues    EBANDS =      -254.29621132
  atomic energy  EATOM  =       663.51739852
  Solvation  Ediel_sol  =         0.00000000
  ---------------------------------------------------
  free energy    TOTEN  =       -56.10610126 eV

  energy without entropy =      -56.10610126  energy(sigma->0) =      -56.10610126


--------------------------------------------------------------------------------------------------------




--------------------------------------- Iteration      1(  19)  ---------------------------------------


    POTLOK:  cpu time      0.2985: real time      0.3001
    SETDIJ:  cpu time      0.1932: real time      0.1940
     EDDAV:  cpu time      0.3708: real time      0.3728
       DOS:  cpu time      0.0002: real time      0.0002
    CHARGE:  cpu time      0.1983: real time      0.1991
    MIXING:  cpu time      0.0115: real time      0.0116
    --------------------------------------------
      LOOP:  cpu time      1.0724: real time      1.0778

 eigenvalue-minimisations  :    56
 total energy-change (2. order) :-0.1920564E-03  (-0.9159101E-06)
 number of electron      22.0000000 magnetization 
 augmentation part        0.4721039 magnetization 

 Broyden mixing:
  rms(total) = 0.20164E-03    rms(broyden)= 0.20158E-03
  rms(prec ) = 0.30505E-03
  weight for this iteration     100.00

 eigenvalues of (default mixing * dielectric matrix)
  average eigenvalue GAMMA=   2.2096
  8.4403  5.2107  3.0414  2.4367  2.0079  1.3354  1.3354  1.3262  1.2632  0.8335
  0.8335  1.0052  1.0052  0.8602

 Free energy of the ion-electron system (eV)
  ---------------------------------------------------
  alpha Z        PSCENC =         0.62641250
  Ewald energy   TEWEN  =       847.89701908
  -Hartree energ DENC   =     -1380.46646534
  -exchange      EXHF   =         0.00000000
  -V(xc)+E(xc)   XCENC  =        71.84508262
  PAW double counting   =       279.64340134     -284.87481649
  entropy T*S    EENTRO =        -0.00000000
  eigenvalues    EBANDS =      -254.29432555
  atomic energy  EATOM  =       663.51739852
  Solvation  Ediel_sol  =         0.00000000
  ---------------------------------------------------
  free energy    TOTEN  =       -56.10629331 eV

  energy without entropy =      -56.10629331  energy(sigma->0) =      -56.10629331


--------------------------------------------------------------------------------------------------------




--------------------------------------- Iteration      1(  20)  ---------------------------------------


    POTLOK:  cpu time      0.2989: real time      0.3006
    SETDIJ:  cpu time      0.1938: real time      0.1946
     EDDAV:  cpu time      0.3733: real time      0.3754
       DOS:  cpu time      0.0002: real time      0.0002
    CHARGE:  cpu time      0.1982: real time      0.1990
    MIXING:  cpu time      0.0161: real time      0.0161
    --------------------------------------------
      LOOP:  cpu time      1.0805: real time      1.0859

 eigenvalue-minimisations  :    56
 total energy-change (2. order) :-0.5557863E-04  (-0.1515859E-06)
 number of electron      22.0000000 magnetization 
 augmentation part        0.4721085 magnetization 

 Broyden mixing:
  rms(total) = 0.88114E-04    rms(broyden)= 0.88026E-04
  rms(prec ) = 0.17098E-03
  weight for this iteration     100.00

 eigenvalues of (default mixing * dielectric matrix)
  average eigenvalue GAMMA=   2.2984
  8.7747  5.6195  3.7186  2.5896  2.3616  1.6125  1.6125  1.2850  1.2850  1.0806
  1.0806  0.8341  0.8341  0.9655  0.8219

 Free energy of the ion-electron system (eV)
  ---------------------------------------------------
  alpha Z        PSCENC =         0.62641250
  Ewald energy   TEWEN  =       847.89701908
  -Hartree energ DENC   =     -1380.46280606
  -exchange      EXHF   =         0.00000000
  -V(xc)+E(xc)   XCENC  =        71.84489773
  PAW double counting   =       279.63872417     -284.87001748
  entropy T*S    EENTRO =        -0.00000000
  eigenvalues    EBANDS =      -254.29797736
  atomic energy  EATOM  =       663.51739852
  Solvation  Ediel_sol  =         0.00000000
  ---------------------------------------------------
  free energy    TOTEN  =       -56.10634889 eV

  energy without entropy =      -56.10634889  energy(sigma->0) =      -56.10634889


--------------------------------------------------------------------------------------------------------




--------------------------------------- Iteration      1(  21)  ---------------------------------------


    POTLOK:  cpu time      0.3068: real time      0.3085
    SETDIJ:  cpu time      0.1929: real time      0.1937
     EDDAV:  cpu time      0.3702: real time      0.3722
       DOS:  cpu time      0.0001: real time      0.0001
    CHARGE:  cpu time      0.1962: real time      0.1970
    MIXING:  cpu time      0.0172: real time      0.0172
    --------------------------------------------
      LOOP:  cpu time      1.0834: real time      1.0888

 eigenvalue-minimisations  :    56
 total energy-change (2. order) :-0.5082666E-04  (-0.1404787E-06)
 number of electron      22.0000000 magnetization 
 augmentation part        0.4721094 magnetization 

 Broyden mixing:
  rms(total) = 0.58196E-04    rms(broyden)= 0.58087E-04
  rms(prec ) = 0.90047E-04
  weight for this iteration     100.00

 eigenvalues of (default mixing * dielectric matrix)
  average eigenvalue GAMMA=   2.2714
  8.8829  5.7825  3.9758  2.6815  2.4008  1.8962  1.2790  1.2790  1.3213  1.3213
  1.0446  1.0446  0.8337  0.8337  0.9320  0.8338

 Free energy of the ion-electron system (eV)
  ---------------------------------------------------
  alpha Z        PSCENC =         0.62641250
  Ewald energy   TEWEN  =       847.89701908
  -Hartree energ DENC   =     -1380.46714034
  -exchange      EXHF   =         0.00000000
  -V(xc)+E(xc)   XCENC  =        71.84488573
  PAW double counting   =       279.64089481     -284.87221264
  entropy T*S    EENTRO =        -0.00000000
  eigenvalues    EBANDS =      -254.29365738
  atomic energy  EATOM  =       663.51739852
  Solvation  Ediel_sol  =         0.00000000
  ---------------------------------------------------
  free energy    TOTEN  =       -56.10639972 eV

  energy without entropy =      -56.10639972  energy(sigma->0) =      -56.10639972


--------------------------------------------------------------------------------------------------------




--------------------------------------- Iteration      1(  22)  ---------------------------------------


    POTLOK:  cpu time      0.3106: real time      0.3123
    SETDIJ:  cpu time      0.1956: real time      0.1964
     EDDAV:  cpu time      0.3373: real time      0.3392
       DOS:  cpu time      0.0001: real time      0.0001
    CHARGE:  cpu time      0.1978: real time      0.1986
    MIXING:  cpu time      0.0140: real time      0.0141
    --------------------------------------------
      LOOP:  cpu time      1.0554: real time      1.0607

 eigenvalue-minimisations  :    48
 total energy-change (2. order) :-0.9701238E-05  (-0.1144210E-07)
 number of electron      22.0000000 magnetization 
 augmentation part        0.4721101 magnetization 

 Broyden mixing:
  rms(total) = 0.33220E-04    rms(broyden)= 0.33037E-04
  rms(prec ) = 0.55085E-04
  weight for this iteration     100.00

 eigenvalues of (default mixing * dielectric matrix)
  average eigenvalue GAMMA=   2.3707
  8.9798  6.3136  4.4889  3.1156  2.6108  2.2120  1.8569  1.4783  1.3057  1.3057
  1.0968  1.0968  0.8340  0.8340  0.9717  0.9717  0.8301

 Free energy of the ion-electron system (eV)
  ---------------------------------------------------
  alpha Z        PSCENC =         0.62641250
  Ewald energy   TEWEN  =       847.89701908
  -Hartree energ DENC   =     -1380.46760021
  -exchange      EXHF   =         0.00000000
  -V(xc)+E(xc)   XCENC  =        71.84483651
  PAW double counting   =       279.64192138     -284.87324648
  entropy T*S    EENTRO =        -0.00000000
  eigenvalues    EBANDS =      -254.29315071
  atomic energy  EATOM  =       663.51739852
  Solvation  Ediel_sol  =         0.00000000
  ---------------------------------------------------
  free energy    TOTEN  =       -56.10640942 eV

  energy without entropy =      -56.10640942  energy(sigma->0) =      -56.10640942


--------------------------------------------------------------------------------------------------------




--------------------------------------- Iteration      1(  23)  ---------------------------------------


    POTLOK:  cpu time      0.3112: real time      0.3129
    SETDIJ:  cpu time      0.1936: real time      0.1944
     EDDAV:  cpu time      0.3324: real time      0.3342
       DOS:  cpu time      0.0001: real time      0.0001
    CHARGE:  cpu time      0.1968: real time      0.1976
    MIXING:  cpu time      0.0127: real time      0.0127
    --------------------------------------------
      LOOP:  cpu time      1.0467: real time      1.0519

 eigenvalue-minimisations  :    48
 total energy-change (2. order) :-0.8756298E-05  (-0.1761656E-07)
 number of electron      22.0000000 magnetization 
 augmentation part        0.4721097 magnetization 

 Broyden mixing:
  rms(total) = 0.24388E-04    rms(broyden)= 0.24140E-04
  rms(prec ) = 0.32785E-04
  weight for this iteration     100.00

 eigenvalues of (default mixing * dielectric matrix)
  average eigenvalue GAMMA=   2.3439
  9.0620  6.4742  4.7478  3.1624  2.4147  2.4147  1.9519  1.3430  1.3430  1.3433
  1.3433  1.0836  1.0836  0.8341  0.8341  0.9644  0.9644  0.8256

 Free energy of the ion-electron system (eV)
  ---------------------------------------------------
  alpha Z        PSCENC =         0.62641250
  Ewald energy   TEWEN  =       847.89701908
  -Hartree energ DENC   =     -1380.46938034
  -exchange      EXHF   =         0.00000000
  -V(xc)+E(xc)   XCENC  =        71.84483976
  PAW double counting   =       279.64325253     -284.87458304
  entropy T*S    EENTRO =        -0.00000000
  eigenvalues    EBANDS =      -254.29137719
  atomic energy  EATOM  =       663.51739852
  Solvation  Ediel_sol  =         0.00000000
  ---------------------------------------------------
  free energy    TOTEN  =       -56.10641818 eV

  energy without entropy =      -56.10641818  energy(sigma->0) =      -56.10641818


--------------------------------------------------------------------------------------------------------




--------------------------------------- Iteration      1(  24)  ---------------------------------------


    POTLOK:  cpu time      0.3099: real time      0.3115
    SETDIJ:  cpu time      0.1902: real time      0.1911
     EDDAV:  cpu time      0.3760: real time      0.3782
       DOS:  cpu time      0.0002: real time      0.0002
    CHARGE:  cpu time      0.1965: real time      0.1972
    MIXING:  cpu time      0.0170: real time      0.0170
    --------------------------------------------
      LOOP:  cpu time      1.0897: real time      1.0952

 eigenvalue-minimisations  :    56
 total energy-change (2. order) :-0.1163838E-05  (-0.2822606E-08)
 number of electron      22.0000000 magnetization 
 augmentation part        0.4721095 magnetization 

 Broyden mixing:
  rms(total) = 0.11871E-04    rms(broyden)= 0.11359E-04
  rms(prec ) = 0.17815E-04
  weight for this iteration     100.00

 eigenvalues of (default mixing * dielectric matrix)
  average eigenvalue GAMMA=   2.3443
  9.0521  6.7050  4.9325  3.4370  2.5307  2.5307  1.7554  1.7554  1.3527  1.3527
  1.4391  1.1067  1.1067  0.8340  0.8340  1.0375  0.9756  0.9756  0.8272

 Free energy of the ion-electron system (eV)
  ---------------------------------------------------
  alpha Z        PSCENC =         0.62641250
  Ewald energy   TEWEN  =       847.89701908
  -Hartree energ DENC   =     -1380.46989072
  -exchange      EXHF   =         0.00000000
  -V(xc)+E(xc)   XCENC  =        71.84484772
  PAW double counting   =       279.64256280     -284.87389396
  entropy T*S    EENTRO =        -0.00000000
  eigenvalues    EBANDS =      -254.29087527
  atomic energy  EATOM  =       663.51739852
  Solvation  Ediel_sol  =         0.00000000
  ---------------------------------------------------
  free energy    TOTEN  =       -56.10641934 eV

  energy without entropy =      -56.10641934  energy(sigma->0) =      -56.10641934


--------------------------------------------------------------------------------------------------------




--------------------------------------- Iteration      1(  25)  ---------------------------------------


    POTLOK:  cpu time      0.3139: real time      0.3156
    SETDIJ:  cpu time      0.1923: real time      0.1931
     EDDAV:  cpu time      0.2912: real time      0.2928
       DOS:  cpu time      0.0002: real time      0.0002
    CHARGE:  cpu time      0.1958: real time      0.1966
    MIXING:  cpu time      0.0156: real time      0.0156
    --------------------------------------------
      LOOP:  cpu time      1.0089: real time      1.0138

 eigenvalue-minimisations  :    40
 total energy-change (2. order) :-0.1069534E-05  (-0.2293934E-08)
 number of electron      22.0000000 magnetization 
 augmentation part        0.4721095 magnetization 

 Broyden mixing:
  rms(total) = 0.91129E-05    rms(broyden)= 0.84357E-05
  rms(prec ) = 0.12296E-04
  weight for this iteration     100.00

 eigenvalues of (default mixing * dielectric matrix)
  average eigenvalue GAMMA=   2.3713
  9.1227  6.9268  5.2012  3.7765  2.7248  2.4852  2.2848  1.9431  1.2926  1.2926
  1.3597  1.3597  0.8340  0.8340  1.0870  1.0870  1.0260  0.9809  0.9809  0.8273

 Free energy of the ion-electron system (eV)
  ---------------------------------------------------
  alpha Z        PSCENC =         0.62641250
  Ewald energy   TEWEN  =       847.89701908
  -Hartree energ DENC   =     -1380.46976681
  -exchange      EXHF   =         0.00000000
  -V(xc)+E(xc)   XCENC  =        71.84484292
  PAW double counting   =       279.64246613     -284.87379523
  entropy T*S    EENTRO =        -0.00000000
  eigenvalues    EBANDS =      -254.29099752
  atomic energy  EATOM  =       663.51739852
  Solvation  Ediel_sol  =         0.00000000
  ---------------------------------------------------
  free energy    TOTEN  =       -56.10642041 eV

  energy without entropy =      -56.10642041  energy(sigma->0) =      -56.10642041


--------------------------------------------------------------------------------------------------------




--------------------------------------- Iteration      1(  26)  ---------------------------------------


    POTLOK:  cpu time      0.3169: real time      0.3186
    SETDIJ:  cpu time      0.1931: real time      0.1939
     EDDAV:  cpu time      0.2915: real time      0.2931
       DOS:  cpu time      0.0001: real time      0.0001
    --------------------------------------------
      LOOP:  cpu time      0.8017: real time      0.8057

 eigenvalue-minimisations  :    40
 total energy-change (2. order) :-0.5289367E-06  (-0.1504707E-08)
 number of electron      22.0000000 magnetization 
 augmentation part        0.4721095 magnetization 

 Free energy of the ion-electron system (eV)
  ---------------------------------------------------
  alpha Z        PSCENC =         0.62641250
  Ewald energy   TEWEN  =       847.89701908
  -Hartree energ DENC   =     -1380.46981612
  -exchange      EXHF   =         0.00000000
  -V(xc)+E(xc)   XCENC  =        71.84484604
  PAW double counting   =       279.64206124     -284.87338382
  entropy T*S    EENTRO =        -0.00000000
  eigenvalues    EBANDS =      -254.29095839
  atomic energy  EATOM  =       663.51739852
  Solvation  Ediel_sol  =         0.00000000
  ---------------------------------------------------
  free energy    TOTEN  =       -56.10642094 eV

  energy without entropy =      -56.10642094  energy(sigma->0) =      -56.10642094


--------------------------------------------------------------------------------------------------------




 average (electrostatic) potential at core
  the test charge radii are     0.6991  0.5201
  (the norm of the test charge is              1.0000)
       1 -58.8141       2 -59.0465       3 -59.0733       4 -58.7407       5 -42.1944
       6 -41.4498       7 -41.7592       8 -41.9343       9 -41.8935      10 -42.2943
 
 
 
 E-fermi :  -5.0777     XC(G=0):  -0.4483     alpha+bet : -0.1681

 Fermi energy:        -5.0776832961

 k-point     1 :       0.0000    0.0000    0.0000
  band No.  band energies     occupation 
      1     -19.5300      2.00000
      2     -17.3142      2.00000
      3     -15.3858      2.00000
      4     -12.8349      2.00000
      5     -11.7282      2.00000
      6     -10.4057      2.00000
      7      -9.7940      2.00000
      8      -8.8412      2.00000
      9      -8.2981      2.00000
     10      -7.6888      2.00000
     11      -5.3246      2.00000
     12      -2.6763      0.00000
     13      -0.4107      0.00000
     14      -0.0509      0.00000
     15       0.2256      0.00000
     16       0.3627      0.00000
     17       0.4319      0.00000
     18       0.5121      0.00000
     19       0.5404      0.00000
     20       0.6580      0.00000
     21       0.8072      0.00000
     22       0.9154      0.00000
     23       1.0174      0.00000
     24       1.0537      0.00000


--------------------------------------------------------------------------------------------------------


 soft charge-density along one line, spin component           1
         0         1         2         3         4         5         6         7         8         9
 total charge-density along one line
 
 pseudopotential strength for first ion, spin component:           1
 10.257   0.020   0.001   0.001   0.000  -0.000   0.001   0.000
  0.020  -0.001  -0.000  -0.000  -0.000  -0.000   0.000  -0.000
  0.001  -0.000  -4.379   0.001  -0.006  -0.011   0.000  -0.002
  0.001  -0.000   0.001  -4.385   0.002   0.000  -0.013   0.001
  0.000  -0.000  -0.006   0.002  -4.373  -0.002   0.001  -0.010
 -0.000  -0.000  -0.011   0.000  -0.002  -0.773   0.000  -0.000
  0.001   0.000   0.000  -0.013   0.001   0.000  -0.773   0.000
  0.000  -0.000  -0.002   0.001  -0.010  -0.000   0.000  -0.773
 total augmentation occupancy for first ion, spin component:           1
  1.461  -0.936  -0.004  -0.033  -0.002  -0.001  -0.004  -0.010
 -0.936   0.665   0.004   0.001   0.052   0.012  -0.006   0.018
 -0.004   0.004   1.038  -0.001   0.112   0.152  -0.008   0.049
 -0.033   0.001  -0.001   1.151  -0.031  -0.007   0.185  -0.016
 -0.002   0.052   0.112  -0.031   0.956   0.049  -0.016   0.100
 -0.001   0.012   0.152  -0.007   0.049   0.025  -0.003   0.011
 -0.004  -0.006  -0.008   0.185  -0.016  -0.003   0.031  -0.004
 -0.010   0.018   0.049  -0.016   0.100   0.011  -0.004   0.013


------------------------ aborting loop because EDIFF is reached ----------------------------------------


    CHARGE:  cpu time      0.1973: real time      0.1981
    FORLOC:  cpu time      0.0310: real time      0.0311
    FORNL :  cpu time      1.0554: real time      1.0604
    STRESS:  cpu time      3.3526: real time      3.3684
    FORHAR:  cpu time      0.1113: real time      0.1118
    MIXING:  cpu time      0.0126: real time      0.0126
    OFIELD:  cpu time      0.0001: real time      0.0001

  FORCE on cell =-STRESS in cart. coord.  units (eV):
  Direction    XX          YY          ZZ          XY          YZ          ZX
  --------------------------------------------------------------------------------------
  Alpha Z     0.62641     0.62641     0.62641
  Ewald     -43.64864   235.69082   655.85449   259.31805    22.37263  -119.31470
  Hartree   273.34284   409.11347   698.01408   128.96074     8.35405   -76.42347
  E(xc)     -76.36738   -75.30661   -74.68882     0.94443     0.10861    -0.24040
  Local    -443.81340  -843.34544 -1539.37366  -374.51162   -29.73562   192.25153
  n-local   -27.81468   -29.21808   -29.67239    -1.17455    -0.24483     0.05250
  augment    -0.47694    -0.53314    -0.59903    -0.04927     0.00068     0.01360
  Kinetic   314.88311   293.85412   286.89648   -18.57244    -1.45689     3.97975
  Fock        0.00000     0.00000     0.00000     0.00000     0.00000     0.00000
  -------------------------------------------------------------------------------------
  Total      -3.26867    -9.11844    -2.94244    -5.08466    -0.60136     0.31881
  in kB      -1.55170    -4.32870    -1.39683    -2.41379    -0.28547     0.15135
  external pressure =       -2.43 kB  Pullay stress =        0.00 kB


 VOLUME and BASIS-vectors are now :
 -----------------------------------------------------------------------------
  energy-cutoff  :      520.00
  volume of cell :     3375.00
      direct lattice vectors                 reciprocal lattice vectors
    15.000000000  0.000000000  0.000000000     0.066666667  0.000000000  0.000000000
     0.000000000 15.000000000  0.000000000     0.000000000  0.066666667  0.000000000
     0.000000000  0.000000000 15.000000000     0.000000000  0.000000000  0.066666667

  length of vectors
    15.000000000 15.000000000 15.000000000     0.066666667  0.066666667  0.066666667


 FORCES acting on ions
    electron-ion (+dipol)            ewald-force                    non-local-force                 convergence-correction
 -----------------------------------------------------------------------------------------------
   -.657E+02 -.637E+02 0.872E+02   0.651E+02 0.629E+02 -.855E+02   -.114E+01 -.119E+00 0.202E+01   0.105E-04 0.329E-04 0.560E-05
   0.204E+02 0.676E+02 0.706E+02   -.195E+02 -.662E+02 -.733E+02   0.727E+00 0.117E+01 -.116E+01   -.213E-04 -.332E-04 -.437E-04
   0.541E+02 0.794E+02 -.464E+02   -.541E+02 -.786E+02 0.490E+02   0.754E+00 0.108E+01 0.739E-01   -.183E-04 -.278E-04 0.451E-05
   -.191E+02 -.665E+02 -.108E+03   0.188E+02 0.661E+02 0.107E+03   -.162E+00 -.817E+00 -.142E+01   0.305E-04 0.796E-04 0.641E-04
   -.117E+02 -.124E+02 0.633E+02   0.123E+02 0.127E+02 -.692E+02   -.659E+00 -.775E+00 0.575E+01   0.987E-06 0.466E-05 -.148E-04
   -.273E+02 -.515E+02 -.116E+02   0.284E+02 0.537E+02 0.132E+02   -.154E+01 -.371E+01 -.251E+01   0.509E-05 0.164E-04 0.124E-04
   0.278E+02 0.456E+02 0.437E+02   -.296E+02 -.487E+02 -.464E+02   0.223E+01 0.338E+01 0.341E+01   -.619E-05 -.776E-05 -.516E-05
   0.366E+02 0.539E+02 -.230E+02   -.388E+02 -.574E+02 0.245E+02   0.284E+01 0.414E+01 -.166E+01   -.131E-04 -.214E-04 0.526E-05
   -.245E+02 -.565E+02 -.746E+01   0.264E+02 0.601E+02 0.636E+01   -.223E+01 -.465E+01 0.102E+01   0.328E-05 0.931E-05 0.171E-05
   0.752E+01 0.337E+01 -.675E+02   -.888E+01 -.465E+01 0.747E+02   0.973E+00 0.105E+01 -.611E+01   0.231E-05 0.587E-05 0.557E-05
 -----------------------------------------------------------------------------------------------
   -.181E+01 -.748E+00 0.584E+00   0.711E-14 0.533E-14 0.000E+00   0.180E+01 0.751E+00 -.586E+00   -.626E-05 0.586E-04 0.355E-04
 
 
 POSITION                                       TOTAL-FORCE (eV/Angst)
 -----------------------------------------------------------------------------------
      8.09900      7.95600      6.02500        -1.737493     -0.934667      3.700397
      7.33200      6.91900      6.72400         1.549857      2.602009     -3.931326
      7.02400      6.83300      8.11700         0.734768      1.918502      2.691270
      7.41600      7.80500      9.08600        -0.465894     -1.256635     -2.923880
      8.21400      8.07800      4.95200        -0.141991     -0.514773     -0.097385
      8.48500      8.86100      6.64300        -0.396796     -1.572694     -0.946673
      6.85700      6.18300      6.02200         0.466908      0.316676      0.718125
      6.42700      5.94500      8.46400         0.684146      0.732903     -0.231744
      7.90100      8.79100      8.85100        -0.312171     -1.064586     -0.073330
      7.24500      7.62800     10.11500        -0.381335     -0.226736      1.094547
 -----------------------------------------------------------------------------------
    total drift:                               -0.005359      0.003274     -0.002495


--------------------------------------------------------------------------------------------------------



  FREE ENERGIE OF THE ION-ELECTRON SYSTEM (eV)
  ---------------------------------------------------
  free  energy   TOTEN  =       -56.10642094 eV

  energy  without entropy=      -56.10642094  energy(sigma->0) =      -56.10642094
 


--------------------------------------------------------------------------------------------------------


    POTLOK:  cpu time      0.5089: real time      0.5114


--------------------------------------------------------------------------------------------------------


 stress matrix after NEB project (eV)
     -3.26867     -5.08466      0.31881
     -5.08466     -9.11844     -0.60135
      0.31881     -0.60136     -2.94244
  FORCES: max atom, RMS     4.962644    2.690122
  FORCE total and by dimension    8.506912    3.931326
  Stress total and by dimension   12.454806    9.118442
     LOOP+:  cpu time     31.1564: real time     31.3136
    4ORBIT:  cpu time      0.0000: real time      0.0000

 total amount of memory used by VASP MPI-rank0   224780. kBytes
=======================================================================

   base      :      30000. kBytes
   nonlr-proj:       1256. kBytes
   fftplans  :     123538. kBytes
   grid      :      67787. kBytes
   one-center:         15. kBytes
   wavefun   :       2184. kBytes
 
  
  
 General timing and accounting informations for this job:
 ========================================================
  
                  Total CPU time used (sec):       37.760
                            User time (sec):       34.519
                          System time (sec):        3.241
                         Elapsed time (sec):       39.311
  
                   Maximum memory used (kb):      560920.
                   Average memory used (kb):          N/A
  
                          Minor page faults:       175147
                          Major page faults:         5426
                 Voluntary context switches:         3112
