 vasp.6.4.2 20Jul23 (build Apr 10 2024 13:39:58) complex                        
  
 executed on             LinuxIFC date 2024.05.17  20:04:25
 running   16 mpi-ranks, on    1 nodes
 distrk:  each k-point on   16 cores,    1 groups
 distr:  one band on NCORE=   2 cores,    8 groups


--------------------------------------------------------------------------------------------------------


 INCAR:
   ISTART = 0
   ISPIN = 1
   LREAL = Auto
   ENCUT = 520
   NPAR = 8
   LPLANE = .TRUE.
   LSCALU = .FALSE.
   NSIM = 4
   LWAVE = .FALSE.
   LCHARG = .FALSE.
   ADDGRID = .TRUE.
   LASPH = .TRUE.
   PREC = Accurate
   ISMEAR = 0
   SIGMA = 0.05
   EDIFF = 1E-06
   NSW = 0
   TEBEG = 300
   TEEND = 700     	
   ISYM = 0
   NWRITE = 2

 POTCAR:   PAW_PBE C 08Apr2002                    
 POTCAR:   PAW_PBE H 15Jun2001                    
 POTCAR:   PAW_PBE C 08Apr2002                    
   VRHFIN =C: s2p2                                                                                  
   LEXCH  = PE                                                                                      
   EATOM  =   147.1560 eV,   10.8157 Ry                                                             
                                                                                                    
   TITEL  = PAW_PBE C 08Apr2002                                                                     
   LULTRA =        F    use ultrasoft PP ?                                                          
   IUNSCR =        0    unscreen: 0-lin 1-nonlin 2-no                                               
   RPACOR =     .000    partial core radius                                                         
   POMASS =   12.011; ZVAL   =    4.000    mass and valenz                                          
   RCORE  =    1.500    outmost cutoff radius                                                       
   RWIGS  =    1.630; RWIGS  =     .863    wigner-seitz radius (au A)                               
   ENMAX  =  400.000; ENMIN  =  300.000 eV                                                          
   ICORE  =        2    local potential                                                             
   LCOR   =        T    correct aug charges                                                         
   LPAW   =        T    paw PP                                                                      
   EAUG   =  644.873                                                                                
   DEXC   =     .000                                                                                
   RMAX   =    2.266    core radius for proj-oper                                                   
   RAUG   =    1.300    factor for augmentation sphere                                              
   RDEP   =    1.501    radius for radial grids                                                     
   RDEPT  =    1.300    core radius for aug-charge                                                  
   QCUT   =   -5.516; QGAM   =   11.032    optimization parameters                                  
                                                                                                    
   Description                                                                                      
     l     E      TYP  RCUT    TYP  RCUT                                                            
     0   .000     23  1.200                                                                         
     0   .000     23  1.200                                                                         
     1   .000     23  1.500                                                                         
     1  2.500     23  1.500                                                                         
     2   .000      7  1.500                                                                         
  local pseudopotential read in
  atomic valenz-charges read in
  non local Contribution for L=           0  read in
    real space projection operators read in
  non local Contribution for L=           0  read in
    real space projection operators read in
  non local Contribution for L=           1  read in
    real space projection operators read in
  non local Contribution for L=           1  read in
    real space projection operators read in
    PAW grid and wavefunctions read in
 
   number of l-projection  operators is LMAX  =           4
   number of lm-projection operators is LMMAX =           8
 
 POTCAR:   PAW_PBE H 15Jun2001                    
   VRHFIN =H: ultrasoft test                                                                        
   LEXCH  = PE                                                                                      
   EATOM  =    12.4884 eV,     .9179 Ry                                                             
                                                                                                    
   TITEL  = PAW_PBE H 15Jun2001                                                                     
   LULTRA =        F    use ultrasoft PP ?                                                          
   IUNSCR =        0    unscreen: 0-lin 1-nonlin 2-no                                               
   RPACOR =     .000    partial core radius                                                         
   POMASS =    1.000; ZVAL   =    1.000    mass and valenz                                          
   RCORE  =    1.100    outmost cutoff radius                                                       
   RWIGS  =     .700; RWIGS  =     .370    wigner-seitz radius (au A)                               
   ENMAX  =  250.000; ENMIN  =  200.000 eV                                                          
   RCLOC  =     .701    cutoff for local pot                                                        
   LCOR   =        T    correct aug charges                                                         
   LPAW   =        T    paw PP                                                                      
   EAUG   =  400.000                                                                                
   RMAX   =    2.174    core radius for proj-oper                                                   
   RAUG   =    1.200    factor for augmentation sphere                                              
   RDEP   =    1.112    radius for radial grids                                                     
   QCUT   =   -5.749; QGAM   =   11.498    optimization parameters                                  
                                                                                                    
   Description                                                                                      
     l     E      TYP  RCUT    TYP  RCUT                                                            
     0   .000     23  1.100                                                                         
     0   .500     23  1.100                                                                         
     1  -.300     23  1.100                                                                         
  local pseudopotential read in
  atomic valenz-charges read in
  non local Contribution for L=           0  read in
    real space projection operators read in
  non local Contribution for L=           0  read in
    real space projection operators read in
  non local Contribution for L=           1  read in
    real space projection operators read in
    PAW grid and wavefunctions read in
 
   number of l-projection  operators is LMAX  =           3
   number of lm-projection operators is LMMAX =           5
 
 Optimization of the real space projectors (new method)

 maximal supplied QI-value         = 25.13
 optimisation between [QCUT,QGAM] = [ 11.56, 23.12] = [ 37.43,149.72] Ry 
 Optimized for a Real-space Cutoff    1.04 Angstroem

   l    n(q)    QCUT    max X(q) W(low)/X(q) W(high)/X(q)  e(spline) 
   0      7    11.561     5.582    0.47E-04    0.94E-04    0.17E-07
   0      7    11.561    69.432    0.20E-03    0.59E-03    0.21E-06
   1      7    11.561     2.780    0.24E-04    0.70E-04    0.44E-07
   1      7    11.561     4.549    0.18E-03    0.25E-03    0.12E-06
 Optimization of the real space projectors (new method)

 maximal supplied QI-value         = 34.20
 optimisation between [QCUT,QGAM] = [ 11.63, 23.26] = [ 37.87,151.49] Ry 
 Optimized for a Real-space Cutoff    1.21 Angstroem

   l    n(q)    QCUT    max X(q) W(low)/X(q) W(high)/X(q)  e(spline) 
   0      8    11.629     4.436    0.19E-04    0.32E-04    0.47E-07
   0      8    11.629    16.131    0.16E-03    0.33E-03    0.21E-06
   1      8    11.629     4.654    0.18E-03    0.16E-03    0.26E-06
 PAW_PBE C 08Apr2002                    :
 energy of atom  1       EATOM= -147.1560
 kinetic energy error for atom=    0.0071 (will be added to EATOM!!)
 PAW_PBE H 15Jun2001                    :
 energy of atom  2       EATOM=  -12.4884
 kinetic energy error for atom=    0.0014 (will be added to EATOM!!)
 
 
 POSCAR:  C  H
  positions in cartesian coordinates
  No initial velocities read in
 exchange correlation table for  LEXCH =        8
   RHO(1)=    0.500       N(1)  =     2000
   RHO(2)=  100.500       N(2)  =     4000

 VTST: version 4.1, (05/19/21)

 CHAIN: initializing optimizer
 
 OPT: Using VASP Dynamics algorithm
 CHAIN: Read ICHAIN            0
 
 POSCAR:  C  H
  positions in cartesian coordinates
  No initial velocities read in
 


--------------------------------------------------------------------------------------------------------


 ion  position               nearest neighbor table
   1  0.530  0.478  0.396-   5 1.08   6 1.16   2 1.34
   2  0.496  0.539  0.451-   7 1.15   1 1.34   3 1.48
   3  0.493  0.540  0.550-   8 1.12   4 1.43   2 1.48
   4  0.476  0.465  0.606-  10 1.08   9 1.12   3 1.43
   5  0.524  0.488  0.325-   1 1.08
   6  0.561  0.413  0.425-   1 1.16
   7  0.472  0.604  0.417-   2 1.15
   8  0.499  0.607  0.581-   3 1.12
   9  0.467  0.399  0.572-   4 1.12
  10  0.482  0.465  0.678-   4 1.08
 

IMPORTANT INFORMATION: All symmetrisations will be switched off!
NOSYMM: (Re-)initialisation of all symmetry stuff for point group C_1.


----------------------------------------------------------------------------------------

                                     Primitive cell                                     

  volume of cell :    3375.0000

  direct lattice vectors                    reciprocal lattice vectors
    15.000000000  0.000000000  0.000000000     0.066666667  0.000000000  0.000000000
     0.000000000 15.000000000  0.000000000     0.000000000  0.066666667  0.000000000
     0.000000000  0.000000000 15.000000000     0.000000000  0.000000000  0.066666667

  length of vectors
    15.000000000 15.000000000 15.000000000     0.066666667  0.066666667  0.066666667

  position of ions in fractional coordinates (direct lattice)
     0.529666678  0.478199991  0.396066666
     0.495866680  0.539466667  0.451200008
     0.492800013  0.540333303  0.549600029
     0.476133347  0.465133349  0.605666669
     0.524066671  0.487933318  0.324666659
     0.561133321  0.413400014  0.425000000
     0.472333336  0.604333305  0.417066669
     0.498933347  0.607400004  0.581133334
     0.467199993  0.399000009  0.571999995
     0.481800016  0.464866670  0.677533340

  ion indices of the primitive-cell ions
   primitive index   ion index
                 1           1
                 2           2
                 3           3
                 4           4
                 5           5
                 6           6
                 7           7
                 8           8
                 9           9
                10          10

----------------------------------------------------------------------------------------

 
 
 KPOINTS: K-Spacing Value to Generate K-Mesh: 1.00

Automatic generation of k-mesh.
 Grid dimensions read from file:
 generate k-points for:    1    1    1

 Generating k-lattice:

  Cartesian coordinates                     Fractional coordinates (reciprocal lattice)
     0.066666667  0.000000000  0.000000000     1.000000000  0.000000000  0.000000000
     0.000000000  0.066666667  0.000000000     0.000000000  1.000000000  0.000000000
     0.000000000  0.000000000  0.066666667     0.000000000  0.000000000  1.000000000

  Length of vectors
     0.066666667  0.066666667  0.066666667

  Shift w.r.t. Gamma in fractional coordinates (k-lattice)
     0.000000000  0.000000000  0.000000000

 
 Subroutine IBZKPT returns following result:
 ===========================================
 
 Found      1 irreducible k-points:
 
 Following reciprocal coordinates:
            Coordinates               Weight
  0.000000  0.000000  0.000000      1.000000
 
 Following cartesian coordinates:
            Coordinates               Weight
  0.000000  0.000000  0.000000      1.000000
 


--------------------------------------------------------------------------------------------------------




 Dimension of arrays:
   k-points           NKPTS =      1   k-points in BZ     NKDIM =      1   number of bands    NBANDS=     24
   number of dos      NEDOS =    301   number of ions     NIONS =     10
   non local maximal  LDIM  =      4   non local SUM 2l+1 LMDIM =      8
   total plane-waves  NPLWV = ******
   max r-space proj   IRMAX =   3145   max aug-charges    IRDMAX=  39494
   dimension x,y,z NGX =   112 NGY =  112 NGZ =  112
   dimension x,y,z NGXF=   224 NGYF=  224 NGZF=  224
   support grid    NGXF=   448 NGYF=  448 NGZF=  448
   ions per type =               4   6
   NGX,Y,Z   is equivalent  to a cutoff of  12.41, 12.41, 12.41 a.u.
   NGXF,Y,Z  is equivalent  to a cutoff of  24.83, 24.83, 24.83 a.u.

 SYSTEM =  unknown system                          
 POSCAR =   C  H                                   

 Startparameter for this run:
   NWRITE =      2    write-flag & timer
   PREC   = accura    normal or accurate (medium, high low for compatibility)
   ISTART =      0    job   : 0-new  1-cont  2-samecut
   ICHARG =      2    charge: 1-file 2-atom 10-const
   ISPIN  =      1    spin polarized calculation?
   LNONCOLLINEAR =      F non collinear calculations
   LSORBIT =      F    spin-orbit coupling
   INIWAV =      1    electr: 0-lowe 1-rand  2-diag
   LASPH  =      T    aspherical Exc in radial PAW
 Electronic Relaxation 1
   ENCUT  =  520.0 eV  38.22 Ry    6.18 a.u.  27.89 27.89 27.89*2*pi/ulx,y,z
   ENINI  =  520.0     initial cutoff
   ENAUG  =  644.9 eV  augmentation charge cutoff
   NELM   =     60;   NELMIN=  2; NELMDL= -5     # of ELM steps 
   EDIFF  = 0.1E-05   stopping-criterion for ELM
   LREAL  =      T    real-space projection
   NLSPLINE    = F    spline interpolate recip. space projectors
   LCOMPAT=      F    compatible to vasp.4.4
   GGA_COMPAT  = T    GGA compatible to vasp.4.4-vasp.4.6
   LMAXPAW     = -100 max onsite density
   LMAXMIX     =    2 max onsite mixed and CHGCAR
   VOSKOWN=      0    Vosko Wilk Nusair interpolation
   ROPT   =   -0.00025  -0.00025
 Ionic relaxation
   EDIFFG = 0.1E-04   stopping-criterion for IOM
   NSW    =      0    number of steps for IOM
   NBLOCK =      1;   KBLOCK =      1    inner block; outer block 
   IBRION =     -1    ionic relax: 0-MD 1-quasi-New 2-CG
   NFREE  =      0    steps in history (QN), initial steepest desc. (CG)
   ISIF   =      2    stress and relaxation
   IWAVPR =     10    prediction:  0-non 1-charg 2-wave 3-comb
   ISYM   =      0    0-nonsym 1-usesym 2-fastsym
   LCORR  =      T    Harris-Foulkes like correction to forces

   POTIM  = 0.5000    time-step for ionic-motion
   TEIN   =    0.0    initial temperature
   TEBEG  =  300.0;   TEEND  = 700.0 temperature during run
   SMASS  =  -3.00    Nose mass-parameter (am)
   estimated Nose-frequenzy (Omega)   =  0.10E-29 period in steps = 0.13E+47 mass=  -0.514E-26a.u.
   SCALEE = 1.0000    scale energy and forces
   NPACO  =    256;   APACO  = 10.0  distance and # of slots for P.C.
   PSTRESS=    0.0 pullay stress

  Mass of Ions in am
   POMASS =  12.01  1.00
  Ionic Valenz
   ZVAL   =   4.00  1.00
  Atomic Wigner-Seitz radii
   RWIGS  =  -1.00 -1.00
  virtual crystal weights 
   VCA    =   1.00  1.00
   NELECT =      22.0000    total number of electrons
   NUPDOWN=      -1.0000    fix difference up-down

 DOS related values:
   EMIN   =  10.00;   EMAX   =-10.00  energy-range for DOS
   EFERMI =   0.00;   METHOD = LEGACY      
   ISMEAR =     0;   SIGMA  =   0.05  broadening in eV -4-tet -1-fermi 0-gaus

 Electronic relaxation 2 (details)
   IALGO  =     38    algorithm
   LDIAG  =      T    sub-space diagonalisation (order eigenvalues)
   LSUBROT=      F    optimize rotation matrix (better conditioning)
   TURBO    =      0    0=normal 1=particle mesh
   IRESTART =      0    0=no restart 2=restart with 2 vectors
   NREBOOT  =      0    no. of reboots
   NMIN     =      0    reboot dimension
   EREF     =   0.00    reference energy to select bands
   IMIX   =      4    mixing-type and parameters
     AMIX     =   0.40;   BMIX     =  1.00
     AMIX_MAG =   1.60;   BMIX_MAG =  1.00
     AMIN     =   0.10
     WC   =   100.;   INIMIX=   1;  MIXPRE=   1;  MAXMIX= -45

 Intra band minimization:
   WEIMIN = 0.0000     energy-eigenvalue tresh-hold
   EBREAK =  0.10E-07  absolut break condition
   DEPER  =   0.30     relativ break condition  

   TIME   =   0.40     timestep for ELM

  volume/ion in A,a.u.               =     337.50      2277.56
  Fermi-wavevector in a.u.,A,eV,Ry     =   0.305814  0.577905  1.272449  0.093522
  Thomas-Fermi vector in A             =   1.179187
 
 Write flags
   LWAVE        =      F    write WAVECAR
   LDOWNSAMPLE  =      F    k-point downsampling of WAVECAR
   LCHARG       =      F    write CHGCAR
   LVTOT        =      F    write LOCPOT, total local potential
   LVHAR        =      F    write LOCPOT, Hartree potential only
   LELF         =      F    write electronic localiz. function (ELF)
   LORBIT       =      0    0 simple, 1 ext, 2 COOP (PROOUT), +10 PAW based schemes


 Dipole corrections
   LMONO  =      F    monopole corrections only (constant potential shift)
   LDIPOL =      F    correct potential (dipole corrections)
   IDIPOL =      0    1-x, 2-y, 3-z, 4-all directions 
   EPSILON=  1.0000000 bulk dielectric constant

 Exchange correlation treatment:
   GGA     =    --    GGA type
   LEXCH   =     8    internal setting for exchange type
   LIBXC   =     F    Libxc                    
   VOSKOWN =     0    Vosko Wilk Nusair interpolation
   LHFCALC =     F    Hartree Fock is set to
   LHFONE  =     F    Hartree Fock one center treatment
   AEXX    =    0.0000 exact exchange contribution

 Linear response parameters
   LEPSILON=     F    determine dielectric tensor
   LRPA    =     F    only Hartree local field effects (RPA)
   LNABLA  =     F    use nabla operator in PAW spheres
   LVEL    =     F    velocity operator in full k-point grid
   CSHIFT  =0.1000    complex shift for real part using Kramers Kronig
   OMEGAMAX=  -1.0    maximum frequency
   DEG_THRESHOLD= 0.2000000E-02 threshold for treating states as degnerate
   RTIME   =   -0.100 relaxation time in fs
  (WPLASMAI=    0.000 imaginary part of plasma frequency in eV, 0.658/RTIME)
   DFIELD  = 0.0000000 0.0000000 0.0000000 field for delta impulse in time
 
  Optional k-point grid parameters
   LKPOINTS_OPT  =     F    use optional k-point grid
   KPOINTS_OPT_MODE=     1    mode for optional k-point grid
 
 Orbital magnetization related:
   ORBITALMAG=     F  switch on orbital magnetization
   LCHIMAG   =     F  perturbation theory with respect to B field
   DQ        =  0.001000  dq finite difference perturbation B field
   LLRAUG    =     F  two centre corrections for induced B field
   LBONE     =     F  B-component reconstruction in AE one-centre
   LVGVCALC  =     T  calculate vGv susceptibility
   LVGVAPPL  =     F  apply vGv susceptibility instead of pGv for G=0

 Random number generation:
   RANDOM_GENERATOR = DEFAULT
   PCG_SEED         = not used


--------------------------------------------------------------------------------------------------------


 Static calculation
 charge density and potential will be updated during run
 non-spin polarized calculation
 Variant of blocked Davidson
 Davidson routine will perform the subspace rotation
 perform sub-space diagonalisation
    after iterative eigenvector-optimisation
 modified Broyden-mixing scheme, WC =      100.0
 initial mixing is a Kerker type mixing with AMIX =  0.4000 and BMIX =      1.0000
 Hartree-type preconditioning will be used
 using additional bands           13
 real space projection scheme for non local part
 calculate Harris-corrections to forces 
   (improved forces if not selfconsistent)
 use gradient corrections 
 use of overlap-Matrix (Vanderbilt PP)
 Gauss-broadening in eV      SIGMA  =   0.05


--------------------------------------------------------------------------------------------------------


  energy-cutoff  :      520.00
  volume of cell :     3375.00
      direct lattice vectors                 reciprocal lattice vectors
    15.000000000  0.000000000  0.000000000     0.066666667  0.000000000  0.000000000
     0.000000000 15.000000000  0.000000000     0.000000000  0.066666667  0.000000000
     0.000000000  0.000000000 15.000000000     0.000000000  0.000000000  0.066666667

  length of vectors
    15.000000000 15.000000000 15.000000000     0.066666667  0.066666667  0.066666667


 
 k-points in units of 2pi/SCALE and weight: K-Spacing Value to Generate K-Mesh: 1.00
   0.00000000  0.00000000  0.00000000       1.000
 
 k-points in reciprocal lattice and weights: K-Spacing Value to Generate K-Mesh: 1.00
   0.00000000  0.00000000  0.00000000       1.000
 
 position of ions in fractional coordinates (direct lattice) 
   0.52966668  0.47819999  0.39606667
   0.49586668  0.53946667  0.45120001
   0.49280001  0.54033330  0.54960003
   0.47613335  0.46513335  0.60566667
   0.52406667  0.48793332  0.32466666
   0.56113332  0.41340001  0.42500000
   0.47233334  0.60433331  0.41706667
   0.49893335  0.60740000  0.58113333
   0.46719999  0.39900001  0.57199999
   0.48180002  0.46486667  0.67753334
 
 position of ions in cartesian coordinates  (Angst):
   7.94500017  7.17299986  5.94099998
   7.43800020  8.09200001  6.76800013
   7.39200020  8.10499954  8.24400043
   7.14200020  6.97700024  9.08500004
   7.86100006  7.31899977  4.86999989
   8.41699982  6.20100021  6.37500000
   7.08500004  9.06499958  6.25600004
   7.48400021  9.11100006  8.71700001
   7.00799990  5.98500013  8.57999992
   7.22700024  6.97300005 10.16300011
 


--------------------------------------------------------------------------------------------------------


 k-point   1 :   0.0000 0.0000 0.0000  plane waves:   90879

 maximum and minimum number of plane-waves per node :     45467    45412

 maximum number of plane-waves:     90879
 maximum index in each direction: 
   IXMAX=   27   IYMAX=   27   IZMAX=   27
   IXMIN=  -27   IYMIN=  -27   IZMIN=  -27


 real space projection operators:
  total allocation   :       1183.59 KBytes
  max/ min on nodes  :        592.73        590.87


 parallel 3D FFT for wavefunctions:
    minimum data exchange during FFTs selected (reduces bandwidth)
 parallel 3D FFT for charge:
    minimum data exchange during FFTs selected (reduces bandwidth)


 total amount of memory used by VASP MPI-rank0   224781. kBytes
=======================================================================

   base      :      30000. kBytes
   nonlr-proj:       1257. kBytes
   fftplans  :     123538. kBytes
   grid      :      67787. kBytes
   one-center:         15. kBytes
   wavefun   :       2184. kBytes
 
     INWAV:  cpu time      0.0000: real time      0.0000
 Broyden mixing: mesh for mixing (old mesh)
   NGX = 55   NGY = 55   NGZ = 55
  (NGX  =224   NGY  =224   NGZ  =224)
  gives a total of 166375 points

 initial charge density was supplied:
 charge density of overlapping atoms calculated
 number of electron      22.0000000 magnetization 
 keeping initial charge density in first step


--------------------------------------------------------------------------------------------------------


 Maximum index for non-local projection operator         1509
 Maximum index for augmentation-charges         2466 (set IRDMAX)


--------------------------------------------------------------------------------------------------------


 First call to EWALD:  gamma=   0.118
 Maximum number of real-space cells 3x 3x 3
 Maximum number of reciprocal cells 3x 3x 3

    FEWALD:  cpu time      0.0014: real time      0.0014


--------------------------------------- Ionic step        1  -------------------------------------------




--------------------------------------- Iteration      1(   1)  ---------------------------------------


    POTLOK:  cpu time      0.3352: real time      0.3371
    SETDIJ:  cpu time      0.1928: real time      0.1936
     EDDAV:  cpu time      0.4212: real time      0.4236
       DOS:  cpu time      0.0002: real time      0.0002
    --------------------------------------------
      LOOP:  cpu time      0.9494: real time      0.9545

 eigenvalue-minimisations  :    64
 total energy-change (2. order) : 0.9771843E+02  (-0.5274496E+03)
 number of electron      22.0000000 magnetization 
 augmentation part       22.0000000 magnetization 

 Free energy of the ion-electron system (eV)
  ---------------------------------------------------
  alpha Z        PSCENC =         0.62641250
  Ewald energy   TEWEN  =       855.65058038
  -Hartree energ DENC   =     -1287.30857509
  -exchange      EXHF   =         0.00000000
  -V(xc)+E(xc)   XCENC  =        66.78607449
  PAW double counting   =       156.01372664     -160.66969168
  entropy T*S    EENTRO =        -0.00119550
  eigenvalues    EBANDS =      -196.89629827
  atomic energy  EATOM  =       663.51739852
  Solvation  Ediel_sol  =         0.00000000
  ---------------------------------------------------
  free energy    TOTEN  =        97.71843200 eV

  energy without entropy =       97.71962750  energy(sigma->0) =       97.71902975


--------------------------------------------------------------------------------------------------------




--------------------------------------- Iteration      1(   2)  ---------------------------------------


     EDDAV:  cpu time      0.4892: real time      0.4920
       DOS:  cpu time      0.0001: real time      0.0001
    --------------------------------------------
      LOOP:  cpu time      0.4893: real time      0.4921

 eigenvalue-minimisations  :    80
 total energy-change (2. order) :-0.1214268E+03  (-0.1183134E+03)
 number of electron      22.0000000 magnetization 
 augmentation part       22.0000000 magnetization 

 Free energy of the ion-electron system (eV)
  ---------------------------------------------------
  alpha Z        PSCENC =         0.62641250
  Ewald energy   TEWEN  =       855.65058038
  -Hartree energ DENC   =     -1287.30857509
  -exchange      EXHF   =         0.00000000
  -V(xc)+E(xc)   XCENC  =        66.78607449
  PAW double counting   =       156.01372664     -160.66969168
  entropy T*S    EENTRO =        -0.00000000
  eigenvalues    EBANDS =      -318.32431017
  atomic energy  EATOM  =       663.51739852
  Solvation  Ediel_sol  =         0.00000000
  ---------------------------------------------------
  free energy    TOTEN  =       -23.70838439 eV

  energy without entropy =      -23.70838439  energy(sigma->0) =      -23.70838439


--------------------------------------------------------------------------------------------------------




--------------------------------------- Iteration      1(   3)  ---------------------------------------


     EDDAV:  cpu time      0.4472: real time      0.4497
       DOS:  cpu time      0.0001: real time      0.0001
    --------------------------------------------
      LOOP:  cpu time      0.4473: real time      0.4498

 eigenvalue-minimisations  :    72
 total energy-change (2. order) :-0.3661055E+02  (-0.3654064E+02)
 number of electron      22.0000000 magnetization 
 augmentation part       22.0000000 magnetization 

 Free energy of the ion-electron system (eV)
  ---------------------------------------------------
  alpha Z        PSCENC =         0.62641250
  Ewald energy   TEWEN  =       855.65058038
  -Hartree energ DENC   =     -1287.30857509
  -exchange      EXHF   =         0.00000000
  -V(xc)+E(xc)   XCENC  =        66.78607449
  PAW double counting   =       156.01372664     -160.66969168
  entropy T*S    EENTRO =        -0.00000000
  eigenvalues    EBANDS =      -354.93485964
  atomic energy  EATOM  =       663.51739852
  Solvation  Ediel_sol  =         0.00000000
  ---------------------------------------------------
  free energy    TOTEN  =       -60.31893387 eV

  energy without entropy =      -60.31893387  energy(sigma->0) =      -60.31893387


--------------------------------------------------------------------------------------------------------




--------------------------------------- Iteration      1(   4)  ---------------------------------------


     EDDAV:  cpu time      0.4484: real time      0.4510
       DOS:  cpu time      0.0001: real time      0.0001
    --------------------------------------------
      LOOP:  cpu time      0.4486: real time      0.4511

 eigenvalue-minimisations  :    72
 total energy-change (2. order) :-0.2040873E+01  (-0.2038454E+01)
 number of electron      22.0000000 magnetization 
 augmentation part       22.0000000 magnetization 

 Free energy of the ion-electron system (eV)
  ---------------------------------------------------
  alpha Z        PSCENC =         0.62641250
  Ewald energy   TEWEN  =       855.65058038
  -Hartree energ DENC   =     -1287.30857509
  -exchange      EXHF   =         0.00000000
  -V(xc)+E(xc)   XCENC  =        66.78607449
  PAW double counting   =       156.01372664     -160.66969168
  entropy T*S    EENTRO =        -0.00000000
  eigenvalues    EBANDS =      -356.97573248
  atomic energy  EATOM  =       663.51739852
  Solvation  Ediel_sol  =         0.00000000
  ---------------------------------------------------
  free energy    TOTEN  =       -62.35980670 eV

  energy without entropy =      -62.35980670  energy(sigma->0) =      -62.35980670


--------------------------------------------------------------------------------------------------------




--------------------------------------- Iteration      1(   5)  ---------------------------------------


     EDDAV:  cpu time      0.4130: real time      0.4153
       DOS:  cpu time      0.0001: real time      0.0001
    CHARGE:  cpu time      0.2021: real time      0.2029
    MIXING:  cpu time      0.0127: real time      0.0127
    --------------------------------------------
      LOOP:  cpu time      0.6279: real time      0.6311

 eigenvalue-minimisations  :    64
 total energy-change (2. order) :-0.1836740E-01  (-0.1836182E-01)
 number of electron      22.0000000 magnetization 
 augmentation part        0.5587274 magnetization 

 Broyden mixing:
  rms(total) = 0.11261E+01    rms(broyden)= 0.11259E+01
  rms(prec ) = 0.13519E+01
  weight for this iteration     100.00

 Free energy of the ion-electron system (eV)
  ---------------------------------------------------
  alpha Z        PSCENC =         0.62641250
  Ewald energy   TEWEN  =       855.65058038
  -Hartree energ DENC   =     -1287.30857509
  -exchange      EXHF   =         0.00000000
  -V(xc)+E(xc)   XCENC  =        66.78607449
  PAW double counting   =       156.01372664     -160.66969168
  entropy T*S    EENTRO =        -0.00000000
  eigenvalues    EBANDS =      -356.99409988
  atomic energy  EATOM  =       663.51739852
  Solvation  Ediel_sol  =         0.00000000
  ---------------------------------------------------
  free energy    TOTEN  =       -62.37817410 eV

  energy without entropy =      -62.37817410  energy(sigma->0) =      -62.37817410


--------------------------------------------------------------------------------------------------------




--------------------------------------- Iteration      1(   6)  ---------------------------------------


    POTLOK:  cpu time      0.3086: real time      0.3103
    SETDIJ:  cpu time      0.1931: real time      0.1939
     EDDAV:  cpu time      0.4069: real time      0.4092
       DOS:  cpu time      0.0001: real time      0.0001
    CHARGE:  cpu time      0.2002: real time      0.2011
    MIXING:  cpu time      0.0078: real time      0.0079
    --------------------------------------------
      LOOP:  cpu time      1.1168: real time      1.1225

 eigenvalue-minimisations  :    64
 total energy-change (2. order) : 0.4653795E+01  (-0.6729886E+00)
 number of electron      22.0000000 magnetization 
 augmentation part        0.5127763 magnetization 

 Broyden mixing:
  rms(total) = 0.54532E+00    rms(broyden)= 0.54530E+00
  rms(prec ) = 0.64721E+00
  weight for this iteration     100.00

 eigenvalues of (default mixing * dielectric matrix)
  average eigenvalue GAMMA=   1.6219
  1.6219

 Free energy of the ion-electron system (eV)
  ---------------------------------------------------
  alpha Z        PSCENC =         0.62641250
  Ewald energy   TEWEN  =       855.65058038
  -Hartree energ DENC   =     -1331.23101977
  -exchange      EXHF   =         0.00000000
  -V(xc)+E(xc)   XCENC  =        69.09230954
  PAW double counting   =       223.46898721     -228.63282819
  entropy T*S    EENTRO =        -0.00000000
  eigenvalues    EBANDS =      -310.21621972
  atomic energy  EATOM  =       663.51739852
  Solvation  Ediel_sol  =         0.00000000
  ---------------------------------------------------
  free energy    TOTEN  =       -57.72437953 eV

  energy without entropy =      -57.72437953  energy(sigma->0) =      -57.72437953


--------------------------------------------------------------------------------------------------------




--------------------------------------- Iteration      1(   7)  ---------------------------------------


    POTLOK:  cpu time      0.3094: real time      0.3111
    SETDIJ:  cpu time      0.1930: real time      0.1938
     EDDAV:  cpu time      0.4153: real time      0.4176
       DOS:  cpu time      0.0001: real time      0.0001
    CHARGE:  cpu time      0.1938: real time      0.1946
    MIXING:  cpu time      0.0161: real time      0.0162
    --------------------------------------------
      LOOP:  cpu time      1.1278: real time      1.1334

 eigenvalue-minimisations  :    64
 total energy-change (2. order) : 0.1093752E+01  (-0.4010795E+00)
 number of electron      22.0000000 magnetization 
 augmentation part        0.4820930 magnetization 

 Broyden mixing:
  rms(total) = 0.22030E+00    rms(broyden)= 0.22024E+00
  rms(prec ) = 0.25249E+00
  weight for this iteration     100.00

 eigenvalues of (default mixing * dielectric matrix)
  average eigenvalue GAMMA=   1.7842
  1.7842  1.7842

 Free energy of the ion-electron system (eV)
  ---------------------------------------------------
  alpha Z        PSCENC =         0.62641250
  Ewald energy   TEWEN  =       855.65058038
  -Hartree energ DENC   =     -1367.01306210
  -exchange      EXHF   =         0.00000000
  -V(xc)+E(xc)   XCENC  =        71.15447586
  PAW double counting   =       279.29102933     -284.68928942
  entropy T*S    EENTRO =        -0.00000000
  eigenvalues    EBANDS =      -275.16817235
  atomic energy  EATOM  =       663.51739852
  Solvation  Ediel_sol  =         0.00000000
  ---------------------------------------------------
  free energy    TOTEN  =       -56.63062727 eV

  energy without entropy =      -56.63062727  energy(sigma->0) =      -56.63062727


--------------------------------------------------------------------------------------------------------




--------------------------------------- Iteration      1(   8)  ---------------------------------------


    POTLOK:  cpu time      0.3134: real time      0.3150
    SETDIJ:  cpu time      0.1921: real time      0.1929
     EDDAV:  cpu time      0.4470: real time      0.4495
       DOS:  cpu time      0.0001: real time      0.0001
    CHARGE:  cpu time      0.2008: real time      0.2016
    MIXING:  cpu time      0.0083: real time      0.0084
    --------------------------------------------
      LOOP:  cpu time      1.1618: real time      1.1675

 eigenvalue-minimisations  :    72
 total energy-change (2. order) : 0.1479071E+00  (-0.2342496E-01)
 number of electron      22.0000000 magnetization 
 augmentation part        0.4825949 magnetization 

 Broyden mixing:
  rms(total) = 0.58944E-01    rms(broyden)= 0.58938E-01
  rms(prec ) = 0.85745E-01
  weight for this iteration     100.00

 eigenvalues of (default mixing * dielectric matrix)
  average eigenvalue GAMMA=   1.6263
  2.4147  0.8741  1.5902

 Free energy of the ion-electron system (eV)
  ---------------------------------------------------
  alpha Z        PSCENC =         0.62641250
  Ewald energy   TEWEN  =       855.65058038
  -Hartree energ DENC   =     -1372.81931219
  -exchange      EXHF   =         0.00000000
  -V(xc)+E(xc)   XCENC  =        71.62363473
  PAW double counting   =       283.80340779     -289.08717599
  entropy T*S    EENTRO =        -0.00000000
  eigenvalues    EBANDS =      -269.79766589
  atomic energy  EATOM  =       663.51739852
  Solvation  Ediel_sol  =         0.00000000
  ---------------------------------------------------
  free energy    TOTEN  =       -56.48272016 eV

  energy without entropy =      -56.48272016  energy(sigma->0) =      -56.48272016


--------------------------------------------------------------------------------------------------------




--------------------------------------- Iteration      1(   9)  ---------------------------------------


    POTLOK:  cpu time      0.3131: real time      0.3147
    SETDIJ:  cpu time      0.1951: real time      0.1959
     EDDAV:  cpu time      0.3692: real time      0.3713
       DOS:  cpu time      0.0001: real time      0.0001
    CHARGE:  cpu time      0.1935: real time      0.1942
    MIXING:  cpu time      0.0161: real time      0.0161
    --------------------------------------------
      LOOP:  cpu time      1.0871: real time      1.0924

 eigenvalue-minimisations  :    56
 total energy-change (2. order) : 0.3257614E-01  (-0.5172331E-02)
 number of electron      22.0000000 magnetization 
 augmentation part        0.4806472 magnetization 

 Broyden mixing:
  rms(total) = 0.24804E-01    rms(broyden)= 0.24800E-01
  rms(prec ) = 0.47474E-01
  weight for this iteration     100.00

 eigenvalues of (default mixing * dielectric matrix)
  average eigenvalue GAMMA=   1.4331
  2.2980  1.5704  0.9321  0.9321

 Free energy of the ion-electron system (eV)
  ---------------------------------------------------
  alpha Z        PSCENC =         0.62641250
  Ewald energy   TEWEN  =       855.65058038
  -Hartree energ DENC   =     -1378.37678930
  -exchange      EXHF   =         0.00000000
  -V(xc)+E(xc)   XCENC  =        71.93279116
  PAW double counting   =       288.04088010     -293.30285586
  entropy T*S    EENTRO =        -0.00000000
  eigenvalues    EBANDS =      -264.53856152
  atomic energy  EATOM  =       663.51739852
  Solvation  Ediel_sol  =         0.00000000
  ---------------------------------------------------
  free energy    TOTEN  =       -56.45014402 eV

  energy without entropy =      -56.45014402  energy(sigma->0) =      -56.45014402


--------------------------------------------------------------------------------------------------------




--------------------------------------- Iteration      1(  10)  ---------------------------------------


    POTLOK:  cpu time      0.3157: real time      0.3174
    SETDIJ:  cpu time      0.1926: real time      0.1934
     EDDAV:  cpu time      0.4051: real time      0.4075
       DOS:  cpu time      0.0001: real time      0.0001
    CHARGE:  cpu time      0.1932: real time      0.1940
    MIXING:  cpu time      0.0165: real time      0.0165
    --------------------------------------------
      LOOP:  cpu time      1.1231: real time      1.1289

 eigenvalue-minimisations  :    64
 total energy-change (2. order) : 0.4832152E-02  (-0.1783800E-02)
 number of electron      22.0000000 magnetization 
 augmentation part        0.4788979 magnetization 

 Broyden mixing:
  rms(total) = 0.17330E-01    rms(broyden)= 0.17326E-01
  rms(prec ) = 0.34817E-01
  weight for this iteration     100.00

 eigenvalues of (default mixing * dielectric matrix)
  average eigenvalue GAMMA=   1.6270
  2.4173  2.4173  1.2099  1.0452  1.0452

 Free energy of the ion-electron system (eV)
  ---------------------------------------------------
  alpha Z        PSCENC =         0.62641250
  Ewald energy   TEWEN  =       855.65058038
  -Hartree energ DENC   =     -1380.84788860
  -exchange      EXHF   =         0.00000000
  -V(xc)+E(xc)   XCENC  =        71.98206346
  PAW double counting   =       287.98820848     -293.26257155
  entropy T*S    EENTRO =        -0.00000000
  eigenvalues    EBANDS =      -262.09951507
  atomic energy  EATOM  =       663.51739852
  Solvation  Ediel_sol  =         0.00000000
  ---------------------------------------------------
  free energy    TOTEN  =       -56.44531186 eV

  energy without entropy =      -56.44531186  energy(sigma->0) =      -56.44531186


--------------------------------------------------------------------------------------------------------




--------------------------------------- Iteration      1(  11)  ---------------------------------------


    POTLOK:  cpu time      0.3149: real time      0.3165
    SETDIJ:  cpu time      0.1939: real time      0.1947
     EDDAV:  cpu time      0.4053: real time      0.4076
       DOS:  cpu time      0.0001: real time      0.0001
    CHARGE:  cpu time      0.2009: real time      0.2017
    MIXING:  cpu time      0.0083: real time      0.0083
    --------------------------------------------
      LOOP:  cpu time      1.1234: real time      1.1290

 eigenvalue-minimisations  :    64
 total energy-change (2. order) : 0.9430731E-02  (-0.6236621E-03)
 number of electron      22.0000000 magnetization 
 augmentation part        0.4786464 magnetization 

 Broyden mixing:
  rms(total) = 0.70625E-02    rms(broyden)= 0.70623E-02
  rms(prec ) = 0.17369E-01
  weight for this iteration     100.00

 eigenvalues of (default mixing * dielectric matrix)
  average eigenvalue GAMMA=   1.7451
  3.3615  2.4949  1.4407  1.1103  1.0314  1.0314

 Free energy of the ion-electron system (eV)
  ---------------------------------------------------
  alpha Z        PSCENC =         0.62641250
  Ewald energy   TEWEN  =       855.65058038
  -Hartree energ DENC   =     -1384.79687513
  -exchange      EXHF   =         0.00000000
  -V(xc)+E(xc)   XCENC  =        72.08532425
  PAW double counting   =       286.51074944     -291.76949311
  entropy T*S    EENTRO =        -0.00000000
  eigenvalues    EBANDS =      -258.25997798
  atomic energy  EATOM  =       663.51739852
  Solvation  Ediel_sol  =         0.00000000
  ---------------------------------------------------
  free energy    TOTEN  =       -56.43588113 eV

  energy without entropy =      -56.43588113  energy(sigma->0) =      -56.43588113


--------------------------------------------------------------------------------------------------------




--------------------------------------- Iteration      1(  12)  ---------------------------------------


    POTLOK:  cpu time      0.3118: real time      0.3135
    SETDIJ:  cpu time      0.1919: real time      0.1928
     EDDAV:  cpu time      0.4448: real time      0.4473
       DOS:  cpu time      0.0001: real time      0.0001
    CHARGE:  cpu time      0.2004: real time      0.2012
    MIXING:  cpu time      0.0091: real time      0.0091
    --------------------------------------------
      LOOP:  cpu time      1.1582: real time      1.1640

 eigenvalue-minimisations  :    72
 total energy-change (2. order) :-0.3098464E-03  (-0.2545125E-03)
 number of electron      22.0000000 magnetization 
 augmentation part        0.4782456 magnetization 

 Broyden mixing:
  rms(total) = 0.56287E-02    rms(broyden)= 0.56284E-02
  rms(prec ) = 0.11073E-01
  weight for this iteration     100.00

 eigenvalues of (default mixing * dielectric matrix)
  average eigenvalue GAMMA=   1.8830
  4.2415  2.2455  2.2455  1.4572  1.0035  0.9940  0.9940

 Free energy of the ion-electron system (eV)
  ---------------------------------------------------
  alpha Z        PSCENC =         0.62641250
  Ewald energy   TEWEN  =       855.65058038
  -Hartree energ DENC   =     -1386.91965266
  -exchange      EXHF   =         0.00000000
  -V(xc)+E(xc)   XCENC  =        72.12322483
  PAW double counting   =       286.06659310     -291.32644786
  entropy T*S    EENTRO =        -0.00000000
  eigenvalues    EBANDS =      -256.17429979
  atomic energy  EATOM  =       663.51739852
  Solvation  Ediel_sol  =         0.00000000
  ---------------------------------------------------
  free energy    TOTEN  =       -56.43619098 eV

  energy without entropy =      -56.43619098  energy(sigma->0) =      -56.43619098


--------------------------------------------------------------------------------------------------------




--------------------------------------- Iteration      1(  13)  ---------------------------------------


    POTLOK:  cpu time      0.3099: real time      0.3116
    SETDIJ:  cpu time      0.1927: real time      0.1936
     EDDAV:  cpu time      0.4078: real time      0.4101
       DOS:  cpu time      0.0001: real time      0.0001
    CHARGE:  cpu time      0.1999: real time      0.2007
    MIXING:  cpu time      0.0117: real time      0.0118
    --------------------------------------------
      LOOP:  cpu time      1.1223: real time      1.1279

 eigenvalue-minimisations  :    64
 total energy-change (2. order) :-0.9331411E-02  (-0.1600435E-03)
 number of electron      22.0000000 magnetization 
 augmentation part        0.4782693 magnetization 

 Broyden mixing:
  rms(total) = 0.29630E-02    rms(broyden)= 0.29627E-02
  rms(prec ) = 0.62835E-02
  weight for this iteration     100.00

 eigenvalues of (default mixing * dielectric matrix)
  average eigenvalue GAMMA=   1.9738
  5.1270  2.7530  2.1778  1.4141  1.4141  0.9454  0.9795  0.9795

 Free energy of the ion-electron system (eV)
  ---------------------------------------------------
  alpha Z        PSCENC =         0.62641250
  Ewald energy   TEWEN  =       855.65058038
  -Hartree energ DENC   =     -1387.52371729
  -exchange      EXHF   =         0.00000000
  -V(xc)+E(xc)   XCENC  =        72.12213629
  PAW double counting   =       286.13556113     -291.39482355
  entropy T*S    EENTRO =        -0.00000000
  eigenvalues    EBANDS =      -255.57907037
  atomic energy  EATOM  =       663.51739852
  Solvation  Ediel_sol  =         0.00000000
  ---------------------------------------------------
  free energy    TOTEN  =       -56.44552239 eV

  energy without entropy =      -56.44552239  energy(sigma->0) =      -56.44552239


--------------------------------------------------------------------------------------------------------




--------------------------------------- Iteration      1(  14)  ---------------------------------------


    POTLOK:  cpu time      0.3092: real time      0.3109
    SETDIJ:  cpu time      0.1928: real time      0.1936
     EDDAV:  cpu time      0.4518: real time      0.4543
       DOS:  cpu time      0.0001: real time      0.0001
    CHARGE:  cpu time      0.2012: real time      0.2020
    MIXING:  cpu time      0.0088: real time      0.0088
    --------------------------------------------
      LOOP:  cpu time      1.1638: real time      1.1697

 eigenvalue-minimisations  :    72
 total energy-change (2. order) :-0.5194965E-02  (-0.6233521E-04)
 number of electron      22.0000000 magnetization 
 augmentation part        0.4781246 magnetization 

 Broyden mixing:
  rms(total) = 0.21282E-02    rms(broyden)= 0.21281E-02
  rms(prec ) = 0.39712E-02
  weight for this iteration     100.00

 eigenvalues of (default mixing * dielectric matrix)
  average eigenvalue GAMMA=   2.1419
  6.1019  3.3452  2.2186  2.2186  1.2833  1.2833  0.9675  0.9675  0.8912

 Free energy of the ion-electron system (eV)
  ---------------------------------------------------
  alpha Z        PSCENC =         0.62641250
  Ewald energy   TEWEN  =       855.65058038
  -Hartree energ DENC   =     -1387.88985537
  -exchange      EXHF   =         0.00000000
  -V(xc)+E(xc)   XCENC  =        72.11551473
  PAW double counting   =       286.11954264     -291.38031719
  entropy T*S    EENTRO =        -0.00000000
  eigenvalues    EBANDS =      -255.20999357
  atomic energy  EATOM  =       663.51739852
  Solvation  Ediel_sol  =         0.00000000
  ---------------------------------------------------
  free energy    TOTEN  =       -56.45071736 eV

  energy without entropy =      -56.45071736  energy(sigma->0) =      -56.45071736


--------------------------------------------------------------------------------------------------------




--------------------------------------- Iteration      1(  15)  ---------------------------------------


    POTLOK:  cpu time      0.3053: real time      0.3070
    SETDIJ:  cpu time      0.1920: real time      0.1929
     EDDAV:  cpu time      0.4074: real time      0.4097
       DOS:  cpu time      0.0002: real time      0.0002
    CHARGE:  cpu time      0.2000: real time      0.2009
    MIXING:  cpu time      0.0112: real time      0.0113
    --------------------------------------------
      LOOP:  cpu time      1.1163: real time      1.1220

 eigenvalue-minimisations  :    64
 total energy-change (2. order) :-0.4652986E-02  (-0.8476517E-04)
 number of electron      22.0000000 magnetization 
 augmentation part        0.4781977 magnetization 

 Broyden mixing:
  rms(total) = 0.13426E-02    rms(broyden)= 0.13424E-02
  rms(prec ) = 0.21211E-02
  weight for this iteration     100.00

 eigenvalues of (default mixing * dielectric matrix)
  average eigenvalue GAMMA=   2.1401
  6.4830  3.8789  2.4361  1.7549  1.5077  1.5077  0.9798  0.9798  0.9714  0.9015

 Free energy of the ion-electron system (eV)
  ---------------------------------------------------
  alpha Z        PSCENC =         0.62641250
  Ewald energy   TEWEN  =       855.65058038
  -Hartree energ DENC   =     -1387.83662058
  -exchange      EXHF   =         0.00000000
  -V(xc)+E(xc)   XCENC  =        72.10295375
  PAW double counting   =       286.10517454     -291.36397912
  entropy T*S    EENTRO =        -0.00000000
  eigenvalues    EBANDS =      -255.25729034
  atomic energy  EATOM  =       663.51739852
  Solvation  Ediel_sol  =         0.00000000
  ---------------------------------------------------
  free energy    TOTEN  =       -56.45537034 eV

  energy without entropy =      -56.45537034  energy(sigma->0) =      -56.45537034


--------------------------------------------------------------------------------------------------------




--------------------------------------- Iteration      1(  16)  ---------------------------------------


    POTLOK:  cpu time      0.3033: real time      0.3049
    SETDIJ:  cpu time      0.1927: real time      0.1935
     EDDAV:  cpu time      0.4870: real time      0.4897
       DOS:  cpu time      0.0001: real time      0.0001
    CHARGE:  cpu time      0.1989: real time      0.1996
    MIXING:  cpu time      0.0127: real time      0.0127
    --------------------------------------------
      LOOP:  cpu time      1.1945: real time      1.2005

 eigenvalue-minimisations  :    80
 total energy-change (2. order) :-0.8515258E-03  (-0.9027383E-05)
 number of electron      22.0000000 magnetization 
 augmentation part        0.4781404 magnetization 

 Broyden mixing:
  rms(total) = 0.94321E-03    rms(broyden)= 0.94311E-03
  rms(prec ) = 0.14110E-02
  weight for this iteration     100.00

 eigenvalues of (default mixing * dielectric matrix)
  average eigenvalue GAMMA=   2.2170
  7.5459  4.2493  2.4844  2.1304  1.5842  1.5842  1.0203  1.0203  0.9502  0.9087
  0.9087

 Free energy of the ion-electron system (eV)
  ---------------------------------------------------
  alpha Z        PSCENC =         0.62641250
  Ewald energy   TEWEN  =       855.65058038
  -Hartree energ DENC   =     -1387.92540766
  -exchange      EXHF   =         0.00000000
  -V(xc)+E(xc)   XCENC  =        72.10507827
  PAW double counting   =       286.16944314     -291.42856213
  entropy T*S    EENTRO =        -0.00000000
  eigenvalues    EBANDS =      -255.17116489
  atomic energy  EATOM  =       663.51739852
  Solvation  Ediel_sol  =         0.00000000
  ---------------------------------------------------
  free energy    TOTEN  =       -56.45622187 eV

  energy without entropy =      -56.45622187  energy(sigma->0) =      -56.45622187


--------------------------------------------------------------------------------------------------------




--------------------------------------- Iteration      1(  17)  ---------------------------------------


    POTLOK:  cpu time      0.3013: real time      0.3029
    SETDIJ:  cpu time      0.1916: real time      0.1924
     EDDAV:  cpu time      0.4084: real time      0.4107
       DOS:  cpu time      0.0001: real time      0.0001
    CHARGE:  cpu time      0.1968: real time      0.1975
    MIXING:  cpu time      0.0129: real time      0.0129
    --------------------------------------------
      LOOP:  cpu time      1.1110: real time      1.1165

 eigenvalue-minimisations  :    64
 total energy-change (2. order) :-0.7207418E-03  (-0.5746022E-05)
 number of electron      22.0000000 magnetization 
 augmentation part        0.4781256 magnetization 

 Broyden mixing:
  rms(total) = 0.41314E-03    rms(broyden)= 0.41302E-03
  rms(prec ) = 0.73203E-03
  weight for this iteration     100.00

 eigenvalues of (default mixing * dielectric matrix)
  average eigenvalue GAMMA=   2.2017
  7.7975  4.5502  2.6021  2.3569  1.5417  1.3662  1.3662  0.8974  1.0212  1.0212
  0.9500  0.9500

 Free energy of the ion-electron system (eV)
  ---------------------------------------------------
  alpha Z        PSCENC =         0.62641250
  Ewald energy   TEWEN  =       855.65058038
  -Hartree energ DENC   =     -1387.92859430
  -exchange      EXHF   =         0.00000000
  -V(xc)+E(xc)   XCENC  =        72.10324309
  PAW double counting   =       286.14610594     -291.40538064
  entropy T*S    EENTRO =        -0.00000000
  eigenvalues    EBANDS =      -255.16670810
  atomic energy  EATOM  =       663.51739852
  Solvation  Ediel_sol  =         0.00000000
  ---------------------------------------------------
  free energy    TOTEN  =       -56.45694261 eV

  energy without entropy =      -56.45694261  energy(sigma->0) =      -56.45694261


--------------------------------------------------------------------------------------------------------




--------------------------------------- Iteration      1(  18)  ---------------------------------------


    POTLOK:  cpu time      0.2991: real time      0.3007
    SETDIJ:  cpu time      0.1919: real time      0.1927
     EDDAV:  cpu time      0.4469: real time      0.4494
       DOS:  cpu time      0.0001: real time      0.0001
    CHARGE:  cpu time      0.1978: real time      0.1986
    MIXING:  cpu time      0.0136: real time      0.0137
    --------------------------------------------
      LOOP:  cpu time      1.1495: real time      1.1552

 eigenvalue-minimisations  :    72
 total energy-change (2. order) :-0.2830394E-03  (-0.1688999E-05)
 number of electron      22.0000000 magnetization 
 augmentation part        0.4780916 magnetization 

 Broyden mixing:
  rms(total) = 0.30971E-03    rms(broyden)= 0.30965E-03
  rms(prec ) = 0.50359E-03
  weight for this iteration     100.00

 eigenvalues of (default mixing * dielectric matrix)
  average eigenvalue GAMMA=   2.2778
  8.4379  4.9992  2.8902  2.5261  2.0221  1.4120  1.4120  1.0826  1.0826  0.9518
  0.9518  0.9704  0.8727

 Free energy of the ion-electron system (eV)
  ---------------------------------------------------
  alpha Z        PSCENC =         0.62641250
  Ewald energy   TEWEN  =       855.65058038
  -Hartree energ DENC   =     -1387.96103927
  -exchange      EXHF   =         0.00000000
  -V(xc)+E(xc)   XCENC  =        72.10393587
  PAW double counting   =       286.14508822     -291.40454366
  entropy T*S    EENTRO =        -0.00000000
  eigenvalues    EBANDS =      -255.13505820
  atomic energy  EATOM  =       663.51739852
  Solvation  Ediel_sol  =         0.00000000
  ---------------------------------------------------
  free energy    TOTEN  =       -56.45722565 eV

  energy without entropy =      -56.45722565  energy(sigma->0) =      -56.45722565


--------------------------------------------------------------------------------------------------------




--------------------------------------- Iteration      1(  19)  ---------------------------------------


    POTLOK:  cpu time      0.2980: real time      0.2997
    SETDIJ:  cpu time      0.1923: real time      0.1931
     EDDAV:  cpu time      0.3743: real time      0.3763
       DOS:  cpu time      0.0001: real time      0.0001
    CHARGE:  cpu time      0.1976: real time      0.1984
    MIXING:  cpu time      0.0124: real time      0.0124
    --------------------------------------------
      LOOP:  cpu time      1.0746: real time      1.0800

 eigenvalue-minimisations  :    56
 total energy-change (2. order) :-0.1839036E-03  (-0.9655781E-06)
 number of electron      22.0000000 magnetization 
 augmentation part        0.4781001 magnetization 

 Broyden mixing:
  rms(total) = 0.16630E-03    rms(broyden)= 0.16626E-03
  rms(prec ) = 0.26590E-03
  weight for this iteration     100.00

 eigenvalues of (default mixing * dielectric matrix)
  average eigenvalue GAMMA=   2.2731
  8.5039  5.3161  3.2780  2.4118  2.0321  1.5678  1.5678  1.1549  1.1549  0.9854
  0.9854  0.8838  0.9905  0.9905

 Free energy of the ion-electron system (eV)
  ---------------------------------------------------
  alpha Z        PSCENC =         0.62641250
  Ewald energy   TEWEN  =       855.65058038
  -Hartree energ DENC   =     -1387.95069564
  -exchange      EXHF   =         0.00000000
  -V(xc)+E(xc)   XCENC  =        72.10321216
  PAW double counting   =       286.12737519     -291.38678925
  entropy T*S    EENTRO =        -0.00000000
  eigenvalues    EBANDS =      -255.14490342
  atomic energy  EATOM  =       663.51739852
  Solvation  Ediel_sol  =         0.00000000
  ---------------------------------------------------
  free energy    TOTEN  =       -56.45740955 eV

  energy without entropy =      -56.45740955  energy(sigma->0) =      -56.45740955


--------------------------------------------------------------------------------------------------------




--------------------------------------- Iteration      1(  20)  ---------------------------------------


    POTLOK:  cpu time      0.2997: real time      0.3013
    SETDIJ:  cpu time      0.1909: real time      0.1917
     EDDAV:  cpu time      0.4081: real time      0.4103
       DOS:  cpu time      0.0001: real time      0.0001
    CHARGE:  cpu time      0.1968: real time      0.1976
    MIXING:  cpu time      0.0132: real time      0.0132
    --------------------------------------------
      LOOP:  cpu time      1.1089: real time      1.1143

 eigenvalue-minimisations  :    64
 total energy-change (2. order) :-0.6193558E-04  (-0.1670675E-06)
 number of electron      22.0000000 magnetization 
 augmentation part        0.4781024 magnetization 

 Broyden mixing:
  rms(total) = 0.69327E-04    rms(broyden)= 0.69232E-04
  rms(prec ) = 0.13635E-03
  weight for this iteration     100.00

 eigenvalues of (default mixing * dielectric matrix)
  average eigenvalue GAMMA=   2.3442
  8.8522  5.7005  3.8515  2.7293  2.3519  1.7744  1.5836  1.0830  1.0830  1.2323
  1.1584  0.9674  0.9674  0.9684  0.8595

 Free energy of the ion-electron system (eV)
  ---------------------------------------------------
  alpha Z        PSCENC =         0.62641250
  Ewald energy   TEWEN  =       855.65058038
  -Hartree energ DENC   =     -1387.95772654
  -exchange      EXHF   =         0.00000000
  -V(xc)+E(xc)   XCENC  =        72.10339483
  PAW double counting   =       286.12997187     -291.38932832
  entropy T*S    EENTRO =        -0.00000000
  eigenvalues    EBANDS =      -255.13817472
  atomic energy  EATOM  =       663.51739852
  Solvation  Ediel_sol  =         0.00000000
  ---------------------------------------------------
  free energy    TOTEN  =       -56.45747149 eV

  energy without entropy =      -56.45747149  energy(sigma->0) =      -56.45747149


--------------------------------------------------------------------------------------------------------




--------------------------------------- Iteration      1(  21)  ---------------------------------------


    POTLOK:  cpu time      0.3065: real time      0.3082
    SETDIJ:  cpu time      0.1919: real time      0.1927
     EDDAV:  cpu time      0.4086: real time      0.4108
       DOS:  cpu time      0.0001: real time      0.0001
    CHARGE:  cpu time      0.1960: real time      0.1968
    MIXING:  cpu time      0.0182: real time      0.0183
    --------------------------------------------
      LOOP:  cpu time      1.1213: real time      1.1269

 eigenvalue-minimisations  :    64
 total energy-change (2. order) :-0.3383373E-04  (-0.6529706E-07)
 number of electron      22.0000000 magnetization 
 augmentation part        0.4781049 magnetization 

 Broyden mixing:
  rms(total) = 0.58931E-04    rms(broyden)= 0.58822E-04
  rms(prec ) = 0.85962E-04
  weight for this iteration     100.00

 eigenvalues of (default mixing * dielectric matrix)
  average eigenvalue GAMMA=   2.3094
  8.8644  5.8091  4.0069  2.7391  2.4237  1.9376  1.4292  1.4292  1.2606  1.2606
  1.0243  1.0243  0.9730  0.9730  0.9284  0.8663

 Free energy of the ion-electron system (eV)
  ---------------------------------------------------
  alpha Z        PSCENC =         0.62641250
  Ewald energy   TEWEN  =       855.65058038
  -Hartree energ DENC   =     -1387.95621750
  -exchange      EXHF   =         0.00000000
  -V(xc)+E(xc)   XCENC  =        72.10313360
  PAW double counting   =       286.13091470     -291.39028507
  entropy T*S    EENTRO =        -0.00000000
  eigenvalues    EBANDS =      -255.13944246
  atomic energy  EATOM  =       663.51739852
  Solvation  Ediel_sol  =         0.00000000
  ---------------------------------------------------
  free energy    TOTEN  =       -56.45750532 eV

  energy without entropy =      -56.45750532  energy(sigma->0) =      -56.45750532


--------------------------------------------------------------------------------------------------------




--------------------------------------- Iteration      1(  22)  ---------------------------------------


    POTLOK:  cpu time      0.3149: real time      0.3166
    SETDIJ:  cpu time      0.1929: real time      0.1937
     EDDAV:  cpu time      0.4123: real time      0.4146
       DOS:  cpu time      0.0001: real time      0.0001
    CHARGE:  cpu time      0.1982: real time      0.1991
    MIXING:  cpu time      0.0149: real time      0.0149
    --------------------------------------------
      LOOP:  cpu time      1.1334: real time      1.1391

 eigenvalue-minimisations  :    64
 total energy-change (2. order) :-0.9144491E-05  (-0.1286586E-07)
 number of electron      22.0000000 magnetization 
 augmentation part        0.4781054 magnetization 

 Broyden mixing:
  rms(total) = 0.36906E-04    rms(broyden)= 0.36743E-04
  rms(prec ) = 0.52456E-04
  weight for this iteration     100.00

 eigenvalues of (default mixing * dielectric matrix)
  average eigenvalue GAMMA=   2.3759
  8.9803  6.2539  4.5220  3.1083  2.5508  2.0471  2.0471  1.4442  1.2802  1.2802
  1.0646  1.0646  0.9623  0.9623  1.0203  0.9362  0.8662

 Free energy of the ion-electron system (eV)
  ---------------------------------------------------
  alpha Z        PSCENC =         0.62641250
  Ewald energy   TEWEN  =       855.65058038
  -Hartree energ DENC   =     -1387.95787150
  -exchange      EXHF   =         0.00000000
  -V(xc)+E(xc)   XCENC  =        72.10315656
  PAW double counting   =       286.13099684     -291.39034571
  entropy T*S    EENTRO =        -0.00000000
  eigenvalues    EBANDS =      -255.13784206
  atomic energy  EATOM  =       663.51739852
  Solvation  Ediel_sol  =         0.00000000
  ---------------------------------------------------
  free energy    TOTEN  =       -56.45751447 eV

  energy without entropy =      -56.45751447  energy(sigma->0) =      -56.45751447


--------------------------------------------------------------------------------------------------------




--------------------------------------- Iteration      1(  23)  ---------------------------------------


    POTLOK:  cpu time      0.3111: real time      0.3128
    SETDIJ:  cpu time      0.1920: real time      0.1928
     EDDAV:  cpu time      0.4114: real time      0.4137
       DOS:  cpu time      0.0002: real time      0.0002
    CHARGE:  cpu time      0.1974: real time      0.1982
    MIXING:  cpu time      0.0146: real time      0.0146
    --------------------------------------------
      LOOP:  cpu time      1.1267: real time      1.1324

 eigenvalue-minimisations  :    64
 total energy-change (2. order) :-0.5117275E-05  (-0.9352963E-08)
 number of electron      22.0000000 magnetization 
 augmentation part        0.4781048 magnetization 

 Broyden mixing:
  rms(total) = 0.21888E-04    rms(broyden)= 0.21612E-04
  rms(prec ) = 0.29619E-04
  weight for this iteration     100.00

 eigenvalues of (default mixing * dielectric matrix)
  average eigenvalue GAMMA=   2.3600
  9.0891  6.4777  4.8050  3.2177  2.4412  2.4412  1.8470  1.4823  1.2767  1.2767
  1.2729  1.0313  1.0313  0.9665  0.9665  1.0478  0.9450  0.8635

 Free energy of the ion-electron system (eV)
  ---------------------------------------------------
  alpha Z        PSCENC =         0.62641250
  Ewald energy   TEWEN  =       855.65058038
  -Hartree energ DENC   =     -1387.95949938
  -exchange      EXHF   =         0.00000000
  -V(xc)+E(xc)   XCENC  =        72.10317686
  PAW double counting   =       286.13222747     -291.39159250
  entropy T*S    EENTRO =        -0.00000000
  eigenvalues    EBANDS =      -255.13622343
  atomic energy  EATOM  =       663.51739852
  Solvation  Ediel_sol  =         0.00000000
  ---------------------------------------------------
  free energy    TOTEN  =       -56.45751958 eV

  energy without entropy =      -56.45751958  energy(sigma->0) =      -56.45751958


--------------------------------------------------------------------------------------------------------




--------------------------------------- Iteration      1(  24)  ---------------------------------------


    POTLOK:  cpu time      0.3092: real time      0.3108
    SETDIJ:  cpu time      0.1917: real time      0.1925
     EDDAV:  cpu time      0.4126: real time      0.4150
       DOS:  cpu time      0.0001: real time      0.0001
    CHARGE:  cpu time      0.1977: real time      0.1985
    MIXING:  cpu time      0.0148: real time      0.0149
    --------------------------------------------
      LOOP:  cpu time      1.1261: real time      1.1318

 eigenvalue-minimisations  :    64
 total energy-change (2. order) :-0.1236798E-05  (-0.2183985E-08)
 number of electron      22.0000000 magnetization 
 augmentation part        0.4781044 magnetization 

 Broyden mixing:
  rms(total) = 0.10126E-04    rms(broyden)= 0.95217E-05
  rms(prec ) = 0.15447E-04
  weight for this iteration     100.00

 eigenvalues of (default mixing * dielectric matrix)
  average eigenvalue GAMMA=   2.4057
  9.1105  6.8016  5.0522  3.6102  2.7241  2.3888  2.0095  2.0095  1.3271  1.3271
  1.3956  1.0527  1.0527  0.9663  0.9663  1.0565  1.0565  0.9372  0.8646

 Free energy of the ion-electron system (eV)
  ---------------------------------------------------
  alpha Z        PSCENC =         0.62641250
  Ewald energy   TEWEN  =       855.65058038
  -Hartree energ DENC   =     -1387.95973934
  -exchange      EXHF   =         0.00000000
  -V(xc)+E(xc)   XCENC  =        72.10316759
  PAW double counting   =       286.13182445     -291.39119702
  entropy T*S    EENTRO =        -0.00000000
  eigenvalues    EBANDS =      -255.13596791
  atomic energy  EATOM  =       663.51739852
  Solvation  Ediel_sol  =         0.00000000
  ---------------------------------------------------
  free energy    TOTEN  =       -56.45752082 eV

  energy without entropy =      -56.45752082  energy(sigma->0) =      -56.45752082


--------------------------------------------------------------------------------------------------------




--------------------------------------- Iteration      1(  25)  ---------------------------------------


    POTLOK:  cpu time      0.3169: real time      0.3186
    SETDIJ:  cpu time      0.1924: real time      0.1932
     EDDAV:  cpu time      0.4129: real time      0.4152
       DOS:  cpu time      0.0001: real time      0.0001
    CHARGE:  cpu time      0.2008: real time      0.2016
    MIXING:  cpu time      0.0143: real time      0.0144
    --------------------------------------------
      LOOP:  cpu time      1.1374: real time      1.1430

 eigenvalue-minimisations  :    64
 total energy-change (2. order) :-0.1138299E-05  (-0.2938076E-08)
 number of electron      22.0000000 magnetization 
 augmentation part        0.4781043 magnetization 

 Broyden mixing:
  rms(total) = 0.87587E-05    rms(broyden)= 0.80519E-05
  rms(prec ) = 0.11177E-04
  weight for this iteration     100.00

 eigenvalues of (default mixing * dielectric matrix)
  average eigenvalue GAMMA=   2.3837
  9.1394  6.9559  5.1842  3.8497  2.8083  2.4727  2.2691  1.8882  1.2946  1.2946
  1.4449  1.2123  1.0407  1.0407  0.9664  0.9664  1.0875  0.8622  0.9480  0.9480

 Free energy of the ion-electron system (eV)
  ---------------------------------------------------
  alpha Z        PSCENC =         0.62641250
  Ewald energy   TEWEN  =       855.65058038
  -Hartree energ DENC   =     -1387.96005901
  -exchange      EXHF   =         0.00000000
  -V(xc)+E(xc)   XCENC  =        72.10317973
  PAW double counting   =       286.13174233     -291.39111475
  entropy T*S    EENTRO =        -0.00000000
  eigenvalues    EBANDS =      -255.13566166
  atomic energy  EATOM  =       663.51739852
  Solvation  Ediel_sol  =         0.00000000
  ---------------------------------------------------
  free energy    TOTEN  =       -56.45752196 eV

  energy without entropy =      -56.45752196  energy(sigma->0) =      -56.45752196


--------------------------------------------------------------------------------------------------------




--------------------------------------- Iteration      1(  26)  ---------------------------------------


    POTLOK:  cpu time      0.3171: real time      0.3188
    SETDIJ:  cpu time      0.1917: real time      0.1925
     EDDAV:  cpu time      0.4125: real time      0.4148
       DOS:  cpu time      0.0001: real time      0.0001
    --------------------------------------------
      LOOP:  cpu time      0.9215: real time      0.9262

 eigenvalue-minimisations  :    64
 total energy-change (2. order) :-0.3010038E-06  (-0.4465885E-09)
 number of electron      22.0000000 magnetization 
 augmentation part        0.4781043 magnetization 

 Free energy of the ion-electron system (eV)
  ---------------------------------------------------
  alpha Z        PSCENC =         0.62641250
  Ewald energy   TEWEN  =       855.65058038
  -Hartree energ DENC   =     -1387.96000563
  -exchange      EXHF   =         0.00000000
  -V(xc)+E(xc)   XCENC  =        72.10317690
  PAW double counting   =       286.13160538     -291.39097635
  entropy T*S    EENTRO =        -0.00000000
  eigenvalues    EBANDS =      -255.13571397
  atomic energy  EATOM  =       663.51739852
  Solvation  Ediel_sol  =         0.00000000
  ---------------------------------------------------
  free energy    TOTEN  =       -56.45752226 eV

  energy without entropy =      -56.45752226  energy(sigma->0) =      -56.45752226


--------------------------------------------------------------------------------------------------------




 average (electrostatic) potential at core
  the test charge radii are     0.6991  0.5201
  (the norm of the test charge is              1.0000)
       1 -58.6701       2 -58.9306       3 -59.0334       4 -58.7259       5 -42.1411
       6 -41.5102       7 -41.5701       8 -41.9004       9 -41.7095      10 -42.2104
 
 
 
 E-fermi :  -5.4490     XC(G=0):  -0.4464     alpha+bet : -0.1681

 Fermi energy:        -5.4490044201

 k-point     1 :       0.0000    0.0000    0.0000
  band No.  band energies     occupation 
      1     -19.6275      2.00000
      2     -17.7035      2.00000
      3     -15.1226      2.00000
      4     -12.6485      2.00000
      5     -11.7476      2.00000
      6     -10.3139      2.00000
      7     -10.2789      2.00000
      8      -8.6557      2.00000
      9      -8.3149      2.00000
     10      -7.4308      2.00000
     11      -5.7240      2.00000
     12      -2.1097      0.00000
     13      -0.4412      0.00000
     14      -0.0080      0.00000
     15       0.1497      0.00000
     16       0.2277      0.00000
     17       0.3850      0.00000
     18       0.4501      0.00000
     19       0.5380      0.00000
     20       0.6962      0.00000
     21       0.8609      0.00000
     22       0.9202      0.00000
     23       1.0045      0.00000
     24       1.1145      0.00000


--------------------------------------------------------------------------------------------------------


 soft charge-density along one line, spin component           1
         0         1         2         3         4         5         6         7         8         9
 total charge-density along one line
 
 pseudopotential strength for first ion, spin component:           1
 10.257   0.020  -0.002  -0.001   0.000  -0.003  -0.001   0.002
  0.020  -0.001   0.000   0.000  -0.000  -0.000  -0.000   0.000
 -0.002   0.000  -4.370  -0.005   0.008  -0.016  -0.001   0.002
 -0.001   0.000  -0.005  -4.375   0.003  -0.001  -0.017   0.001
  0.000  -0.000   0.008   0.003  -4.359   0.002   0.001  -0.013
 -0.003  -0.000  -0.016  -0.001   0.002  -0.773  -0.000   0.000
 -0.001  -0.000  -0.001  -0.017   0.001  -0.000  -0.773   0.000
  0.002   0.000   0.002   0.001  -0.013   0.000   0.000  -0.772
 total augmentation occupancy for first ion, spin component:           1
  1.485  -1.058   0.060   0.013  -0.023   0.028   0.014  -0.018
 -1.058   0.852  -0.110  -0.068   0.084  -0.045  -0.030   0.028
  0.060  -0.110   1.116   0.058  -0.121   0.177   0.018  -0.048
  0.013  -0.068   0.058   1.211  -0.035   0.018   0.207  -0.011
 -0.023   0.084  -0.121  -0.035   0.969  -0.048  -0.011   0.112
  0.028  -0.045   0.177   0.018  -0.048   0.031   0.005  -0.012
  0.014  -0.030   0.018   0.207  -0.011   0.005   0.037  -0.003
 -0.018   0.028  -0.048  -0.011   0.112  -0.012  -0.003   0.015


------------------------ aborting loop because EDIFF is reached ----------------------------------------


    CHARGE:  cpu time      0.1994: real time      0.2002
    FORLOC:  cpu time      0.0326: real time      0.0328
    FORNL :  cpu time      1.0670: real time      1.0722
    STRESS:  cpu time      3.3883: real time      3.4041
    FORHAR:  cpu time      0.1121: real time      0.1126
    MIXING:  cpu time      0.0126: real time      0.0126
    OFIELD:  cpu time      0.0001: real time      0.0001

  FORCE on cell =-STRESS in cart. coord.  units (eV):
  Direction    XX          YY          ZZ          XY          YZ          ZX
  --------------------------------------------------------------------------------------
  Alpha Z     0.62641     0.62641     0.62641
  Ewald    -142.01589   323.03640   674.62974   -65.90226   -16.90595  -113.37432
  Hartree   224.76909   449.22800   713.96296   -29.26755   -17.33929   -79.38989
  E(xc)     -76.97034   -75.23230   -74.91836    -0.26705    -0.03607    -0.11728
  Local    -302.70782  -964.07942 -1574.44564    90.30374    36.09033   192.05036
  n-local   -27.63257   -29.94139   -29.51348     0.32869    -0.27972    -0.04028
  augment    -0.49741    -0.61224    -0.64516     0.02356    -0.01615     0.00011
  Kinetic   323.65825   290.11345   286.16334     4.89872     2.35546     0.76170
  Fock        0.00000     0.00000     0.00000     0.00000     0.00000     0.00000
  -------------------------------------------------------------------------------------
  Total      -0.77028    -6.86110    -4.14019     0.11786     3.86860    -0.10960
  in kB      -0.36567    -3.25710    -1.96543     0.05595     1.83650    -0.05203
  external pressure =       -1.86 kB  Pullay stress =        0.00 kB


 VOLUME and BASIS-vectors are now :
 -----------------------------------------------------------------------------
  energy-cutoff  :      520.00
  volume of cell :     3375.00
      direct lattice vectors                 reciprocal lattice vectors
    15.000000000  0.000000000  0.000000000     0.066666667  0.000000000  0.000000000
     0.000000000 15.000000000  0.000000000     0.000000000  0.066666667  0.000000000
     0.000000000  0.000000000 15.000000000     0.000000000  0.000000000  0.066666667

  length of vectors
    15.000000000 15.000000000 15.000000000     0.066666667  0.066666667  0.066666667


 FORCES acting on ions
    electron-ion (+dipol)            ewald-force                    non-local-force                 convergence-correction
 -----------------------------------------------------------------------------------------------
   -.551E+02 0.813E+02 0.112E+03   0.565E+02 -.830E+02 -.112E+03   -.771E+00 -.240E+00 0.119E+01   0.110E-05 -.640E-05 0.146E-04
   0.346E+02 -.817E+02 0.410E+02   -.355E+02 0.824E+02 -.415E+02   0.423E+00 0.117E+01 0.449E+00   -.152E-04 0.333E-04 0.868E-04
   -.594E+01 -.802E+02 -.562E+02   0.645E+01 0.788E+02 0.582E+02   -.121E+01 -.739E+00 -.657E-01   0.447E-05 0.160E-04 0.117E-04
   0.314E+02 0.775E+02 -.103E+03   -.318E+02 -.768E+02 0.101E+03   0.138E+01 0.921E+00 -.193E+01   0.239E-04 0.436E-04 -.510E-04
   -.293E+00 -.603E+00 0.673E+02   0.129E-01 0.125E+01 -.732E+02   0.500E+00 -.827E+00 0.577E+01   -.166E-05 0.953E-06 -.988E-05
   -.296E+02 0.537E+02 -.307E+01   0.308E+02 -.561E+02 0.396E+01   -.192E+01 0.390E+01 -.181E+01   0.285E-05 -.838E-05 0.661E-05
   0.208E+02 -.568E+02 0.315E+02   -.219E+02 0.596E+02 -.328E+02   0.144E+01 -.404E+01 0.221E+01   -.126E-05 0.467E-05 0.479E-05
   -.531E+01 -.612E+02 -.320E+02   0.576E+01 0.654E+02 0.341E+02   -.435E+00 -.485E+01 -.233E+01   -.126E-05 -.215E-04 -.134E-04
   0.119E+02 0.605E+02 0.750E+01   -.125E+02 -.644E+02 -.946E+01   0.631E+00 0.466E+01 0.242E+01   0.348E-05 0.790E-05 -.114E-05
   -.192E+01 0.745E+01 -.657E+02   0.226E+01 -.722E+01 0.718E+02   -.501E+00 0.902E-01 -.588E+01   0.282E-05 0.180E-05 -.911E-05
 -----------------------------------------------------------------------------------------------
   0.472E+00 -.460E-01 -.235E-01   0.222E-14 -.195E-13 0.426E-13   -.463E+00 0.423E-01 0.192E-01   0.193E-04 0.720E-04 0.400E-04
 
 
 POSITION                                       TOTAL-FORCE (eV/Angst)
 -----------------------------------------------------------------------------------
      7.94500      7.17300      5.94100         0.584831     -1.884158      1.106264
      7.43800      8.09200      6.76800        -0.473459      1.799676     -0.051777
      7.39200      8.10500      8.24400        -0.701915     -2.109971      1.977088
      7.14200      6.97700      9.08500         0.967817      1.659020     -3.245051
      7.86100      7.31900      4.87000         0.219875     -0.181678     -0.185621
      8.41700      6.20100      6.37500        -0.744533      1.549752     -0.924465
      7.08500      9.06500      6.25600         0.307942     -1.264169      0.840049
      7.48400      9.11100      8.71700         0.008118     -0.636242     -0.213146
      7.00800      5.98500      8.58000        -0.010802      0.743123      0.470816
      7.22700      6.97300     10.16300        -0.157874      0.324647      0.225843
 -----------------------------------------------------------------------------------
    total drift:                                0.008617     -0.003604     -0.004283


--------------------------------------------------------------------------------------------------------



  FREE ENERGIE OF THE ION-ELECTRON SYSTEM (eV)
  ---------------------------------------------------
  free  energy   TOTEN  =       -56.45752226 eV

  energy  without entropy=      -56.45752226  energy(sigma->0) =      -56.45752226
 


--------------------------------------------------------------------------------------------------------


    POTLOK:  cpu time      0.5155: real time      0.5180


--------------------------------------------------------------------------------------------------------


 stress matrix after NEB project (eV)
     -0.77028      0.11786     -0.10960
      0.11786     -6.86110      3.86860
     -0.10960      3.86860     -4.14019
  FORCES: max atom, RMS     3.770859    1.984572
  FORCE total and by dimension    6.275769    3.245051
  Stress total and by dimension    9.736179    6.861099
     LOOP+:  cpu time     31.9894: real time     32.1497
    4ORBIT:  cpu time      0.0000: real time      0.0000

 total amount of memory used by VASP MPI-rank0   224781. kBytes
=======================================================================

   base      :      30000. kBytes
   nonlr-proj:       1257. kBytes
   fftplans  :     123538. kBytes
   grid      :      67787. kBytes
   one-center:         15. kBytes
   wavefun   :       2184. kBytes
 
  
  
 General timing and accounting informations for this job:
 ========================================================
  
                  Total CPU time used (sec):       38.604
                            User time (sec):       35.304
                          System time (sec):        3.300
                         Elapsed time (sec):       40.019
  
                   Maximum memory used (kb):      560440.
                   Average memory used (kb):          N/A
  
                          Minor page faults:       171862
                          Major page faults:         5436
                 Voluntary context switches:         3125
