 vasp.6.4.2 20Jul23 (build Apr 10 2024 13:39:58) complex                        
  
 executed on             LinuxIFC date 2024.05.17  15:24:35
 running   16 mpi-ranks, on    1 nodes
 distrk:  each k-point on   16 cores,    1 groups
 distr:  one band on NCORE=   2 cores,    8 groups


--------------------------------------------------------------------------------------------------------


 INCAR:
   ISTART = 0
   ISPIN = 1
   LREAL = Auto
   ENCUT = 520
   NPAR = 8
   LPLANE = .TRUE.
   LSCALU = .FALSE.
   NSIM = 4
   LWAVE = .FALSE.
   LCHARG = .FALSE.
   ADDGRID = .TRUE.
   LASPH = .TRUE.
   PREC = Accurate
   ISMEAR = 0
   SIGMA = 0.05
   EDIFF = 1E-06
   NSW = 0
   TEBEG = 300
   TEEND = 700     	
   ISYM = 0
   NWRITE = 2

 POTCAR:   PAW_PBE C 08Apr2002                    
 POTCAR:   PAW_PBE H 15Jun2001                    
 POTCAR:   PAW_PBE C 08Apr2002                    
   VRHFIN =C: s2p2                                                                                  
   LEXCH  = PE                                                                                      
   EATOM  =   147.1560 eV,   10.8157 Ry                                                             
                                                                                                    
   TITEL  = PAW_PBE C 08Apr2002                                                                     
   LULTRA =        F    use ultrasoft PP ?                                                          
   IUNSCR =        0    unscreen: 0-lin 1-nonlin 2-no                                               
   RPACOR =     .000    partial core radius                                                         
   POMASS =   12.011; ZVAL   =    4.000    mass and valenz                                          
   RCORE  =    1.500    outmost cutoff radius                                                       
   RWIGS  =    1.630; RWIGS  =     .863    wigner-seitz radius (au A)                               
   ENMAX  =  400.000; ENMIN  =  300.000 eV                                                          
   ICORE  =        2    local potential                                                             
   LCOR   =        T    correct aug charges                                                         
   LPAW   =        T    paw PP                                                                      
   EAUG   =  644.873                                                                                
   DEXC   =     .000                                                                                
   RMAX   =    2.266    core radius for proj-oper                                                   
   RAUG   =    1.300    factor for augmentation sphere                                              
   RDEP   =    1.501    radius for radial grids                                                     
   RDEPT  =    1.300    core radius for aug-charge                                                  
   QCUT   =   -5.516; QGAM   =   11.032    optimization parameters                                  
                                                                                                    
   Description                                                                                      
     l     E      TYP  RCUT    TYP  RCUT                                                            
     0   .000     23  1.200                                                                         
     0   .000     23  1.200                                                                         
     1   .000     23  1.500                                                                         
     1  2.500     23  1.500                                                                         
     2   .000      7  1.500                                                                         
  local pseudopotential read in
  atomic valenz-charges read in
  non local Contribution for L=           0  read in
    real space projection operators read in
  non local Contribution for L=           0  read in
    real space projection operators read in
  non local Contribution for L=           1  read in
    real space projection operators read in
  non local Contribution for L=           1  read in
    real space projection operators read in
    PAW grid and wavefunctions read in
 
   number of l-projection  operators is LMAX  =           4
   number of lm-projection operators is LMMAX =           8
 
 POTCAR:   PAW_PBE H 15Jun2001                    
   VRHFIN =H: ultrasoft test                                                                        
   LEXCH  = PE                                                                                      
   EATOM  =    12.4884 eV,     .9179 Ry                                                             
                                                                                                    
   TITEL  = PAW_PBE H 15Jun2001                                                                     
   LULTRA =        F    use ultrasoft PP ?                                                          
   IUNSCR =        0    unscreen: 0-lin 1-nonlin 2-no                                               
   RPACOR =     .000    partial core radius                                                         
   POMASS =    1.000; ZVAL   =    1.000    mass and valenz                                          
   RCORE  =    1.100    outmost cutoff radius                                                       
   RWIGS  =     .700; RWIGS  =     .370    wigner-seitz radius (au A)                               
   ENMAX  =  250.000; ENMIN  =  200.000 eV                                                          
   RCLOC  =     .701    cutoff for local pot                                                        
   LCOR   =        T    correct aug charges                                                         
   LPAW   =        T    paw PP                                                                      
   EAUG   =  400.000                                                                                
   RMAX   =    2.174    core radius for proj-oper                                                   
   RAUG   =    1.200    factor for augmentation sphere                                              
   RDEP   =    1.112    radius for radial grids                                                     
   QCUT   =   -5.749; QGAM   =   11.498    optimization parameters                                  
                                                                                                    
   Description                                                                                      
     l     E      TYP  RCUT    TYP  RCUT                                                            
     0   .000     23  1.100                                                                         
     0   .500     23  1.100                                                                         
     1  -.300     23  1.100                                                                         
  local pseudopotential read in
  atomic valenz-charges read in
  non local Contribution for L=           0  read in
    real space projection operators read in
  non local Contribution for L=           0  read in
    real space projection operators read in
  non local Contribution for L=           1  read in
    real space projection operators read in
    PAW grid and wavefunctions read in
 
   number of l-projection  operators is LMAX  =           3
   number of lm-projection operators is LMMAX =           5
 
 Optimization of the real space projectors (new method)

 maximal supplied QI-value         = 25.13
 optimisation between [QCUT,QGAM] = [ 11.56, 23.12] = [ 37.43,149.72] Ry 
 Optimized for a Real-space Cutoff    1.04 Angstroem

   l    n(q)    QCUT    max X(q) W(low)/X(q) W(high)/X(q)  e(spline) 
   0      7    11.561     5.582    0.47E-04    0.94E-04    0.17E-07
   0      7    11.561    69.432    0.20E-03    0.59E-03    0.21E-06
   1      7    11.561     2.780    0.24E-04    0.70E-04    0.44E-07
   1      7    11.561     4.549    0.18E-03    0.25E-03    0.12E-06
 Optimization of the real space projectors (new method)

 maximal supplied QI-value         = 34.20
 optimisation between [QCUT,QGAM] = [ 11.63, 23.26] = [ 37.87,151.49] Ry 
 Optimized for a Real-space Cutoff    1.21 Angstroem

   l    n(q)    QCUT    max X(q) W(low)/X(q) W(high)/X(q)  e(spline) 
   0      8    11.629     4.436    0.19E-04    0.32E-04    0.47E-07
   0      8    11.629    16.131    0.16E-03    0.33E-03    0.21E-06
   1      8    11.629     4.654    0.18E-03    0.16E-03    0.26E-06
 PAW_PBE C 08Apr2002                    :
 energy of atom  1       EATOM= -147.1560
 kinetic energy error for atom=    0.0071 (will be added to EATOM!!)
 PAW_PBE H 15Jun2001                    :
 energy of atom  2       EATOM=  -12.4884
 kinetic energy error for atom=    0.0014 (will be added to EATOM!!)
 
 
 POSCAR:  C  H
  positions in cartesian coordinates
  No initial velocities read in
 exchange correlation table for  LEXCH =        8
   RHO(1)=    0.500       N(1)  =     2000
   RHO(2)=  100.500       N(2)  =     4000

 VTST: version 4.1, (05/19/21)

 CHAIN: initializing optimizer
 
 OPT: Using VASP Dynamics algorithm
 CHAIN: Read ICHAIN            0
 
 POSCAR:  C  H
  positions in cartesian coordinates
  No initial velocities read in
 


--------------------------------------------------------------------------------------------------------


 ion  position               nearest neighbor table
   1  0.537  0.480  0.393-   6 1.10   5 1.13   2 1.37
   2  0.489  0.532  0.451-   7 1.12   1 1.37   3 1.43
   3  0.491  0.533  0.547-   8 1.10   4 1.38   2 1.43
   4  0.479  0.466  0.608-  10 1.06   9 1.12   3 1.38
   5  0.536  0.501  0.320-   1 1.13
   6  0.581  0.427  0.418-   1 1.10
   7  0.447  0.587  0.424-   2 1.12
   8  0.492  0.600  0.577-   3 1.10
   9  0.471  0.396  0.583-   4 1.12
  10  0.477  0.477  0.678-   4 1.06
 

IMPORTANT INFORMATION: All symmetrisations will be switched off!
NOSYMM: (Re-)initialisation of all symmetry stuff for point group C_1.


----------------------------------------------------------------------------------------

                                     Primitive cell                                     

  volume of cell :    3375.0000

  direct lattice vectors                    reciprocal lattice vectors
    15.000000000  0.000000000  0.000000000     0.066666667  0.000000000  0.000000000
     0.000000000 15.000000000  0.000000000     0.000000000  0.066666667  0.000000000
     0.000000000  0.000000000 15.000000000     0.000000000  0.000000000  0.066666667

  length of vectors
    15.000000000 15.000000000 15.000000000     0.066666667  0.066666667  0.066666667

  position of ions in fractional coordinates (direct lattice)
     0.536866697  0.479733340  0.392666658
     0.489400005  0.531933339  0.451066653
     0.490533320  0.533333333  0.546666654
     0.479399999  0.466133340  0.608400027
     0.536200015  0.500999991  0.320199998
     0.580799993  0.427066676  0.418400002
     0.447333336  0.587133344  0.423933347
     0.491533343  0.600200017  0.576800028
     0.470933342  0.396466668  0.583466657
     0.477066676  0.476933320  0.678399976

  ion indices of the primitive-cell ions
   primitive index   ion index
                 1           1
                 2           2
                 3           3
                 4           4
                 5           5
                 6           6
                 7           7
                 8           8
                 9           9
                10          10

----------------------------------------------------------------------------------------

 
 
 KPOINTS: K-Spacing Value to Generate K-Mesh: 1.00

Automatic generation of k-mesh.
 Grid dimensions read from file:
 generate k-points for:    1    1    1

 Generating k-lattice:

  Cartesian coordinates                     Fractional coordinates (reciprocal lattice)
     0.066666667  0.000000000  0.000000000     1.000000000  0.000000000  0.000000000
     0.000000000  0.066666667  0.000000000     0.000000000  1.000000000  0.000000000
     0.000000000  0.000000000  0.066666667     0.000000000  0.000000000  1.000000000

  Length of vectors
     0.066666667  0.066666667  0.066666667

  Shift w.r.t. Gamma in fractional coordinates (k-lattice)
     0.000000000  0.000000000  0.000000000

 
 Subroutine IBZKPT returns following result:
 ===========================================
 
 Found      1 irreducible k-points:
 
 Following reciprocal coordinates:
            Coordinates               Weight
  0.000000  0.000000  0.000000      1.000000
 
 Following cartesian coordinates:
            Coordinates               Weight
  0.000000  0.000000  0.000000      1.000000
 


--------------------------------------------------------------------------------------------------------




 Dimension of arrays:
   k-points           NKPTS =      1   k-points in BZ     NKDIM =      1   number of bands    NBANDS=     24
   number of dos      NEDOS =    301   number of ions     NIONS =     10
   non local maximal  LDIM  =      4   non local SUM 2l+1 LMDIM =      8
   total plane-waves  NPLWV = ******
   max r-space proj   IRMAX =   3145   max aug-charges    IRDMAX=  39494
   dimension x,y,z NGX =   112 NGY =  112 NGZ =  112
   dimension x,y,z NGXF=   224 NGYF=  224 NGZF=  224
   support grid    NGXF=   448 NGYF=  448 NGZF=  448
   ions per type =               4   6
   NGX,Y,Z   is equivalent  to a cutoff of  12.41, 12.41, 12.41 a.u.
   NGXF,Y,Z  is equivalent  to a cutoff of  24.83, 24.83, 24.83 a.u.

 SYSTEM =  unknown system                          
 POSCAR =   C  H                                   

 Startparameter for this run:
   NWRITE =      2    write-flag & timer
   PREC   = accura    normal or accurate (medium, high low for compatibility)
   ISTART =      0    job   : 0-new  1-cont  2-samecut
   ICHARG =      2    charge: 1-file 2-atom 10-const
   ISPIN  =      1    spin polarized calculation?
   LNONCOLLINEAR =      F non collinear calculations
   LSORBIT =      F    spin-orbit coupling
   INIWAV =      1    electr: 0-lowe 1-rand  2-diag
   LASPH  =      T    aspherical Exc in radial PAW
 Electronic Relaxation 1
   ENCUT  =  520.0 eV  38.22 Ry    6.18 a.u.  27.89 27.89 27.89*2*pi/ulx,y,z
   ENINI  =  520.0     initial cutoff
   ENAUG  =  644.9 eV  augmentation charge cutoff
   NELM   =     60;   NELMIN=  2; NELMDL= -5     # of ELM steps 
   EDIFF  = 0.1E-05   stopping-criterion for ELM
   LREAL  =      T    real-space projection
   NLSPLINE    = F    spline interpolate recip. space projectors
   LCOMPAT=      F    compatible to vasp.4.4
   GGA_COMPAT  = T    GGA compatible to vasp.4.4-vasp.4.6
   LMAXPAW     = -100 max onsite density
   LMAXMIX     =    2 max onsite mixed and CHGCAR
   VOSKOWN=      0    Vosko Wilk Nusair interpolation
   ROPT   =   -0.00025  -0.00025
 Ionic relaxation
   EDIFFG = 0.1E-04   stopping-criterion for IOM
   NSW    =      0    number of steps for IOM
   NBLOCK =      1;   KBLOCK =      1    inner block; outer block 
   IBRION =     -1    ionic relax: 0-MD 1-quasi-New 2-CG
   NFREE  =      0    steps in history (QN), initial steepest desc. (CG)
   ISIF   =      2    stress and relaxation
   IWAVPR =     10    prediction:  0-non 1-charg 2-wave 3-comb
   ISYM   =      0    0-nonsym 1-usesym 2-fastsym
   LCORR  =      T    Harris-Foulkes like correction to forces

   POTIM  = 0.5000    time-step for ionic-motion
   TEIN   =    0.0    initial temperature
   TEBEG  =  300.0;   TEEND  = 700.0 temperature during run
   SMASS  =  -3.00    Nose mass-parameter (am)
   estimated Nose-frequenzy (Omega)   =  0.10E-29 period in steps = 0.13E+47 mass=  -0.514E-26a.u.
   SCALEE = 1.0000    scale energy and forces
   NPACO  =    256;   APACO  = 10.0  distance and # of slots for P.C.
   PSTRESS=    0.0 pullay stress

  Mass of Ions in am
   POMASS =  12.01  1.00
  Ionic Valenz
   ZVAL   =   4.00  1.00
  Atomic Wigner-Seitz radii
   RWIGS  =  -1.00 -1.00
  virtual crystal weights 
   VCA    =   1.00  1.00
   NELECT =      22.0000    total number of electrons
   NUPDOWN=      -1.0000    fix difference up-down

 DOS related values:
   EMIN   =  10.00;   EMAX   =-10.00  energy-range for DOS
   EFERMI =   0.00;   METHOD = LEGACY      
   ISMEAR =     0;   SIGMA  =   0.05  broadening in eV -4-tet -1-fermi 0-gaus

 Electronic relaxation 2 (details)
   IALGO  =     38    algorithm
   LDIAG  =      T    sub-space diagonalisation (order eigenvalues)
   LSUBROT=      F    optimize rotation matrix (better conditioning)
   TURBO    =      0    0=normal 1=particle mesh
   IRESTART =      0    0=no restart 2=restart with 2 vectors
   NREBOOT  =      0    no. of reboots
   NMIN     =      0    reboot dimension
   EREF     =   0.00    reference energy to select bands
   IMIX   =      4    mixing-type and parameters
     AMIX     =   0.40;   BMIX     =  1.00
     AMIX_MAG =   1.60;   BMIX_MAG =  1.00
     AMIN     =   0.10
     WC   =   100.;   INIMIX=   1;  MIXPRE=   1;  MAXMIX= -45

 Intra band minimization:
   WEIMIN = 0.0000     energy-eigenvalue tresh-hold
   EBREAK =  0.10E-07  absolut break condition
   DEPER  =   0.30     relativ break condition  

   TIME   =   0.40     timestep for ELM

  volume/ion in A,a.u.               =     337.50      2277.56
  Fermi-wavevector in a.u.,A,eV,Ry     =   0.305814  0.577905  1.272449  0.093522
  Thomas-Fermi vector in A             =   1.179187
 
 Write flags
   LWAVE        =      F    write WAVECAR
   LDOWNSAMPLE  =      F    k-point downsampling of WAVECAR
   LCHARG       =      F    write CHGCAR
   LVTOT        =      F    write LOCPOT, total local potential
   LVHAR        =      F    write LOCPOT, Hartree potential only
   LELF         =      F    write electronic localiz. function (ELF)
   LORBIT       =      0    0 simple, 1 ext, 2 COOP (PROOUT), +10 PAW based schemes


 Dipole corrections
   LMONO  =      F    monopole corrections only (constant potential shift)
   LDIPOL =      F    correct potential (dipole corrections)
   IDIPOL =      0    1-x, 2-y, 3-z, 4-all directions 
   EPSILON=  1.0000000 bulk dielectric constant

 Exchange correlation treatment:
   GGA     =    --    GGA type
   LEXCH   =     8    internal setting for exchange type
   LIBXC   =     F    Libxc                    
   VOSKOWN =     0    Vosko Wilk Nusair interpolation
   LHFCALC =     F    Hartree Fock is set to
   LHFONE  =     F    Hartree Fock one center treatment
   AEXX    =    0.0000 exact exchange contribution

 Linear response parameters
   LEPSILON=     F    determine dielectric tensor
   LRPA    =     F    only Hartree local field effects (RPA)
   LNABLA  =     F    use nabla operator in PAW spheres
   LVEL    =     F    velocity operator in full k-point grid
   CSHIFT  =0.1000    complex shift for real part using Kramers Kronig
   OMEGAMAX=  -1.0    maximum frequency
   DEG_THRESHOLD= 0.2000000E-02 threshold for treating states as degnerate
   RTIME   =   -0.100 relaxation time in fs
  (WPLASMAI=    0.000 imaginary part of plasma frequency in eV, 0.658/RTIME)
   DFIELD  = 0.0000000 0.0000000 0.0000000 field for delta impulse in time
 
  Optional k-point grid parameters
   LKPOINTS_OPT  =     F    use optional k-point grid
   KPOINTS_OPT_MODE=     1    mode for optional k-point grid
 
 Orbital magnetization related:
   ORBITALMAG=     F  switch on orbital magnetization
   LCHIMAG   =     F  perturbation theory with respect to B field
   DQ        =  0.001000  dq finite difference perturbation B field
   LLRAUG    =     F  two centre corrections for induced B field
   LBONE     =     F  B-component reconstruction in AE one-centre
   LVGVCALC  =     T  calculate vGv susceptibility
   LVGVAPPL  =     F  apply vGv susceptibility instead of pGv for G=0

 Random number generation:
   RANDOM_GENERATOR = DEFAULT
   PCG_SEED         = not used


--------------------------------------------------------------------------------------------------------


 Static calculation
 charge density and potential will be updated during run
 non-spin polarized calculation
 Variant of blocked Davidson
 Davidson routine will perform the subspace rotation
 perform sub-space diagonalisation
    after iterative eigenvector-optimisation
 modified Broyden-mixing scheme, WC =      100.0
 initial mixing is a Kerker type mixing with AMIX =  0.4000 and BMIX =      1.0000
 Hartree-type preconditioning will be used
 using additional bands           13
 real space projection scheme for non local part
 calculate Harris-corrections to forces 
   (improved forces if not selfconsistent)
 use gradient corrections 
 use of overlap-Matrix (Vanderbilt PP)
 Gauss-broadening in eV      SIGMA  =   0.05


--------------------------------------------------------------------------------------------------------


  energy-cutoff  :      520.00
  volume of cell :     3375.00
      direct lattice vectors                 reciprocal lattice vectors
    15.000000000  0.000000000  0.000000000     0.066666667  0.000000000  0.000000000
     0.000000000 15.000000000  0.000000000     0.000000000  0.066666667  0.000000000
     0.000000000  0.000000000 15.000000000     0.000000000  0.000000000  0.066666667

  length of vectors
    15.000000000 15.000000000 15.000000000     0.066666667  0.066666667  0.066666667


 
 k-points in units of 2pi/SCALE and weight: K-Spacing Value to Generate K-Mesh: 1.00
   0.00000000  0.00000000  0.00000000       1.000
 
 k-points in reciprocal lattice and weights: K-Spacing Value to Generate K-Mesh: 1.00
   0.00000000  0.00000000  0.00000000       1.000
 
 position of ions in fractional coordinates (direct lattice) 
   0.53686670  0.47973334  0.39266666
   0.48940001  0.53193334  0.45106665
   0.49053332  0.53333333  0.54666665
   0.47940000  0.46613334  0.60840003
   0.53620001  0.50099999  0.32020000
   0.58079999  0.42706668  0.41840000
   0.44733334  0.58713334  0.42393335
   0.49153334  0.60020002  0.57680003
   0.47093334  0.39646667  0.58346666
   0.47706668  0.47693332  0.67839998
 
 position of ions in cartesian coordinates  (Angst):
   8.05300045  7.19600010  5.88999987
   7.34100008  7.97900009  6.76599979
   7.35799980  8.00000000  8.19999981
   7.19099998  6.99200010  9.12600040
   8.04300022  7.51499987  4.80299997
   8.71199989  6.40600014  6.27600002
   6.71000004  8.80700016  6.35900021
   7.37300014  9.00300026  8.65200043
   7.06400013  5.94700003  8.75199986
   7.15600014  7.15399981 10.17599964
 


--------------------------------------------------------------------------------------------------------


 k-point   1 :   0.0000 0.0000 0.0000  plane waves:   90879

 maximum and minimum number of plane-waves per node :     45467    45412

 maximum number of plane-waves:     90879
 maximum index in each direction: 
   IXMAX=   27   IYMAX=   27   IZMAX=   27
   IXMIN=  -27   IYMIN=  -27   IZMIN=  -27


 real space projection operators:
  total allocation   :       1185.88 KBytes
  max/ min on nodes  :        592.97        592.91


 parallel 3D FFT for wavefunctions:
    minimum data exchange during FFTs selected (reduces bandwidth)
 parallel 3D FFT for charge:
    minimum data exchange during FFTs selected (reduces bandwidth)


 total amount of memory used by VASP MPI-rank0   224783. kBytes
=======================================================================

   base      :      30000. kBytes
   nonlr-proj:       1259. kBytes
   fftplans  :     123538. kBytes
   grid      :      67787. kBytes
   one-center:         15. kBytes
   wavefun   :       2184. kBytes
 
     INWAV:  cpu time      0.0000: real time      0.0000
 Broyden mixing: mesh for mixing (old mesh)
   NGX = 55   NGY = 55   NGZ = 55
  (NGX  =224   NGY  =224   NGZ  =224)
  gives a total of 166375 points

 initial charge density was supplied:
 charge density of overlapping atoms calculated
 number of electron      22.0000000 magnetization 
 keeping initial charge density in first step


--------------------------------------------------------------------------------------------------------


 Maximum index for non-local projection operator         1520
 Maximum index for augmentation-charges         2486 (set IRDMAX)


--------------------------------------------------------------------------------------------------------


 First call to EWALD:  gamma=   0.118
 Maximum number of real-space cells 3x 3x 3
 Maximum number of reciprocal cells 3x 3x 3

    FEWALD:  cpu time      0.0010: real time      0.0010


--------------------------------------- Ionic step        1  -------------------------------------------




--------------------------------------- Iteration      1(   1)  ---------------------------------------


    POTLOK:  cpu time      0.3367: real time      0.3387
    SETDIJ:  cpu time      0.1951: real time      0.1960
     EDDAV:  cpu time      0.4147: real time      0.4170
       DOS:  cpu time      0.0003: real time      0.0003
    --------------------------------------------
      LOOP:  cpu time      0.9469: real time      0.9520

 eigenvalue-minimisations  :    64
 total energy-change (2. order) : 0.9947404E+02  (-0.5308082E+03)
 number of electron      22.0000000 magnetization 
 augmentation part       22.0000000 magnetization 

 Free energy of the ion-electron system (eV)
  ---------------------------------------------------
  alpha Z        PSCENC =         0.62641250
  Ewald energy   TEWEN  =       866.48988487
  -Hartree energ DENC   =     -1293.75740040
  -exchange      EXHF   =         0.00000000
  -V(xc)+E(xc)   XCENC  =        67.04479543
  PAW double counting   =       156.01372664     -160.66969168
  entropy T*S    EENTRO =        -0.00211473
  eigenvalues    EBANDS =      -199.78897505
  atomic energy  EATOM  =       663.51739852
  Solvation  Ediel_sol  =         0.00000000
  ---------------------------------------------------
  free energy    TOTEN  =        99.47403611 eV

  energy without entropy =       99.47615084  energy(sigma->0) =       99.47509347


--------------------------------------------------------------------------------------------------------




--------------------------------------- Iteration      1(   2)  ---------------------------------------


     EDDAV:  cpu time      0.4827: real time      0.4856
       DOS:  cpu time      0.0002: real time      0.0002
    --------------------------------------------
      LOOP:  cpu time      0.4829: real time      0.4857

 eigenvalue-minimisations  :    80
 total energy-change (2. order) :-0.1223801E+03  (-0.1195820E+03)
 number of electron      22.0000000 magnetization 
 augmentation part       22.0000000 magnetization 

 Free energy of the ion-electron system (eV)
  ---------------------------------------------------
  alpha Z        PSCENC =         0.62641250
  Ewald energy   TEWEN  =       866.48988487
  -Hartree energ DENC   =     -1293.75740040
  -exchange      EXHF   =         0.00000000
  -V(xc)+E(xc)   XCENC  =        67.04479543
  PAW double counting   =       156.01372664     -160.66969168
  entropy T*S    EENTRO =        -0.00000000
  eigenvalues    EBANDS =      -322.17117050
  atomic energy  EATOM  =       663.51739852
  Solvation  Ediel_sol  =         0.00000000
  ---------------------------------------------------
  free energy    TOTEN  =       -22.90604462 eV

  energy without entropy =      -22.90604462  energy(sigma->0) =      -22.90604462


--------------------------------------------------------------------------------------------------------




--------------------------------------- Iteration      1(   3)  ---------------------------------------


     EDDAV:  cpu time      0.4413: real time      0.4438
       DOS:  cpu time      0.0001: real time      0.0001
    --------------------------------------------
      LOOP:  cpu time      0.4414: real time      0.4440

 eigenvalue-minimisations  :    72
 total energy-change (2. order) :-0.3784316E+02  (-0.3777486E+02)
 number of electron      22.0000000 magnetization 
 augmentation part       22.0000000 magnetization 

 Free energy of the ion-electron system (eV)
  ---------------------------------------------------
  alpha Z        PSCENC =         0.62641250
  Ewald energy   TEWEN  =       866.48988487
  -Hartree energ DENC   =     -1293.75740040
  -exchange      EXHF   =         0.00000000
  -V(xc)+E(xc)   XCENC  =        67.04479543
  PAW double counting   =       156.01372664     -160.66969168
  entropy T*S    EENTRO =        -0.00000000
  eigenvalues    EBANDS =      -360.01433390
  atomic energy  EATOM  =       663.51739852
  Solvation  Ediel_sol  =         0.00000000
  ---------------------------------------------------
  free energy    TOTEN  =       -60.74920802 eV

  energy without entropy =      -60.74920802  energy(sigma->0) =      -60.74920802


--------------------------------------------------------------------------------------------------------




--------------------------------------- Iteration      1(   4)  ---------------------------------------


     EDDAV:  cpu time      0.4012: real time      0.4036
       DOS:  cpu time      0.0001: real time      0.0001
    --------------------------------------------
      LOOP:  cpu time      0.4013: real time      0.4037

 eigenvalue-minimisations  :    64
 total energy-change (2. order) :-0.2063802E+01  (-0.2060784E+01)
 number of electron      22.0000000 magnetization 
 augmentation part       22.0000000 magnetization 

 Free energy of the ion-electron system (eV)
  ---------------------------------------------------
  alpha Z        PSCENC =         0.62641250
  Ewald energy   TEWEN  =       866.48988487
  -Hartree energ DENC   =     -1293.75740040
  -exchange      EXHF   =         0.00000000
  -V(xc)+E(xc)   XCENC  =        67.04479543
  PAW double counting   =       156.01372664     -160.66969168
  entropy T*S    EENTRO =        -0.00000000
  eigenvalues    EBANDS =      -362.07813572
  atomic energy  EATOM  =       663.51739852
  Solvation  Ediel_sol  =         0.00000000
  ---------------------------------------------------
  free energy    TOTEN  =       -62.81300983 eV

  energy without entropy =      -62.81300983  energy(sigma->0) =      -62.81300983


--------------------------------------------------------------------------------------------------------




--------------------------------------- Iteration      1(   5)  ---------------------------------------


     EDDAV:  cpu time      0.4026: real time      0.4049
       DOS:  cpu time      0.0002: real time      0.0002
    CHARGE:  cpu time      0.2017: real time      0.2026
    MIXING:  cpu time      0.0110: real time      0.0111
    --------------------------------------------
      LOOP:  cpu time      0.6156: real time      0.6187

 eigenvalue-minimisations  :    64
 total energy-change (2. order) :-0.3559172E-01  (-0.3558400E-01)
 number of electron      22.0000000 magnetization 
 augmentation part        0.5721796 magnetization 

 Broyden mixing:
  rms(total) = 0.11556E+01    rms(broyden)= 0.11554E+01
  rms(prec ) = 0.13859E+01
  weight for this iteration     100.00

 Free energy of the ion-electron system (eV)
  ---------------------------------------------------
  alpha Z        PSCENC =         0.62641250
  Ewald energy   TEWEN  =       866.48988487
  -Hartree energ DENC   =     -1293.75740040
  -exchange      EXHF   =         0.00000000
  -V(xc)+E(xc)   XCENC  =        67.04479543
  PAW double counting   =       156.01372664     -160.66969168
  entropy T*S    EENTRO =        -0.00000000
  eigenvalues    EBANDS =      -362.11372743
  atomic energy  EATOM  =       663.51739852
  Solvation  Ediel_sol  =         0.00000000
  ---------------------------------------------------
  free energy    TOTEN  =       -62.84860155 eV

  energy without entropy =      -62.84860155  energy(sigma->0) =      -62.84860155


--------------------------------------------------------------------------------------------------------




--------------------------------------- Iteration      1(   6)  ---------------------------------------


    POTLOK:  cpu time      0.3075: real time      0.3093
    SETDIJ:  cpu time      0.1942: real time      0.1950
     EDDAV:  cpu time      0.4093: real time      0.4116
       DOS:  cpu time      0.0001: real time      0.0001
    CHARGE:  cpu time      0.2010: real time      0.2018
    MIXING:  cpu time      0.0077: real time      0.0078
    --------------------------------------------
      LOOP:  cpu time      1.1199: real time      1.1256

 eigenvalue-minimisations  :    64
 total energy-change (2. order) : 0.4922486E+01  (-0.6896962E+00)
 number of electron      22.0000000 magnetization 
 augmentation part        0.5260375 magnetization 

 Broyden mixing:
  rms(total) = 0.56050E+00    rms(broyden)= 0.56048E+00
  rms(prec ) = 0.66542E+00
  weight for this iteration     100.00

 eigenvalues of (default mixing * dielectric matrix)
  average eigenvalue GAMMA=   1.6476
  1.6476

 Free energy of the ion-electron system (eV)
  ---------------------------------------------------
  alpha Z        PSCENC =         0.62641250
  Ewald energy   TEWEN  =       866.48988487
  -Hartree energ DENC   =     -1339.18994860
  -exchange      EXHF   =         0.00000000
  -V(xc)+E(xc)   XCENC  =        69.42311514
  PAW double counting   =       226.75045128     -231.93789048
  entropy T*S    EENTRO =        -0.00000000
  eigenvalues    EBANDS =      -313.60553831
  atomic energy  EATOM  =       663.51739852
  Solvation  Ediel_sol  =         0.00000000
  ---------------------------------------------------
  free energy    TOTEN  =       -57.92611508 eV

  energy without entropy =      -57.92611508  energy(sigma->0) =      -57.92611508


--------------------------------------------------------------------------------------------------------




--------------------------------------- Iteration      1(   7)  ---------------------------------------


    POTLOK:  cpu time      0.3092: real time      0.3109
    SETDIJ:  cpu time      0.1935: real time      0.1943
     EDDAV:  cpu time      0.4118: real time      0.4140
       DOS:  cpu time      0.0001: real time      0.0001
    CHARGE:  cpu time      0.1935: real time      0.1943
    MIXING:  cpu time      0.0179: real time      0.0180
    --------------------------------------------
      LOOP:  cpu time      1.1260: real time      1.1316

 eigenvalue-minimisations  :    64
 total energy-change (2. order) : 0.1186848E+01  (-0.4372486E+00)
 number of electron      22.0000000 magnetization 
 augmentation part        0.4929206 magnetization 

 Broyden mixing:
  rms(total) = 0.22014E+00    rms(broyden)= 0.22007E+00
  rms(prec ) = 0.25195E+00
  weight for this iteration     100.00

 eigenvalues of (default mixing * dielectric matrix)
  average eigenvalue GAMMA=   1.9223
  1.9223  1.9223

 Free energy of the ion-electron system (eV)
  ---------------------------------------------------
  alpha Z        PSCENC =         0.62641250
  Ewald energy   TEWEN  =       866.48988487
  -Hartree energ DENC   =     -1377.12699167
  -exchange      EXHF   =         0.00000000
  -V(xc)+E(xc)   XCENC  =        71.61317323
  PAW double counting   =       287.54445541     -292.98933418
  entropy T*S    EENTRO =        -0.00000000
  eigenvalues    EBANDS =      -276.41426548
  atomic energy  EATOM  =       663.51739852
  Solvation  Ediel_sol  =         0.00000000
  ---------------------------------------------------
  free energy    TOTEN  =       -56.73926678 eV

  energy without entropy =      -56.73926678  energy(sigma->0) =      -56.73926678


--------------------------------------------------------------------------------------------------------




--------------------------------------- Iteration      1(   8)  ---------------------------------------


    POTLOK:  cpu time      0.3139: real time      0.3156
    SETDIJ:  cpu time      0.1949: real time      0.1957
     EDDAV:  cpu time      0.4475: real time      0.4500
       DOS:  cpu time      0.0001: real time      0.0001
    CHARGE:  cpu time      0.2012: real time      0.2020
    MIXING:  cpu time      0.0080: real time      0.0081
    --------------------------------------------
      LOOP:  cpu time      1.1655: real time      1.1714

 eigenvalue-minimisations  :    72
 total energy-change (2. order) : 0.1502817E+00  (-0.3143406E-01)
 number of electron      22.0000000 magnetization 
 augmentation part        0.4948539 magnetization 

 Broyden mixing:
  rms(total) = 0.44221E-01    rms(broyden)= 0.44214E-01
  rms(prec ) = 0.75279E-01
  weight for this iteration     100.00

 eigenvalues of (default mixing * dielectric matrix)
  average eigenvalue GAMMA=   1.6223
  2.3832  0.8818  1.6018

 Free energy of the ion-electron system (eV)
  ---------------------------------------------------
  alpha Z        PSCENC =         0.62641250
  Ewald energy   TEWEN  =       866.48988487
  -Hartree energ DENC   =     -1382.92922801
  -exchange      EXHF   =         0.00000000
  -V(xc)+E(xc)   XCENC  =        72.10678726
  PAW double counting   =       291.38298134     -296.67877111
  entropy T*S    EENTRO =        -0.00000000
  eigenvalues    EBANDS =      -271.10445048
  atomic energy  EATOM  =       663.51739852
  Solvation  Ediel_sol  =         0.00000000
  ---------------------------------------------------
  free energy    TOTEN  =       -56.58898510 eV

  energy without entropy =      -56.58898510  energy(sigma->0) =      -56.58898510


--------------------------------------------------------------------------------------------------------




--------------------------------------- Iteration      1(   9)  ---------------------------------------


    POTLOK:  cpu time      0.3141: real time      0.3158
    SETDIJ:  cpu time      0.1939: real time      0.1947
     EDDAV:  cpu time      0.3662: real time      0.3682
       DOS:  cpu time      0.0001: real time      0.0001
    CHARGE:  cpu time      0.1937: real time      0.1945
    MIXING:  cpu time      0.0154: real time      0.0155
    --------------------------------------------
      LOOP:  cpu time      1.0834: real time      1.0888

 eigenvalue-minimisations  :    56
 total energy-change (2. order) : 0.2636164E-01  (-0.5368349E-02)
 number of electron      22.0000000 magnetization 
 augmentation part        0.4921673 magnetization 

 Broyden mixing:
  rms(total) = 0.23846E-01    rms(broyden)= 0.23843E-01
  rms(prec ) = 0.47123E-01
  weight for this iteration     100.00

 eigenvalues of (default mixing * dielectric matrix)
  average eigenvalue GAMMA=   1.4403
  2.3049  1.5945  0.9308  0.9308

 Free energy of the ion-electron system (eV)
  ---------------------------------------------------
  alpha Z        PSCENC =         0.62641250
  Ewald energy   TEWEN  =       866.48988487
  -Hartree energ DENC   =     -1387.98944697
  -exchange      EXHF   =         0.00000000
  -V(xc)+E(xc)   XCENC  =        72.35923920
  PAW double counting   =       295.99641335     -301.29854458
  entropy T*S    EENTRO =        -0.00000000
  eigenvalues    EBANDS =      -266.26398035
  atomic energy  EATOM  =       663.51739852
  Solvation  Ediel_sol  =         0.00000000
  ---------------------------------------------------
  free energy    TOTEN  =       -56.56262346 eV

  energy without entropy =      -56.56262346  energy(sigma->0) =      -56.56262346


--------------------------------------------------------------------------------------------------------




--------------------------------------- Iteration      1(  10)  ---------------------------------------


    POTLOK:  cpu time      0.3147: real time      0.3163
    SETDIJ:  cpu time      0.1950: real time      0.1958
     EDDAV:  cpu time      0.4055: real time      0.4078
       DOS:  cpu time      0.0001: real time      0.0001
    CHARGE:  cpu time      0.1940: real time      0.1948
    MIXING:  cpu time      0.0164: real time      0.0164
    --------------------------------------------
      LOOP:  cpu time      1.1257: real time      1.1314

 eigenvalue-minimisations  :    64
 total energy-change (2. order) : 0.5295474E-02  (-0.2353612E-02)
 number of electron      22.0000000 magnetization 
 augmentation part        0.4899701 magnetization 

 Broyden mixing:
  rms(total) = 0.17874E-01    rms(broyden)= 0.17869E-01
  rms(prec ) = 0.34122E-01
  weight for this iteration     100.00

 eigenvalues of (default mixing * dielectric matrix)
  average eigenvalue GAMMA=   1.6655
  2.4907  2.4907  1.0043  1.0043  1.3372

 Free energy of the ion-electron system (eV)
  ---------------------------------------------------
  alpha Z        PSCENC =         0.62641250
  Ewald energy   TEWEN  =       866.48988487
  -Hartree energ DENC   =     -1391.02982743
  -exchange      EXHF   =         0.00000000
  -V(xc)+E(xc)   XCENC  =        72.43100816
  PAW double counting   =       296.12580590     -301.44035583
  entropy T*S    EENTRO =        -0.00000000
  eigenvalues    EBANDS =      -263.27765469
  atomic energy  EATOM  =       663.51739852
  Solvation  Ediel_sol  =         0.00000000
  ---------------------------------------------------
  free energy    TOTEN  =       -56.55732799 eV

  energy without entropy =      -56.55732799  energy(sigma->0) =      -56.55732799


--------------------------------------------------------------------------------------------------------




--------------------------------------- Iteration      1(  11)  ---------------------------------------


    POTLOK:  cpu time      0.3146: real time      0.3163
    SETDIJ:  cpu time      0.1940: real time      0.1949
     EDDAV:  cpu time      0.4467: real time      0.4491
       DOS:  cpu time      0.0001: real time      0.0001
    CHARGE:  cpu time      0.2009: real time      0.2018
    MIXING:  cpu time      0.0106: real time      0.0107
    --------------------------------------------
      LOOP:  cpu time      1.1670: real time      1.1728

 eigenvalue-minimisations  :    72
 total energy-change (2. order) : 0.1019476E-01  (-0.6636162E-03)
 number of electron      22.0000000 magnetization 
 augmentation part        0.4896643 magnetization 

 Broyden mixing:
  rms(total) = 0.71989E-02    rms(broyden)= 0.71988E-02
  rms(prec ) = 0.16775E-01
  weight for this iteration     100.00

 eigenvalues of (default mixing * dielectric matrix)
  average eigenvalue GAMMA=   1.7559
  3.4392  2.4721  1.4605  1.1386  1.0126  1.0126

 Free energy of the ion-electron system (eV)
  ---------------------------------------------------
  alpha Z        PSCENC =         0.62641250
  Ewald energy   TEWEN  =       866.48988487
  -Hartree energ DENC   =     -1394.86778357
  -exchange      EXHF   =         0.00000000
  -V(xc)+E(xc)   XCENC  =        72.52902609
  PAW double counting   =       294.56713312     -299.86568247
  entropy T*S    EENTRO =        -0.00000000
  eigenvalues    EBANDS =      -259.54352230
  atomic energy  EATOM  =       663.51739852
  Solvation  Ediel_sol  =         0.00000000
  ---------------------------------------------------
  free energy    TOTEN  =       -56.54713323 eV

  energy without entropy =      -56.54713323  energy(sigma->0) =      -56.54713323


--------------------------------------------------------------------------------------------------------




--------------------------------------- Iteration      1(  12)  ---------------------------------------


    POTLOK:  cpu time      0.3167: real time      0.3184
    SETDIJ:  cpu time      0.1937: real time      0.1946
     EDDAV:  cpu time      0.4078: real time      0.4100
       DOS:  cpu time      0.0001: real time      0.0001
    CHARGE:  cpu time      0.1993: real time      0.2001
    MIXING:  cpu time      0.0101: real time      0.0101
    --------------------------------------------
      LOOP:  cpu time      1.1278: real time      1.1334

 eigenvalue-minimisations  :    64
 total energy-change (2. order) :-0.1697681E-02  (-0.1734892E-03)
 number of electron      22.0000000 magnetization 
 augmentation part        0.4894177 magnetization 

 Broyden mixing:
  rms(total) = 0.56542E-02    rms(broyden)= 0.56540E-02
  rms(prec ) = 0.11090E-01
  weight for this iteration     100.00

 eigenvalues of (default mixing * dielectric matrix)
  average eigenvalue GAMMA=   1.9650
  4.4575  2.4420  2.4420  1.4251  1.0569  0.9659  0.9659

 Free energy of the ion-electron system (eV)
  ---------------------------------------------------
  alpha Z        PSCENC =         0.62641250
  Ewald energy   TEWEN  =       866.48988487
  -Hartree energ DENC   =     -1396.70573128
  -exchange      EXHF   =         0.00000000
  -V(xc)+E(xc)   XCENC  =        72.55989432
  PAW double counting   =       294.17156521     -299.47051909
  entropy T*S    EENTRO =        -0.00000000
  eigenvalues    EBANDS =      -257.73773598
  atomic energy  EATOM  =       663.51739852
  Solvation  Ediel_sol  =         0.00000000
  ---------------------------------------------------
  free energy    TOTEN  =       -56.54883091 eV

  energy without entropy =      -56.54883091  energy(sigma->0) =      -56.54883091


--------------------------------------------------------------------------------------------------------




--------------------------------------- Iteration      1(  13)  ---------------------------------------


    POTLOK:  cpu time      0.3087: real time      0.3103
    SETDIJ:  cpu time      0.1936: real time      0.1945
     EDDAV:  cpu time      0.3249: real time      0.3266
       DOS:  cpu time      0.0001: real time      0.0001
    CHARGE:  cpu time      0.1927: real time      0.1935
    MIXING:  cpu time      0.0160: real time      0.0161
    --------------------------------------------
      LOOP:  cpu time      1.0360: real time      1.0411

 eigenvalue-minimisations  :    48
 total energy-change (2. order) :-0.1055579E-01  (-0.1965708E-03)
 number of electron      22.0000000 magnetization 
 augmentation part        0.4893717 magnetization 

 Broyden mixing:
  rms(total) = 0.29354E-02    rms(broyden)= 0.29352E-02
  rms(prec ) = 0.57722E-02
  weight for this iteration     100.00

 eigenvalues of (default mixing * dielectric matrix)
  average eigenvalue GAMMA=   2.0043
  5.2097  2.7746  2.1701  1.4648  1.4648  0.9772  0.9772  0.9958

 Free energy of the ion-electron system (eV)
  ---------------------------------------------------
  alpha Z        PSCENC =         0.62641250
  Ewald energy   TEWEN  =       866.48988487
  -Hartree energ DENC   =     -1397.52231939
  -exchange      EXHF   =         0.00000000
  -V(xc)+E(xc)   XCENC  =        72.56115067
  PAW double counting   =       294.28411529     -299.58318838
  entropy T*S    EENTRO =        -0.00000000
  eigenvalues    EBANDS =      -256.93284078
  atomic energy  EATOM  =       663.51739852
  Solvation  Ediel_sol  =         0.00000000
  ---------------------------------------------------
  free energy    TOTEN  =       -56.55938670 eV

  energy without entropy =      -56.55938670  energy(sigma->0) =      -56.55938670


--------------------------------------------------------------------------------------------------------




--------------------------------------- Iteration      1(  14)  ---------------------------------------


    POTLOK:  cpu time      0.3105: real time      0.3122
    SETDIJ:  cpu time      0.1945: real time      0.1954
     EDDAV:  cpu time      0.4493: real time      0.4518
       DOS:  cpu time      0.0001: real time      0.0001
    CHARGE:  cpu time      0.2009: real time      0.2017
    MIXING:  cpu time      0.0093: real time      0.0093
    --------------------------------------------
      LOOP:  cpu time      1.1646: real time      1.1704

 eigenvalue-minimisations  :    72
 total energy-change (2. order) :-0.5107019E-02  (-0.7647843E-04)
 number of electron      22.0000000 magnetization 
 augmentation part        0.4893599 magnetization 

 Broyden mixing:
  rms(total) = 0.20676E-02    rms(broyden)= 0.20673E-02
  rms(prec ) = 0.36760E-02
  weight for this iteration     100.00

 eigenvalues of (default mixing * dielectric matrix)
  average eigenvalue GAMMA=   2.1879
  6.2780  3.4714  2.4766  1.9293  1.3326  1.3326  0.9627  0.9538  0.9538

 Free energy of the ion-electron system (eV)
  ---------------------------------------------------
  alpha Z        PSCENC =         0.62641250
  Ewald energy   TEWEN  =       866.48988487
  -Hartree energ DENC   =     -1397.56978673
  -exchange      EXHF   =         0.00000000
  -V(xc)+E(xc)   XCENC  =        72.54537103
  PAW double counting   =       294.12327763     -299.42191496
  entropy T*S    EENTRO =        -0.00000000
  eigenvalues    EBANDS =      -256.87513658
  atomic energy  EATOM  =       663.51739852
  Solvation  Ediel_sol  =         0.00000000
  ---------------------------------------------------
  free energy    TOTEN  =       -56.56449371 eV

  energy without entropy =      -56.56449371  energy(sigma->0) =      -56.56449371


--------------------------------------------------------------------------------------------------------




--------------------------------------- Iteration      1(  15)  ---------------------------------------


    POTLOK:  cpu time      0.3036: real time      0.3053
    SETDIJ:  cpu time      0.1928: real time      0.1937
     EDDAV:  cpu time      0.4510: real time      0.4536
       DOS:  cpu time      0.0001: real time      0.0001
    CHARGE:  cpu time      0.2001: real time      0.2009
    MIXING:  cpu time      0.0111: real time      0.0111
    --------------------------------------------
      LOOP:  cpu time      1.1587: real time      1.1647

 eigenvalue-minimisations  :    72
 total energy-change (2. order) :-0.3833731E-02  (-0.6946088E-04)
 number of electron      22.0000000 magnetization 
 augmentation part        0.4894017 magnetization 

 Broyden mixing:
  rms(total) = 0.20653E-02    rms(broyden)= 0.20651E-02
  rms(prec ) = 0.27633E-02
  weight for this iteration     100.00

 eigenvalues of (default mixing * dielectric matrix)
  average eigenvalue GAMMA=   2.1908
  6.7815  3.9904  2.3930  2.1269  1.3831  1.3583  0.9625  0.9625  0.9457  1.0043

 Free energy of the ion-electron system (eV)
  ---------------------------------------------------
  alpha Z        PSCENC =         0.62641250
  Ewald energy   TEWEN  =       866.48988487
  -Hartree energ DENC   =     -1397.55722777
  -exchange      EXHF   =         0.00000000
  -V(xc)+E(xc)   XCENC  =        72.53682063
  PAW double counting   =       294.17694853     -299.47414478
  entropy T*S    EENTRO =        -0.00000000
  eigenvalues    EBANDS =      -256.88441995
  atomic energy  EATOM  =       663.51739852
  Solvation  Ediel_sol  =         0.00000000
  ---------------------------------------------------
  free energy    TOTEN  =       -56.56832745 eV

  energy without entropy =      -56.56832745  energy(sigma->0) =      -56.56832745


--------------------------------------------------------------------------------------------------------




--------------------------------------- Iteration      1(  16)  ---------------------------------------


    POTLOK:  cpu time      0.3034: real time      0.3051
    SETDIJ:  cpu time      0.1933: real time      0.1941
     EDDAV:  cpu time      0.4487: real time      0.4512
       DOS:  cpu time      0.0002: real time      0.0002
    CHARGE:  cpu time      0.1988: real time      0.1995
    MIXING:  cpu time      0.0123: real time      0.0123
    --------------------------------------------
      LOOP:  cpu time      1.1566: real time      1.1624

 eigenvalue-minimisations  :    72
 total energy-change (2. order) :-0.7048858E-03  (-0.1109784E-04)
 number of electron      22.0000000 magnetization 
 augmentation part        0.4892535 magnetization 

 Broyden mixing:
  rms(total) = 0.55986E-03    rms(broyden)= 0.55950E-03
  rms(prec ) = 0.10958E-02
  weight for this iteration     100.00

 eigenvalues of (default mixing * dielectric matrix)
  average eigenvalue GAMMA=   2.3065
  7.7563  4.4542  2.5605  2.3411  1.9058  1.3996  0.9622  0.9622  1.0828  0.9733
  0.9733

 Free energy of the ion-electron system (eV)
  ---------------------------------------------------
  alpha Z        PSCENC =         0.62641250
  Ewald energy   TEWEN  =       866.48988487
  -Hartree energ DENC   =     -1397.71413372
  -exchange      EXHF   =         0.00000000
  -V(xc)+E(xc)   XCENC  =        72.53981783
  PAW double counting   =       294.24228815     -299.54078613
  entropy T*S    EENTRO =        -0.00000000
  eigenvalues    EBANDS =      -256.72991437
  atomic energy  EATOM  =       663.51739852
  Solvation  Ediel_sol  =         0.00000000
  ---------------------------------------------------
  free energy    TOTEN  =       -56.56903233 eV

  energy without entropy =      -56.56903233  energy(sigma->0) =      -56.56903233


--------------------------------------------------------------------------------------------------------




--------------------------------------- Iteration      1(  17)  ---------------------------------------


    POTLOK:  cpu time      0.3002: real time      0.3018
    SETDIJ:  cpu time      0.1932: real time      0.1940
     EDDAV:  cpu time      0.4490: real time      0.4514
       DOS:  cpu time      0.0001: real time      0.0001
    CHARGE:  cpu time      0.1981: real time      0.1989
    MIXING:  cpu time      0.0132: real time      0.0132
    --------------------------------------------
      LOOP:  cpu time      1.1538: real time      1.1595

 eigenvalue-minimisations  :    72
 total energy-change (2. order) :-0.8231400E-03  (-0.7642145E-05)
 number of electron      22.0000000 magnetization 
 augmentation part        0.4892439 magnetization 

 Broyden mixing:
  rms(total) = 0.40659E-03    rms(broyden)= 0.40652E-03
  rms(prec ) = 0.62383E-03
  weight for this iteration     100.00

 eigenvalues of (default mixing * dielectric matrix)
  average eigenvalue GAMMA=   2.3431
  8.1514  4.9725  2.8639  2.4710  1.7310  1.6569  1.4289  0.9697  0.9697  1.0099
  0.9461  0.9461

 Free energy of the ion-electron system (eV)
  ---------------------------------------------------
  alpha Z        PSCENC =         0.62641250
  Ewald energy   TEWEN  =       866.48988487
  -Hartree energ DENC   =     -1397.72096181
  -exchange      EXHF   =         0.00000000
  -V(xc)+E(xc)   XCENC  =        72.53884918
  PAW double counting   =       294.22701900     -299.52559398
  entropy T*S    EENTRO =        -0.00000000
  eigenvalues    EBANDS =      -256.72286376
  atomic energy  EATOM  =       663.51739852
  Solvation  Ediel_sol  =         0.00000000
  ---------------------------------------------------
  free energy    TOTEN  =       -56.56985547 eV

  energy without entropy =      -56.56985547  energy(sigma->0) =      -56.56985547


--------------------------------------------------------------------------------------------------------




--------------------------------------- Iteration      1(  18)  ---------------------------------------


    POTLOK:  cpu time      0.2984: real time      0.3000
    SETDIJ:  cpu time      0.1930: real time      0.1938
     EDDAV:  cpu time      0.4446: real time      0.4470
       DOS:  cpu time      0.0001: real time      0.0001
    CHARGE:  cpu time      0.1967: real time      0.1975
    MIXING:  cpu time      0.0133: real time      0.0134
    --------------------------------------------
      LOOP:  cpu time      1.1461: real time      1.1518

 eigenvalue-minimisations  :    72
 total energy-change (2. order) :-0.2265481E-03  (-0.1129873E-05)
 number of electron      22.0000000 magnetization 
 augmentation part        0.4892456 magnetization 

 Broyden mixing:
  rms(total) = 0.22939E-03    rms(broyden)= 0.22936E-03
  rms(prec ) = 0.35310E-03
  weight for this iteration     100.00

 eigenvalues of (default mixing * dielectric matrix)
  average eigenvalue GAMMA=   2.3976
  8.5554  5.2891  3.3637  2.3865  2.3865  1.7478  1.4348  0.9654  0.9654  1.1125
  1.1125  0.9247  0.9247

 Free energy of the ion-electron system (eV)
  ---------------------------------------------------
  alpha Z        PSCENC =         0.62641250
  Ewald energy   TEWEN  =       866.48988487
  -Hartree energ DENC   =     -1397.71786745
  -exchange      EXHF   =         0.00000000
  -V(xc)+E(xc)   XCENC  =        72.53837179
  PAW double counting   =       294.20855562     -299.50697254
  entropy T*S    EENTRO =        -0.00000000
  eigenvalues    EBANDS =      -256.72586533
  atomic energy  EATOM  =       663.51739852
  Solvation  Ediel_sol  =         0.00000000
  ---------------------------------------------------
  free energy    TOTEN  =       -56.57008202 eV

  energy without entropy =      -56.57008202  energy(sigma->0) =      -56.57008202


--------------------------------------------------------------------------------------------------------




--------------------------------------- Iteration      1(  19)  ---------------------------------------


    POTLOK:  cpu time      0.2999: real time      0.3015
    SETDIJ:  cpu time      0.1947: real time      0.1955
     EDDAV:  cpu time      0.4492: real time      0.4517
       DOS:  cpu time      0.0001: real time      0.0001
    CHARGE:  cpu time      0.1964: real time      0.1972
    MIXING:  cpu time      0.0132: real time      0.0132
    --------------------------------------------
      LOOP:  cpu time      1.1535: real time      1.1592

 eigenvalue-minimisations  :    72
 total energy-change (2. order) :-0.1121576E-03  (-0.3805339E-06)
 number of electron      22.0000000 magnetization 
 augmentation part        0.4892486 magnetization 

 Broyden mixing:
  rms(total) = 0.11363E-03    rms(broyden)= 0.11355E-03
  rms(prec ) = 0.17436E-03
  weight for this iteration     100.00

 eigenvalues of (default mixing * dielectric matrix)
  average eigenvalue GAMMA=   2.4242
  8.7970  5.5173  3.7147  2.6041  2.2858  1.8729  1.8729  1.3793  0.9672  0.9672
  1.0442  1.0442  0.9362  0.9362

 Free energy of the ion-electron system (eV)
  ---------------------------------------------------
  alpha Z        PSCENC =         0.62641250
  Ewald energy   TEWEN  =       866.48988487
  -Hartree energ DENC   =     -1397.73032858
  -exchange      EXHF   =         0.00000000
  -V(xc)+E(xc)   XCENC  =        72.53870777
  PAW double counting   =       294.20883690     -299.50716373
  entropy T*S    EENTRO =        -0.00000000
  eigenvalues    EBANDS =      -256.71394244
  atomic energy  EATOM  =       663.51739852
  Solvation  Ediel_sol  =         0.00000000
  ---------------------------------------------------
  free energy    TOTEN  =       -56.57019418 eV

  energy without entropy =      -56.57019418  energy(sigma->0) =      -56.57019418


--------------------------------------------------------------------------------------------------------




--------------------------------------- Iteration      1(  20)  ---------------------------------------


    POTLOK:  cpu time      0.3050: real time      0.3067
    SETDIJ:  cpu time      0.1958: real time      0.1966
     EDDAV:  cpu time      0.4097: real time      0.4119
       DOS:  cpu time      0.0001: real time      0.0001
    CHARGE:  cpu time      0.1991: real time      0.1999
    MIXING:  cpu time      0.0135: real time      0.0135
    --------------------------------------------
      LOOP:  cpu time      1.1232: real time      1.1288

 eigenvalue-minimisations  :    64
 total energy-change (2. order) :-0.3519842E-04  (-0.4703102E-07)
 number of electron      22.0000000 magnetization 
 augmentation part        0.4892513 magnetization 

 Broyden mixing:
  rms(total) = 0.53404E-04    rms(broyden)= 0.53287E-04
  rms(prec ) = 0.84954E-04
  weight for this iteration     100.00

 eigenvalues of (default mixing * dielectric matrix)
  average eigenvalue GAMMA=   2.4153
  8.8821  5.8309  4.0814  2.7928  2.4211  2.0241  1.7123  1.4544  0.9645  0.9645
  1.1265  1.1265  0.9572  0.9572  0.9339

 Free energy of the ion-electron system (eV)
  ---------------------------------------------------
  alpha Z        PSCENC =         0.62641250
  Ewald energy   TEWEN  =       866.48988487
  -Hartree energ DENC   =     -1397.72868091
  -exchange      EXHF   =         0.00000000
  -V(xc)+E(xc)   XCENC  =        72.53836043
  PAW double counting   =       294.20783134     -299.50618638
  entropy T*S    EENTRO =        -0.00000000
  eigenvalues    EBANDS =      -256.71524975
  atomic energy  EATOM  =       663.51739852
  Solvation  Ediel_sol  =         0.00000000
  ---------------------------------------------------
  free energy    TOTEN  =       -56.57022938 eV

  energy without entropy =      -56.57022938  energy(sigma->0) =      -56.57022938


--------------------------------------------------------------------------------------------------------




--------------------------------------- Iteration      1(  21)  ---------------------------------------


    POTLOK:  cpu time      0.3128: real time      0.3144
    SETDIJ:  cpu time      0.1944: real time      0.1952
     EDDAV:  cpu time      0.4081: real time      0.4102
       DOS:  cpu time      0.0001: real time      0.0001
    CHARGE:  cpu time      0.1967: real time      0.1975
    MIXING:  cpu time      0.0142: real time      0.0143
    --------------------------------------------
      LOOP:  cpu time      1.1263: real time      1.1318

 eigenvalue-minimisations  :    64
 total energy-change (2. order) :-0.9737952E-05  (-0.8743386E-08)
 number of electron      22.0000000 magnetization 
 augmentation part        0.4892528 magnetization 

 Broyden mixing:
  rms(total) = 0.46232E-04    rms(broyden)= 0.46103E-04
  rms(prec ) = 0.65377E-04
  weight for this iteration     100.00

 eigenvalues of (default mixing * dielectric matrix)
  average eigenvalue GAMMA=   2.4449
  8.9498  6.0744  4.3567  3.0317  2.4213  1.9994  1.9994  1.8800  1.3921  0.9669
  0.9669  0.9458  0.9458  1.0681  1.0681  1.0518

 Free energy of the ion-electron system (eV)
  ---------------------------------------------------
  alpha Z        PSCENC =         0.62641250
  Ewald energy   TEWEN  =       866.48988487
  -Hartree energ DENC   =     -1397.72860331
  -exchange      EXHF   =         0.00000000
  -V(xc)+E(xc)   XCENC  =        72.53831689
  PAW double counting   =       294.20786389     -299.50620272
  entropy T*S    EENTRO =        -0.00000000
  eigenvalues    EBANDS =      -256.71530976
  atomic energy  EATOM  =       663.51739852
  Solvation  Ediel_sol  =         0.00000000
  ---------------------------------------------------
  free energy    TOTEN  =       -56.57023911 eV

  energy without entropy =      -56.57023911  energy(sigma->0) =      -56.57023911


--------------------------------------------------------------------------------------------------------




--------------------------------------- Iteration      1(  22)  ---------------------------------------


    POTLOK:  cpu time      0.3164: real time      0.3180
    SETDIJ:  cpu time      0.1952: real time      0.1961
     EDDAV:  cpu time      0.4114: real time      0.4137
       DOS:  cpu time      0.0001: real time      0.0001
    CHARGE:  cpu time      0.1997: real time      0.2005
    MIXING:  cpu time      0.0142: real time      0.0143
    --------------------------------------------
      LOOP:  cpu time      1.1371: real time      1.1427

 eigenvalue-minimisations  :    64
 total energy-change (2. order) :-0.7641827E-05  (-0.1378824E-07)
 number of electron      22.0000000 magnetization 
 augmentation part        0.4892514 magnetization 

 Broyden mixing:
  rms(total) = 0.17473E-04    rms(broyden)= 0.17129E-04
  rms(prec ) = 0.27403E-04
  weight for this iteration     100.00

 eigenvalues of (default mixing * dielectric matrix)
  average eigenvalue GAMMA=   2.4102
  9.0521  6.3365  4.6750  3.2152  2.5111  2.2591  1.9549  1.5883  1.3247  0.9660
  0.9660  1.1354  1.1354  1.0474  0.9851  0.9102  0.9102

 Free energy of the ion-electron system (eV)
  ---------------------------------------------------
  alpha Z        PSCENC =         0.62641250
  Ewald energy   TEWEN  =       866.48988487
  -Hartree energ DENC   =     -1397.73077638
  -exchange      EXHF   =         0.00000000
  -V(xc)+E(xc)   XCENC  =        72.53835532
  PAW double counting   =       294.20964871     -299.50801474
  entropy T*S    EENTRO =        -0.00000000
  eigenvalues    EBANDS =      -256.71315558
  atomic energy  EATOM  =       663.51739852
  Solvation  Ediel_sol  =         0.00000000
  ---------------------------------------------------
  free energy    TOTEN  =       -56.57024676 eV

  energy without entropy =      -56.57024676  energy(sigma->0) =      -56.57024676


--------------------------------------------------------------------------------------------------------




--------------------------------------- Iteration      1(  23)  ---------------------------------------


    POTLOK:  cpu time      0.3118: real time      0.3135
    SETDIJ:  cpu time      0.1924: real time      0.1932
     EDDAV:  cpu time      0.4151: real time      0.4174
       DOS:  cpu time      0.0002: real time      0.0002
    CHARGE:  cpu time      0.1983: real time      0.1991
    MIXING:  cpu time      0.0138: real time      0.0138
    --------------------------------------------
      LOOP:  cpu time      1.1316: real time      1.1372

 eigenvalue-minimisations  :    64
 total energy-change (2. order) :-0.1253436E-05  (-0.2045795E-08)
 number of electron      22.0000000 magnetization 
 augmentation part        0.4892510 magnetization 

 Broyden mixing:
  rms(total) = 0.15054E-04    rms(broyden)= 0.14658E-04
  rms(prec ) = 0.21554E-04
  weight for this iteration     100.00

 eigenvalues of (default mixing * dielectric matrix)
  average eigenvalue GAMMA=   2.4130
  9.0556  6.5696  4.8491  3.4320  2.5806  2.3631  1.9519  1.6592  1.3550  1.3550
  1.3891  0.9668  0.9668  1.0486  1.0486  0.9530  0.9530  0.9364

 Free energy of the ion-electron system (eV)
  ---------------------------------------------------
  alpha Z        PSCENC =         0.62641250
  Ewald energy   TEWEN  =       866.48988487
  -Hartree energ DENC   =     -1397.73137363
  -exchange      EXHF   =         0.00000000
  -V(xc)+E(xc)   XCENC  =        72.53836636
  PAW double counting   =       294.20991977     -299.50829206
  entropy T*S    EENTRO =        -0.00000000
  eigenvalues    EBANDS =      -256.71256436
  atomic energy  EATOM  =       663.51739852
  Solvation  Ediel_sol  =         0.00000000
  ---------------------------------------------------
  free energy    TOTEN  =       -56.57024801 eV

  energy without entropy =      -56.57024801  energy(sigma->0) =      -56.57024801


--------------------------------------------------------------------------------------------------------




--------------------------------------- Iteration      1(  24)  ---------------------------------------


    POTLOK:  cpu time      0.3148: real time      0.3164
    SETDIJ:  cpu time      0.1950: real time      0.1958
     EDDAV:  cpu time      0.3305: real time      0.3324
       DOS:  cpu time      0.0001: real time      0.0001
    CHARGE:  cpu time      0.1976: real time      0.1984
    MIXING:  cpu time      0.0135: real time      0.0136
    --------------------------------------------
      LOOP:  cpu time      1.0515: real time      1.0568

 eigenvalue-minimisations  :    48
 total energy-change (2. order) :-0.1322801E-05  (-0.2351271E-08)
 number of electron      22.0000000 magnetization 
 augmentation part        0.4892508 magnetization 

 Broyden mixing:
  rms(total) = 0.11935E-04    rms(broyden)= 0.11433E-04
  rms(prec ) = 0.15871E-04
  weight for this iteration     100.00

 eigenvalues of (default mixing * dielectric matrix)
  average eigenvalue GAMMA=   2.4274
  9.1558  6.8242  5.1455  3.6711  2.8378  2.4186  2.1641  1.9308  1.4470  1.2176
  1.2176  0.9660  0.9660  1.2222  1.0162  1.0162  0.9336  0.9336  1.0367

 Free energy of the ion-electron system (eV)
  ---------------------------------------------------
  alpha Z        PSCENC =         0.62641250
  Ewald energy   TEWEN  =       866.48988487
  -Hartree energ DENC   =     -1397.73175363
  -exchange      EXHF   =         0.00000000
  -V(xc)+E(xc)   XCENC  =        72.53837703
  PAW double counting   =       294.20974176     -299.50811221
  entropy T*S    EENTRO =        -0.00000000
  eigenvalues    EBANDS =      -256.71219818
  atomic energy  EATOM  =       663.51739852
  Solvation  Ediel_sol  =         0.00000000
  ---------------------------------------------------
  free energy    TOTEN  =       -56.57024933 eV

  energy without entropy =      -56.57024933  energy(sigma->0) =      -56.57024933


--------------------------------------------------------------------------------------------------------




--------------------------------------- Iteration      1(  25)  ---------------------------------------


    POTLOK:  cpu time      0.3200: real time      0.3217
    SETDIJ:  cpu time      0.1942: real time      0.1950
     EDDAV:  cpu time      0.3330: real time      0.3349
       DOS:  cpu time      0.0001: real time      0.0001
    --------------------------------------------
      LOOP:  cpu time      0.8473: real time      0.8517

 eigenvalue-minimisations  :    48
 total energy-change (2. order) :-0.6527946E-06  (-0.1124864E-08)
 number of electron      22.0000000 magnetization 
 augmentation part        0.4892508 magnetization 

 Free energy of the ion-electron system (eV)
  ---------------------------------------------------
  alpha Z        PSCENC =         0.62641250
  Ewald energy   TEWEN  =       866.48988487
  -Hartree energ DENC   =     -1397.73195141
  -exchange      EXHF   =         0.00000000
  -V(xc)+E(xc)   XCENC  =        72.53838431
  PAW double counting   =       294.20935732     -299.50772194
  entropy T*S    EENTRO =        -0.00000000
  eigenvalues    EBANDS =      -256.71201416
  atomic energy  EATOM  =       663.51739852
  Solvation  Ediel_sol  =         0.00000000
  ---------------------------------------------------
  free energy    TOTEN  =       -56.57024998 eV

  energy without entropy =      -56.57024998  energy(sigma->0) =      -56.57024998


--------------------------------------------------------------------------------------------------------




 average (electrostatic) potential at core
  the test charge radii are     0.6991  0.5201
  (the norm of the test charge is              1.0000)
       1 -58.6814       2 -58.9245       3 -58.8700       4 -58.5731       5 -41.7507
       6 -41.9967       7 -41.8674       8 -41.9505       9 -41.6593      10 -42.2975
 
 
 
 E-fermi :  -5.5005     XC(G=0):  -0.4462     alpha+bet : -0.1681

 Fermi energy:        -5.5004573086

 k-point     1 :       0.0000    0.0000    0.0000
  band No.  band energies     occupation 
      1     -19.7746      2.00000
      2     -17.7915      2.00000
      3     -15.2793      2.00000
      4     -12.7527      2.00000
      5     -11.8005      2.00000
      6     -10.5007      2.00000
      7     -10.2438      2.00000
      8      -8.8577      2.00000
      9      -8.3954      2.00000
     10      -7.2139      2.00000
     11      -5.7460      2.00000
     12      -1.9051      0.00000
     13      -0.5549      0.00000
     14      -0.0139      0.00000
     15       0.1177      0.00000
     16       0.2195      0.00000
     17       0.4048      0.00000
     18       0.4277      0.00000
     19       0.5380      0.00000
     20       0.6830      0.00000
     21       0.8959      0.00000
     22       0.9446      0.00000
     23       1.0082      0.00000
     24       1.1004      0.00000


--------------------------------------------------------------------------------------------------------


 soft charge-density along one line, spin component           1
         0         1         2         3         4         5         6         7         8         9
 total charge-density along one line
 
 pseudopotential strength for first ion, spin component:           1
 10.255   0.020  -0.000  -0.001   0.000  -0.001  -0.001   0.000
  0.020  -0.001   0.000   0.000  -0.000  -0.000  -0.000   0.000
 -0.000   0.000  -4.369  -0.001   0.009  -0.014  -0.000   0.003
 -0.001   0.000  -0.001  -4.373   0.003  -0.000  -0.015   0.001
  0.000  -0.000   0.009   0.003  -4.366   0.003   0.001  -0.013
 -0.001  -0.000  -0.014  -0.000   0.003  -0.773  -0.000   0.000
 -0.001  -0.000  -0.000  -0.015   0.001  -0.000  -0.773   0.000
  0.000   0.000   0.003   0.001  -0.013   0.000   0.000  -0.773
 total augmentation occupancy for first ion, spin component:           1
  1.473  -1.028   0.010   0.028  -0.006   0.016   0.020  -0.007
 -1.028   0.802  -0.081  -0.092   0.037  -0.032  -0.035   0.020
  0.010  -0.081   1.067   0.012  -0.149   0.155   0.000  -0.060
  0.028  -0.092   0.012   1.159  -0.037   0.000   0.192  -0.019
 -0.006   0.037  -0.149  -0.037   1.031  -0.060  -0.019   0.136
  0.016  -0.032   0.155   0.000  -0.060   0.026   0.001  -0.014
  0.020  -0.035   0.000   0.192  -0.019   0.001   0.034  -0.005
 -0.007   0.020  -0.060  -0.019   0.136  -0.014  -0.005   0.021


------------------------ aborting loop because EDIFF is reached ----------------------------------------


    CHARGE:  cpu time      0.1992: real time      0.2000
    FORLOC:  cpu time      0.0320: real time      0.0321
    FORNL :  cpu time      1.0832: real time      1.0883
    STRESS:  cpu time      3.4253: real time      3.4414
    FORHAR:  cpu time      0.1115: real time      0.1120
    MIXING:  cpu time      0.0122: real time      0.0123
    OFIELD:  cpu time      0.0001: real time      0.0001

  FORCE on cell =-STRESS in cart. coord.  units (eV):
  Direction    XX          YY          ZZ          XY          YZ          ZX
  --------------------------------------------------------------------------------------
  Alpha Z     0.62641     0.62641     0.62641
  Ewald     -79.09754   246.52366   699.06342  -111.55417   -40.07291  -128.77929
  Hartree   257.93792   408.49580   731.29804   -50.47765   -26.17363   -87.45548
  E(xc)     -77.18863   -75.93012   -75.35205    -0.43202    -0.07915    -0.17097
  Local    -395.65250  -848.97935 -1616.17595   153.94873    65.76656   214.90154
  n-local   -28.62127   -30.66654   -30.19398     0.60285    -0.04819     0.00704
  augment    -0.53993    -0.64783    -0.67939     0.03874    -0.00110     0.00228
  Kinetic   321.41215   297.73306   289.18841     8.63146     1.63673     2.19976
  Fock        0.00000     0.00000     0.00000     0.00000     0.00000     0.00000
  -------------------------------------------------------------------------------------
  Total      -1.12338    -2.84492    -2.22509     0.75795     1.02830     0.70488
  in kB      -0.53329    -1.35054    -1.05629     0.35981     0.48816     0.33462
  external pressure =       -0.98 kB  Pullay stress =        0.00 kB


 VOLUME and BASIS-vectors are now :
 -----------------------------------------------------------------------------
  energy-cutoff  :      520.00
  volume of cell :     3375.00
      direct lattice vectors                 reciprocal lattice vectors
    15.000000000  0.000000000  0.000000000     0.066666667  0.000000000  0.000000000
     0.000000000 15.000000000  0.000000000     0.000000000  0.066666667  0.000000000
     0.000000000  0.000000000 15.000000000     0.000000000  0.000000000  0.066666667

  length of vectors
    15.000000000 15.000000000 15.000000000     0.066666667  0.066666667  0.066666667


 FORCES acting on ions
    electron-ion (+dipol)            ewald-force                    non-local-force                 convergence-correction
 -----------------------------------------------------------------------------------------------
   -.603E+02 0.672E+02 0.115E+03   0.603E+02 -.674E+02 -.115E+03   -.826E+00 0.165E+01 0.890E+00   -.449E-04 0.465E-04 0.104E-03
   0.480E+02 -.594E+02 0.522E+02   -.477E+02 0.587E+02 -.544E+02   0.531E-01 0.472E+00 0.475E+00   0.199E-04 -.363E-04 -.204E-04
   -.796E+01 -.749E+02 -.464E+02   0.830E+01 0.739E+02 0.484E+02   -.910E+00 -.176E-01 0.697E+00   0.146E-04 0.176E-05 -.948E-04
   0.180E+02 0.818E+02 -.112E+03   -.182E+02 -.823E+02 0.111E+03   0.425E+00 0.353E+00 -.184E+01   0.100E-04 -.114E-04 -.556E-04
   -.558E+01 -.972E+01 0.634E+02   0.553E+01 0.104E+02 -.672E+02   0.462E-01 -.156E+01 0.489E+01   -.282E-05 0.141E-05 0.228E-04
   -.425E+02 0.480E+02 -.333E+01   0.458E+02 -.519E+02 0.502E+01   -.335E+01 0.403E+01 -.205E+01   -.145E-04 0.151E-04 0.668E-05
   0.389E+02 -.506E+02 0.293E+02   -.414E+02 0.541E+02 -.313E+02   0.306E+01 -.392E+01 0.194E+01   0.159E-04 -.219E-04 0.114E-04
   -.145E+01 -.640E+02 -.312E+02   0.160E+01 0.691E+02 0.333E+02   -.714E-01 -.503E+01 -.240E+01   0.187E-05 -.126E-05 -.997E-05
   0.988E+01 0.627E+02 0.213E+01   -.104E+02 -.671E+02 -.357E+01   0.613E+00 0.496E+01 0.184E+01   0.181E-05 -.218E-05 -.110E-04
   0.373E+01 -.127E+01 -.676E+02   -.391E+01 0.245E+01 0.746E+02   0.223E+00 -.902E+00 -.613E+01   0.974E-06 0.517E-06 0.648E-06
 -----------------------------------------------------------------------------------------------
   0.736E+00 -.500E-01 0.169E+01   -.355E-14 -.107E-13 0.568E-13   -.738E+00 0.444E-01 -.168E+01   0.301E-05 -.777E-05 -.458E-04
 
 
 POSITION                                       TOTAL-FORCE (eV/Angst)
 -----------------------------------------------------------------------------------
      8.05300      7.19600      5.89000        -0.741924      1.440443      0.238695
      7.34100      7.97900      6.76600         0.387772     -0.162573     -1.695355
      7.35800      8.00000      8.20000        -0.565392     -1.004568      2.650917
      7.19100      6.99200      9.12600         0.258833     -0.137243     -2.932178
      8.04300      7.51500      4.80300         0.004605     -0.860156      1.126019
      8.71200      6.40600      6.27600        -0.061415      0.197784     -0.360216
      6.71000      8.80700      6.35900         0.527719     -0.436761     -0.041340
      7.37300      9.00300      8.65200         0.080959      0.056786     -0.233737
      7.06400      5.94700      8.75200         0.065331      0.625875      0.393931
      7.15600      7.15400     10.17600         0.043513      0.280412      0.853262
 -----------------------------------------------------------------------------------
    total drift:                               -0.002464     -0.005601      0.008462


--------------------------------------------------------------------------------------------------------



  FREE ENERGIE OF THE ION-ELECTRON SYSTEM (eV)
  ---------------------------------------------------
  free  energy   TOTEN  =       -56.57024998 eV

  energy  without entropy=      -56.57024998  energy(sigma->0) =      -56.57024998
 


--------------------------------------------------------------------------------------------------------


    POTLOK:  cpu time      0.5155: real time      0.5181


--------------------------------------------------------------------------------------------------------


 stress matrix after NEB project (eV)
     -1.12338      0.75795      0.70488
      0.75795     -2.84492      1.02830
      0.70488      1.02830     -2.22509
  FORCES: max atom, RMS     2.946778    1.638554
  FORCE total and by dimension    5.181562    2.932178
  Stress total and by dimension    4.308611    2.844923
     LOOP+:  cpu time     30.7643: real time     30.9190
    4ORBIT:  cpu time      0.0000: real time      0.0000

 total amount of memory used by VASP MPI-rank0   224783. kBytes
=======================================================================

   base      :      30000. kBytes
   nonlr-proj:       1259. kBytes
   fftplans  :     123538. kBytes
   grid      :      67787. kBytes
   one-center:         15. kBytes
   wavefun   :       2184. kBytes
 
  
  
 General timing and accounting informations for this job:
 ========================================================
  
                  Total CPU time used (sec):       37.324
                            User time (sec):       34.124
                          System time (sec):        3.200
                         Elapsed time (sec):       38.824
  
                   Maximum memory used (kb):      556768.
                   Average memory used (kb):          N/A
  
                          Minor page faults:       171821
                          Major page faults:         5452
                 Voluntary context switches:         3107
