 vasp.6.4.2 20Jul23 (build Apr 10 2024 13:39:58) complex                        
  
 executed on             LinuxIFC date 2024.05.17  19:36:52
 running   16 mpi-ranks, on    1 nodes
 distrk:  each k-point on   16 cores,    1 groups
 distr:  one band on NCORE=   2 cores,    8 groups


--------------------------------------------------------------------------------------------------------


 INCAR:
   ISTART = 0
   ISPIN = 1
   LREAL = Auto
   ENCUT = 520
   NPAR = 8
   LPLANE = .TRUE.
   LSCALU = .FALSE.
   NSIM = 4
   LWAVE = .FALSE.
   LCHARG = .FALSE.
   ADDGRID = .TRUE.
   LASPH = .TRUE.
   PREC = Accurate
   ISMEAR = 0
   SIGMA = 0.05
   EDIFF = 1E-06
   NSW = 0
   TEBEG = 300
   TEEND = 700     	
   ISYM = 0
   NWRITE = 2

 POTCAR:   PAW_PBE C 08Apr2002                    
 POTCAR:   PAW_PBE H 15Jun2001                    
 POTCAR:   PAW_PBE C 08Apr2002                    
   VRHFIN =C: s2p2                                                                                  
   LEXCH  = PE                                                                                      
   EATOM  =   147.1560 eV,   10.8157 Ry                                                             
                                                                                                    
   TITEL  = PAW_PBE C 08Apr2002                                                                     
   LULTRA =        F    use ultrasoft PP ?                                                          
   IUNSCR =        0    unscreen: 0-lin 1-nonlin 2-no                                               
   RPACOR =     .000    partial core radius                                                         
   POMASS =   12.011; ZVAL   =    4.000    mass and valenz                                          
   RCORE  =    1.500    outmost cutoff radius                                                       
   RWIGS  =    1.630; RWIGS  =     .863    wigner-seitz radius (au A)                               
   ENMAX  =  400.000; ENMIN  =  300.000 eV                                                          
   ICORE  =        2    local potential                                                             
   LCOR   =        T    correct aug charges                                                         
   LPAW   =        T    paw PP                                                                      
   EAUG   =  644.873                                                                                
   DEXC   =     .000                                                                                
   RMAX   =    2.266    core radius for proj-oper                                                   
   RAUG   =    1.300    factor for augmentation sphere                                              
   RDEP   =    1.501    radius for radial grids                                                     
   RDEPT  =    1.300    core radius for aug-charge                                                  
   QCUT   =   -5.516; QGAM   =   11.032    optimization parameters                                  
                                                                                                    
   Description                                                                                      
     l     E      TYP  RCUT    TYP  RCUT                                                            
     0   .000     23  1.200                                                                         
     0   .000     23  1.200                                                                         
     1   .000     23  1.500                                                                         
     1  2.500     23  1.500                                                                         
     2   .000      7  1.500                                                                         
  local pseudopotential read in
  atomic valenz-charges read in
  non local Contribution for L=           0  read in
    real space projection operators read in
  non local Contribution for L=           0  read in
    real space projection operators read in
  non local Contribution for L=           1  read in
    real space projection operators read in
  non local Contribution for L=           1  read in
    real space projection operators read in
    PAW grid and wavefunctions read in
 
   number of l-projection  operators is LMAX  =           4
   number of lm-projection operators is LMMAX =           8
 
 POTCAR:   PAW_PBE H 15Jun2001                    
   VRHFIN =H: ultrasoft test                                                                        
   LEXCH  = PE                                                                                      
   EATOM  =    12.4884 eV,     .9179 Ry                                                             
                                                                                                    
   TITEL  = PAW_PBE H 15Jun2001                                                                     
   LULTRA =        F    use ultrasoft PP ?                                                          
   IUNSCR =        0    unscreen: 0-lin 1-nonlin 2-no                                               
   RPACOR =     .000    partial core radius                                                         
   POMASS =    1.000; ZVAL   =    1.000    mass and valenz                                          
   RCORE  =    1.100    outmost cutoff radius                                                       
   RWIGS  =     .700; RWIGS  =     .370    wigner-seitz radius (au A)                               
   ENMAX  =  250.000; ENMIN  =  200.000 eV                                                          
   RCLOC  =     .701    cutoff for local pot                                                        
   LCOR   =        T    correct aug charges                                                         
   LPAW   =        T    paw PP                                                                      
   EAUG   =  400.000                                                                                
   RMAX   =    2.174    core radius for proj-oper                                                   
   RAUG   =    1.200    factor for augmentation sphere                                              
   RDEP   =    1.112    radius for radial grids                                                     
   QCUT   =   -5.749; QGAM   =   11.498    optimization parameters                                  
                                                                                                    
   Description                                                                                      
     l     E      TYP  RCUT    TYP  RCUT                                                            
     0   .000     23  1.100                                                                         
     0   .500     23  1.100                                                                         
     1  -.300     23  1.100                                                                         
  local pseudopotential read in
  atomic valenz-charges read in
  non local Contribution for L=           0  read in
    real space projection operators read in
  non local Contribution for L=           0  read in
    real space projection operators read in
  non local Contribution for L=           1  read in
    real space projection operators read in
    PAW grid and wavefunctions read in
 
   number of l-projection  operators is LMAX  =           3
   number of lm-projection operators is LMMAX =           5
 
 Optimization of the real space projectors (new method)

 maximal supplied QI-value         = 25.13
 optimisation between [QCUT,QGAM] = [ 11.56, 23.12] = [ 37.43,149.72] Ry 
 Optimized for a Real-space Cutoff    1.04 Angstroem

   l    n(q)    QCUT    max X(q) W(low)/X(q) W(high)/X(q)  e(spline) 
   0      7    11.561     5.582    0.47E-04    0.94E-04    0.17E-07
   0      7    11.561    69.432    0.20E-03    0.59E-03    0.21E-06
   1      7    11.561     2.780    0.24E-04    0.70E-04    0.44E-07
   1      7    11.561     4.549    0.18E-03    0.25E-03    0.12E-06
 Optimization of the real space projectors (new method)

 maximal supplied QI-value         = 34.20
 optimisation between [QCUT,QGAM] = [ 11.63, 23.26] = [ 37.87,151.49] Ry 
 Optimized for a Real-space Cutoff    1.21 Angstroem

   l    n(q)    QCUT    max X(q) W(low)/X(q) W(high)/X(q)  e(spline) 
   0      8    11.629     4.436    0.19E-04    0.32E-04    0.47E-07
   0      8    11.629    16.131    0.16E-03    0.33E-03    0.21E-06
   1      8    11.629     4.654    0.18E-03    0.16E-03    0.26E-06
 PAW_PBE C 08Apr2002                    :
 energy of atom  1       EATOM= -147.1560
 kinetic energy error for atom=    0.0071 (will be added to EATOM!!)
 PAW_PBE H 15Jun2001                    :
 energy of atom  2       EATOM=  -12.4884
 kinetic energy error for atom=    0.0014 (will be added to EATOM!!)
 
 
 POSCAR:  C  H
  positions in cartesian coordinates
  No initial velocities read in
 exchange correlation table for  LEXCH =        8
   RHO(1)=    0.500       N(1)  =     2000
   RHO(2)=  100.500       N(2)  =     4000

 VTST: version 4.1, (05/19/21)

 CHAIN: initializing optimizer
 
 OPT: Using VASP Dynamics algorithm
 CHAIN: Read ICHAIN            0
 
 POSCAR:  C  H
  positions in cartesian coordinates
  No initial velocities read in
 


--------------------------------------------------------------------------------------------------------


 ion  position               nearest neighbor table
   1  0.539  0.480  0.396-   6 1.07   5 1.08   2 1.38
   2  0.487  0.535  0.448-   7 1.08   1 1.38   3 1.51
   3  0.480  0.537  0.549-   8 1.11   4 1.39   2 1.51
   4  0.486  0.466  0.609-   9 1.06  10 1.09   3 1.39
   5  0.538  0.489  0.324-   1 1.08
   6  0.574  0.421  0.414-   1 1.07
   7  0.457  0.590  0.413-   2 1.08
   8  0.456  0.601  0.578-   3 1.11
   9  0.504  0.402  0.589-   4 1.06
  10  0.477  0.479  0.680-   4 1.09
 

IMPORTANT INFORMATION: All symmetrisations will be switched off!
NOSYMM: (Re-)initialisation of all symmetry stuff for point group C_1.


----------------------------------------------------------------------------------------

                                     Primitive cell                                     

  volume of cell :    3375.0000

  direct lattice vectors                    reciprocal lattice vectors
    15.000000000  0.000000000  0.000000000     0.066666667  0.000000000  0.000000000
     0.000000000 15.000000000  0.000000000     0.000000000  0.066666667  0.000000000
     0.000000000  0.000000000 15.000000000     0.000000000  0.000000000  0.066666667

  length of vectors
    15.000000000 15.000000000 15.000000000     0.066666667  0.066666667  0.066666667

  position of ions in fractional coordinates (direct lattice)
     0.539133326  0.480133343  0.395600001
     0.487333330  0.534999975  0.448333327
     0.480466652  0.537000020  0.549066671
     0.486133321  0.466399988  0.609133339
     0.538333321  0.488733323  0.324333318
     0.573999977  0.420866680  0.414333344
     0.457466666  0.590466690  0.412866656
     0.456199996  0.600733312  0.577799988
     0.504333337  0.401533318  0.588533338
     0.476600011  0.479066658  0.679933357

  ion indices of the primitive-cell ions
   primitive index   ion index
                 1           1
                 2           2
                 3           3
                 4           4
                 5           5
                 6           6
                 7           7
                 8           8
                 9           9
                10          10

----------------------------------------------------------------------------------------

 
 
 KPOINTS: K-Spacing Value to Generate K-Mesh: 1.00

Automatic generation of k-mesh.
 Grid dimensions read from file:
 generate k-points for:    1    1    1

 Generating k-lattice:

  Cartesian coordinates                     Fractional coordinates (reciprocal lattice)
     0.066666667  0.000000000  0.000000000     1.000000000  0.000000000  0.000000000
     0.000000000  0.066666667  0.000000000     0.000000000  1.000000000  0.000000000
     0.000000000  0.000000000  0.066666667     0.000000000  0.000000000  1.000000000

  Length of vectors
     0.066666667  0.066666667  0.066666667

  Shift w.r.t. Gamma in fractional coordinates (k-lattice)
     0.000000000  0.000000000  0.000000000

 
 Subroutine IBZKPT returns following result:
 ===========================================
 
 Found      1 irreducible k-points:
 
 Following reciprocal coordinates:
            Coordinates               Weight
  0.000000  0.000000  0.000000      1.000000
 
 Following cartesian coordinates:
            Coordinates               Weight
  0.000000  0.000000  0.000000      1.000000
 


--------------------------------------------------------------------------------------------------------




 Dimension of arrays:
   k-points           NKPTS =      1   k-points in BZ     NKDIM =      1   number of bands    NBANDS=     24
   number of dos      NEDOS =    301   number of ions     NIONS =     10
   non local maximal  LDIM  =      4   non local SUM 2l+1 LMDIM =      8
   total plane-waves  NPLWV = ******
   max r-space proj   IRMAX =   3145   max aug-charges    IRDMAX=  39494
   dimension x,y,z NGX =   112 NGY =  112 NGZ =  112
   dimension x,y,z NGXF=   224 NGYF=  224 NGZF=  224
   support grid    NGXF=   448 NGYF=  448 NGZF=  448
   ions per type =               4   6
   NGX,Y,Z   is equivalent  to a cutoff of  12.41, 12.41, 12.41 a.u.
   NGXF,Y,Z  is equivalent  to a cutoff of  24.83, 24.83, 24.83 a.u.

 SYSTEM =  unknown system                          
 POSCAR =   C  H                                   

 Startparameter for this run:
   NWRITE =      2    write-flag & timer
   PREC   = accura    normal or accurate (medium, high low for compatibility)
   ISTART =      0    job   : 0-new  1-cont  2-samecut
   ICHARG =      2    charge: 1-file 2-atom 10-const
   ISPIN  =      1    spin polarized calculation?
   LNONCOLLINEAR =      F non collinear calculations
   LSORBIT =      F    spin-orbit coupling
   INIWAV =      1    electr: 0-lowe 1-rand  2-diag
   LASPH  =      T    aspherical Exc in radial PAW
 Electronic Relaxation 1
   ENCUT  =  520.0 eV  38.22 Ry    6.18 a.u.  27.89 27.89 27.89*2*pi/ulx,y,z
   ENINI  =  520.0     initial cutoff
   ENAUG  =  644.9 eV  augmentation charge cutoff
   NELM   =     60;   NELMIN=  2; NELMDL= -5     # of ELM steps 
   EDIFF  = 0.1E-05   stopping-criterion for ELM
   LREAL  =      T    real-space projection
   NLSPLINE    = F    spline interpolate recip. space projectors
   LCOMPAT=      F    compatible to vasp.4.4
   GGA_COMPAT  = T    GGA compatible to vasp.4.4-vasp.4.6
   LMAXPAW     = -100 max onsite density
   LMAXMIX     =    2 max onsite mixed and CHGCAR
   VOSKOWN=      0    Vosko Wilk Nusair interpolation
   ROPT   =   -0.00025  -0.00025
 Ionic relaxation
   EDIFFG = 0.1E-04   stopping-criterion for IOM
   NSW    =      0    number of steps for IOM
   NBLOCK =      1;   KBLOCK =      1    inner block; outer block 
   IBRION =     -1    ionic relax: 0-MD 1-quasi-New 2-CG
   NFREE  =      0    steps in history (QN), initial steepest desc. (CG)
   ISIF   =      2    stress and relaxation
   IWAVPR =     10    prediction:  0-non 1-charg 2-wave 3-comb
   ISYM   =      0    0-nonsym 1-usesym 2-fastsym
   LCORR  =      T    Harris-Foulkes like correction to forces

   POTIM  = 0.5000    time-step for ionic-motion
   TEIN   =    0.0    initial temperature
   TEBEG  =  300.0;   TEEND  = 700.0 temperature during run
   SMASS  =  -3.00    Nose mass-parameter (am)
   estimated Nose-frequenzy (Omega)   =  0.10E-29 period in steps = 0.13E+47 mass=  -0.514E-26a.u.
   SCALEE = 1.0000    scale energy and forces
   NPACO  =    256;   APACO  = 10.0  distance and # of slots for P.C.
   PSTRESS=    0.0 pullay stress

  Mass of Ions in am
   POMASS =  12.01  1.00
  Ionic Valenz
   ZVAL   =   4.00  1.00
  Atomic Wigner-Seitz radii
   RWIGS  =  -1.00 -1.00
  virtual crystal weights 
   VCA    =   1.00  1.00
   NELECT =      22.0000    total number of electrons
   NUPDOWN=      -1.0000    fix difference up-down

 DOS related values:
   EMIN   =  10.00;   EMAX   =-10.00  energy-range for DOS
   EFERMI =   0.00;   METHOD = LEGACY      
   ISMEAR =     0;   SIGMA  =   0.05  broadening in eV -4-tet -1-fermi 0-gaus

 Electronic relaxation 2 (details)
   IALGO  =     38    algorithm
   LDIAG  =      T    sub-space diagonalisation (order eigenvalues)
   LSUBROT=      F    optimize rotation matrix (better conditioning)
   TURBO    =      0    0=normal 1=particle mesh
   IRESTART =      0    0=no restart 2=restart with 2 vectors
   NREBOOT  =      0    no. of reboots
   NMIN     =      0    reboot dimension
   EREF     =   0.00    reference energy to select bands
   IMIX   =      4    mixing-type and parameters
     AMIX     =   0.40;   BMIX     =  1.00
     AMIX_MAG =   1.60;   BMIX_MAG =  1.00
     AMIN     =   0.10
     WC   =   100.;   INIMIX=   1;  MIXPRE=   1;  MAXMIX= -45

 Intra band minimization:
   WEIMIN = 0.0000     energy-eigenvalue tresh-hold
   EBREAK =  0.10E-07  absolut break condition
   DEPER  =   0.30     relativ break condition  

   TIME   =   0.40     timestep for ELM

  volume/ion in A,a.u.               =     337.50      2277.56
  Fermi-wavevector in a.u.,A,eV,Ry     =   0.305814  0.577905  1.272449  0.093522
  Thomas-Fermi vector in A             =   1.179187
 
 Write flags
   LWAVE        =      F    write WAVECAR
   LDOWNSAMPLE  =      F    k-point downsampling of WAVECAR
   LCHARG       =      F    write CHGCAR
   LVTOT        =      F    write LOCPOT, total local potential
   LVHAR        =      F    write LOCPOT, Hartree potential only
   LELF         =      F    write electronic localiz. function (ELF)
   LORBIT       =      0    0 simple, 1 ext, 2 COOP (PROOUT), +10 PAW based schemes


 Dipole corrections
   LMONO  =      F    monopole corrections only (constant potential shift)
   LDIPOL =      F    correct potential (dipole corrections)
   IDIPOL =      0    1-x, 2-y, 3-z, 4-all directions 
   EPSILON=  1.0000000 bulk dielectric constant

 Exchange correlation treatment:
   GGA     =    --    GGA type
   LEXCH   =     8    internal setting for exchange type
   LIBXC   =     F    Libxc                    
   VOSKOWN =     0    Vosko Wilk Nusair interpolation
   LHFCALC =     F    Hartree Fock is set to
   LHFONE  =     F    Hartree Fock one center treatment
   AEXX    =    0.0000 exact exchange contribution

 Linear response parameters
   LEPSILON=     F    determine dielectric tensor
   LRPA    =     F    only Hartree local field effects (RPA)
   LNABLA  =     F    use nabla operator in PAW spheres
   LVEL    =     F    velocity operator in full k-point grid
   CSHIFT  =0.1000    complex shift for real part using Kramers Kronig
   OMEGAMAX=  -1.0    maximum frequency
   DEG_THRESHOLD= 0.2000000E-02 threshold for treating states as degnerate
   RTIME   =   -0.100 relaxation time in fs
  (WPLASMAI=    0.000 imaginary part of plasma frequency in eV, 0.658/RTIME)
   DFIELD  = 0.0000000 0.0000000 0.0000000 field for delta impulse in time
 
  Optional k-point grid parameters
   LKPOINTS_OPT  =     F    use optional k-point grid
   KPOINTS_OPT_MODE=     1    mode for optional k-point grid
 
 Orbital magnetization related:
   ORBITALMAG=     F  switch on orbital magnetization
   LCHIMAG   =     F  perturbation theory with respect to B field
   DQ        =  0.001000  dq finite difference perturbation B field
   LLRAUG    =     F  two centre corrections for induced B field
   LBONE     =     F  B-component reconstruction in AE one-centre
   LVGVCALC  =     T  calculate vGv susceptibility
   LVGVAPPL  =     F  apply vGv susceptibility instead of pGv for G=0

 Random number generation:
   RANDOM_GENERATOR = DEFAULT
   PCG_SEED         = not used


--------------------------------------------------------------------------------------------------------


 Static calculation
 charge density and potential will be updated during run
 non-spin polarized calculation
 Variant of blocked Davidson
 Davidson routine will perform the subspace rotation
 perform sub-space diagonalisation
    after iterative eigenvector-optimisation
 modified Broyden-mixing scheme, WC =      100.0
 initial mixing is a Kerker type mixing with AMIX =  0.4000 and BMIX =      1.0000
 Hartree-type preconditioning will be used
 using additional bands           13
 real space projection scheme for non local part
 calculate Harris-corrections to forces 
   (improved forces if not selfconsistent)
 use gradient corrections 
 use of overlap-Matrix (Vanderbilt PP)
 Gauss-broadening in eV      SIGMA  =   0.05


--------------------------------------------------------------------------------------------------------


  energy-cutoff  :      520.00
  volume of cell :     3375.00
      direct lattice vectors                 reciprocal lattice vectors
    15.000000000  0.000000000  0.000000000     0.066666667  0.000000000  0.000000000
     0.000000000 15.000000000  0.000000000     0.000000000  0.066666667  0.000000000
     0.000000000  0.000000000 15.000000000     0.000000000  0.000000000  0.066666667

  length of vectors
    15.000000000 15.000000000 15.000000000     0.066666667  0.066666667  0.066666667


 
 k-points in units of 2pi/SCALE and weight: K-Spacing Value to Generate K-Mesh: 1.00
   0.00000000  0.00000000  0.00000000       1.000
 
 k-points in reciprocal lattice and weights: K-Spacing Value to Generate K-Mesh: 1.00
   0.00000000  0.00000000  0.00000000       1.000
 
 position of ions in fractional coordinates (direct lattice) 
   0.53913333  0.48013334  0.39560000
   0.48733333  0.53499997  0.44833333
   0.48046665  0.53700002  0.54906667
   0.48613332  0.46639999  0.60913334
   0.53833332  0.48873332  0.32433332
   0.57399998  0.42086668  0.41433334
   0.45746667  0.59046669  0.41286666
   0.45620000  0.60073331  0.57779999
   0.50433334  0.40153332  0.58853334
   0.47660001  0.47906666  0.67993336
 
 position of ions in cartesian coordinates  (Angst):
   8.08699989  7.20200014  5.93400002
   7.30999994  8.02499962  6.72499990
   7.20699978  8.05500031  8.23600006
   7.29199982  6.99599981  9.13700008
   8.07499981  7.33099985  4.86499977
   8.60999966  6.31300020  6.21500015
   6.86199999  8.85700035  6.19299984
   6.84299994  9.01099968  8.66699982
   7.56500006  6.02299976  8.82800007
   7.14900017  7.18599987 10.19900036
 


--------------------------------------------------------------------------------------------------------


 k-point   1 :   0.0000 0.0000 0.0000  plane waves:   90879

 maximum and minimum number of plane-waves per node :     45467    45412

 maximum number of plane-waves:     90879
 maximum index in each direction: 
   IXMAX=   27   IYMAX=   27   IZMAX=   27
   IXMIN=  -27   IYMIN=  -27   IZMIN=  -27


 real space projection operators:
  total allocation   :       1185.55 KBytes
  max/ min on nodes  :        593.60        591.95


 parallel 3D FFT for wavefunctions:
    minimum data exchange during FFTs selected (reduces bandwidth)
 parallel 3D FFT for charge:
    minimum data exchange during FFTs selected (reduces bandwidth)


 total amount of memory used by VASP MPI-rank0   224780. kBytes
=======================================================================

   base      :      30000. kBytes
   nonlr-proj:       1256. kBytes
   fftplans  :     123538. kBytes
   grid      :      67787. kBytes
   one-center:         15. kBytes
   wavefun   :       2184. kBytes
 
     INWAV:  cpu time      0.0000: real time      0.0000
 Broyden mixing: mesh for mixing (old mesh)
   NGX = 55   NGY = 55   NGZ = 55
  (NGX  =224   NGY  =224   NGZ  =224)
  gives a total of 166375 points

 initial charge density was supplied:
 charge density of overlapping atoms calculated
 number of electron      22.0000000 magnetization 
 keeping initial charge density in first step


--------------------------------------------------------------------------------------------------------


 Maximum index for non-local projection operator         1514
 Maximum index for augmentation-charges         2474 (set IRDMAX)


--------------------------------------------------------------------------------------------------------


 First call to EWALD:  gamma=   0.118
 Maximum number of real-space cells 3x 3x 3
 Maximum number of reciprocal cells 3x 3x 3

    FEWALD:  cpu time      0.0010: real time      0.0010


--------------------------------------- Ionic step        1  -------------------------------------------




--------------------------------------- Iteration      1(   1)  ---------------------------------------


    POTLOK:  cpu time      0.3345: real time      0.3363
    SETDIJ:  cpu time      0.1942: real time      0.1950
     EDDAV:  cpu time      0.4166: real time      0.4188
       DOS:  cpu time      0.0003: real time      0.0003
    --------------------------------------------
      LOOP:  cpu time      0.9456: real time      0.9504

 eigenvalue-minimisations  :    64
 total energy-change (2. order) : 0.9974782E+02  (-0.5298952E+03)
 number of electron      22.0000000 magnetization 
 augmentation part       22.0000000 magnetization 

 Free energy of the ion-electron system (eV)
  ---------------------------------------------------
  alpha Z        PSCENC =         0.62641250
  Ewald energy   TEWEN  =       854.61970848
  -Hartree energ DENC   =     -1282.04598605
  -exchange      EXHF   =         0.00000000
  -V(xc)+E(xc)   XCENC  =        66.95511071
  PAW double counting   =       156.01372664     -160.66969168
  entropy T*S    EENTRO =        -0.00361847
  eigenvalues    EBANDS =      -199.26524492
  atomic energy  EATOM  =       663.51739852
  Solvation  Ediel_sol  =         0.00000000
  ---------------------------------------------------
  free energy    TOTEN  =        99.74781573 eV

  energy without entropy =       99.75143420  energy(sigma->0) =       99.74962497


--------------------------------------------------------------------------------------------------------




--------------------------------------- Iteration      1(   2)  ---------------------------------------


     EDDAV:  cpu time      0.4841: real time      0.4867
       DOS:  cpu time      0.0001: real time      0.0001
    --------------------------------------------
      LOOP:  cpu time      0.4842: real time      0.4868

 eigenvalue-minimisations  :    80
 total energy-change (2. order) :-0.1207892E+03  (-0.1182020E+03)
 number of electron      22.0000000 magnetization 
 augmentation part       22.0000000 magnetization 

 Free energy of the ion-electron system (eV)
  ---------------------------------------------------
  alpha Z        PSCENC =         0.62641250
  Ewald energy   TEWEN  =       854.61970848
  -Hartree energ DENC   =     -1282.04598605
  -exchange      EXHF   =         0.00000000
  -V(xc)+E(xc)   XCENC  =        66.95511071
  PAW double counting   =       156.01372664     -160.66969168
  entropy T*S    EENTRO =        -0.00000000
  eigenvalues    EBANDS =      -320.05807517
  atomic energy  EATOM  =       663.51739852
  Solvation  Ediel_sol  =         0.00000000
  ---------------------------------------------------
  free energy    TOTEN  =       -21.04139605 eV

  energy without entropy =      -21.04139605  energy(sigma->0) =      -21.04139605


--------------------------------------------------------------------------------------------------------




--------------------------------------- Iteration      1(   3)  ---------------------------------------


     EDDAV:  cpu time      0.4427: real time      0.4452
       DOS:  cpu time      0.0001: real time      0.0001
    --------------------------------------------
      LOOP:  cpu time      0.4428: real time      0.4453

 eigenvalue-minimisations  :    72
 total energy-change (2. order) :-0.3939406E+02  (-0.3928862E+02)
 number of electron      22.0000000 magnetization 
 augmentation part       22.0000000 magnetization 

 Free energy of the ion-electron system (eV)
  ---------------------------------------------------
  alpha Z        PSCENC =         0.62641250
  Ewald energy   TEWEN  =       854.61970848
  -Hartree energ DENC   =     -1282.04598605
  -exchange      EXHF   =         0.00000000
  -V(xc)+E(xc)   XCENC  =        66.95511071
  PAW double counting   =       156.01372664     -160.66969168
  entropy T*S    EENTRO =        -0.00000000
  eigenvalues    EBANDS =      -359.45213757
  atomic energy  EATOM  =       663.51739852
  Solvation  Ediel_sol  =         0.00000000
  ---------------------------------------------------
  free energy    TOTEN  =       -60.43545845 eV

  energy without entropy =      -60.43545845  energy(sigma->0) =      -60.43545845


--------------------------------------------------------------------------------------------------------




--------------------------------------- Iteration      1(   4)  ---------------------------------------


     EDDAV:  cpu time      0.4426: real time      0.4450
       DOS:  cpu time      0.0001: real time      0.0001
    --------------------------------------------
      LOOP:  cpu time      0.4427: real time      0.4451

 eigenvalue-minimisations  :    72
 total energy-change (2. order) :-0.2402072E+01  (-0.2400148E+01)
 number of electron      22.0000000 magnetization 
 augmentation part       22.0000000 magnetization 

 Free energy of the ion-electron system (eV)
  ---------------------------------------------------
  alpha Z        PSCENC =         0.62641250
  Ewald energy   TEWEN  =       854.61970848
  -Hartree energ DENC   =     -1282.04598605
  -exchange      EXHF   =         0.00000000
  -V(xc)+E(xc)   XCENC  =        66.95511071
  PAW double counting   =       156.01372664     -160.66969168
  entropy T*S    EENTRO =        -0.00000000
  eigenvalues    EBANDS =      -361.85421005
  atomic energy  EATOM  =       663.51739852
  Solvation  Ediel_sol  =         0.00000000
  ---------------------------------------------------
  free energy    TOTEN  =       -62.83753093 eV

  energy without entropy =      -62.83753093  energy(sigma->0) =      -62.83753093


--------------------------------------------------------------------------------------------------------




--------------------------------------- Iteration      1(   5)  ---------------------------------------


     EDDAV:  cpu time      0.4060: real time      0.4082
       DOS:  cpu time      0.0001: real time      0.0001
    CHARGE:  cpu time      0.1998: real time      0.2006
    MIXING:  cpu time      0.0152: real time      0.0153
    --------------------------------------------
      LOOP:  cpu time      0.6212: real time      0.6242

 eigenvalue-minimisations  :    64
 total energy-change (2. order) :-0.1912699E-01  (-0.1911809E-01)
 number of electron      22.0000000 magnetization 
 augmentation part        0.5717244 magnetization 

 Broyden mixing:
  rms(total) = 0.11757E+01    rms(broyden)= 0.11755E+01
  rms(prec ) = 0.14019E+01
  weight for this iteration     100.00

 Free energy of the ion-electron system (eV)
  ---------------------------------------------------
  alpha Z        PSCENC =         0.62641250
  Ewald energy   TEWEN  =       854.61970848
  -Hartree energ DENC   =     -1282.04598605
  -exchange      EXHF   =         0.00000000
  -V(xc)+E(xc)   XCENC  =        66.95511071
  PAW double counting   =       156.01372664     -160.66969168
  entropy T*S    EENTRO =        -0.00000000
  eigenvalues    EBANDS =      -361.87333704
  atomic energy  EATOM  =       663.51739852
  Solvation  Ediel_sol  =         0.00000000
  ---------------------------------------------------
  free energy    TOTEN  =       -62.85665792 eV

  energy without entropy =      -62.85665792  energy(sigma->0) =      -62.85665792


--------------------------------------------------------------------------------------------------------




--------------------------------------- Iteration      1(   6)  ---------------------------------------


    POTLOK:  cpu time      0.3058: real time      0.3074
    SETDIJ:  cpu time      0.1933: real time      0.1941
     EDDAV:  cpu time      0.4054: real time      0.4077
       DOS:  cpu time      0.0001: real time      0.0001
    CHARGE:  cpu time      0.1983: real time      0.1991
    MIXING:  cpu time      0.0108: real time      0.0108
    --------------------------------------------
      LOOP:  cpu time      1.1138: real time      1.1193

 eigenvalue-minimisations  :    64
 total energy-change (2. order) : 0.4880148E+01  (-0.7198597E+00)
 number of electron      22.0000000 magnetization 
 augmentation part        0.5256239 magnetization 

 Broyden mixing:
  rms(total) = 0.57467E+00    rms(broyden)= 0.57465E+00
  rms(prec ) = 0.68055E+00
  weight for this iteration     100.00

 eigenvalues of (default mixing * dielectric matrix)
  average eigenvalue GAMMA=   1.6228
  1.6228

 Free energy of the ion-electron system (eV)
  ---------------------------------------------------
  alpha Z        PSCENC =         0.62641250
  Ewald energy   TEWEN  =       854.61970848
  -Hartree energ DENC   =     -1326.55182304
  -exchange      EXHF   =         0.00000000
  -V(xc)+E(xc)   XCENC  =        69.36231922
  PAW double counting   =       225.99082021     -231.17135180
  entropy T*S    EENTRO =        -0.00000000
  eigenvalues    EBANDS =      -314.36999408
  atomic energy  EATOM  =       663.51739852
  Solvation  Ediel_sol  =         0.00000000
  ---------------------------------------------------
  free energy    TOTEN  =       -57.97650999 eV

  energy without entropy =      -57.97650999  energy(sigma->0) =      -57.97650999


--------------------------------------------------------------------------------------------------------




--------------------------------------- Iteration      1(   7)  ---------------------------------------


    POTLOK:  cpu time      0.3076: real time      0.3093
    SETDIJ:  cpu time      0.1934: real time      0.1942
     EDDAV:  cpu time      0.4096: real time      0.4118
       DOS:  cpu time      0.0001: real time      0.0001
    CHARGE:  cpu time      0.2021: real time      0.2029
    MIXING:  cpu time      0.0085: real time      0.0085
    --------------------------------------------
      LOOP:  cpu time      1.1213: real time      1.1268

 eigenvalue-minimisations  :    64
 total energy-change (2. order) : 0.1246207E+01  (-0.4138015E+00)
 number of electron      22.0000000 magnetization 
 augmentation part        0.4939884 magnetization 

 Broyden mixing:
  rms(total) = 0.21899E+00    rms(broyden)= 0.21893E+00
  rms(prec ) = 0.25208E+00
  weight for this iteration     100.00

 eigenvalues of (default mixing * dielectric matrix)
  average eigenvalue GAMMA=   1.5694
  1.3801  1.7587

 Free energy of the ion-electron system (eV)
  ---------------------------------------------------
  alpha Z        PSCENC =         0.62641250
  Ewald energy   TEWEN  =       854.61970848
  -Hartree energ DENC   =     -1364.00551561
  -exchange      EXHF   =         0.00000000
  -V(xc)+E(xc)   XCENC  =        71.55103431
  PAW double counting   =       285.51962033     -290.95095332
  entropy T*S    EENTRO =        -0.00000000
  eigenvalues    EBANDS =      -277.60800817
  atomic energy  EATOM  =       663.51739852
  Solvation  Ediel_sol  =         0.00000000
  ---------------------------------------------------
  free energy    TOTEN  =       -56.73030295 eV

  energy without entropy =      -56.73030295  energy(sigma->0) =      -56.73030295


--------------------------------------------------------------------------------------------------------




--------------------------------------- Iteration      1(   8)  ---------------------------------------


    POTLOK:  cpu time      0.3110: real time      0.3127
    SETDIJ:  cpu time      0.1937: real time      0.1945
     EDDAV:  cpu time      0.3690: real time      0.3710
       DOS:  cpu time      0.0001: real time      0.0001
    CHARGE:  cpu time      0.1996: real time      0.2004
    MIXING:  cpu time      0.0097: real time      0.0098
    --------------------------------------------
      LOOP:  cpu time      1.0831: real time      1.0884

 eigenvalue-minimisations  :    56
 total energy-change (2. order) : 0.1342498E+00  (-0.1769805E-01)
 number of electron      22.0000000 magnetization 
 augmentation part        0.4926223 magnetization 

 Broyden mixing:
  rms(total) = 0.94697E-01    rms(broyden)= 0.94692E-01
  rms(prec ) = 0.11851E+00
  weight for this iteration     100.00

 eigenvalues of (default mixing * dielectric matrix)
  average eigenvalue GAMMA=   1.6444
  2.4257  0.8717  1.6357

 Free energy of the ion-electron system (eV)
  ---------------------------------------------------
  alpha Z        PSCENC =         0.62641250
  Ewald energy   TEWEN  =       854.61970848
  -Hartree energ DENC   =     -1370.12199957
  -exchange      EXHF   =         0.00000000
  -V(xc)+E(xc)   XCENC  =        72.00212806
  PAW double counting   =       291.67947492     -297.03693769
  entropy T*S    EENTRO =        -0.00000000
  eigenvalues    EBANDS =      -271.88223840
  atomic energy  EATOM  =       663.51739852
  Solvation  Ediel_sol  =         0.00000000
  ---------------------------------------------------
  free energy    TOTEN  =       -56.59605318 eV

  energy without entropy =      -56.59605318  energy(sigma->0) =      -56.59605318


--------------------------------------------------------------------------------------------------------




--------------------------------------- Iteration      1(   9)  ---------------------------------------


    POTLOK:  cpu time      0.3126: real time      0.3142
    SETDIJ:  cpu time      0.1927: real time      0.1935
     EDDAV:  cpu time      0.4077: real time      0.4100
       DOS:  cpu time      0.0001: real time      0.0001
    CHARGE:  cpu time      0.1988: real time      0.1996
    MIXING:  cpu time      0.0106: real time      0.0106
    --------------------------------------------
      LOOP:  cpu time      1.1225: real time      1.1281

 eigenvalue-minimisations  :    64
 total energy-change (2. order) : 0.5036127E-01  (-0.7673214E-02)
 number of electron      22.0000000 magnetization 
 augmentation part        0.4913603 magnetization 

 Broyden mixing:
  rms(total) = 0.26962E-01    rms(broyden)= 0.26955E-01
  rms(prec ) = 0.49311E-01
  weight for this iteration     100.00

 eigenvalues of (default mixing * dielectric matrix)
  average eigenvalue GAMMA=   1.4236
  2.2582  1.6509  0.8927  0.8927

 Free energy of the ion-electron system (eV)
  ---------------------------------------------------
  alpha Z        PSCENC =         0.62641250
  Ewald energy   TEWEN  =       854.61970848
  -Hartree energ DENC   =     -1376.47807816
  -exchange      EXHF   =         0.00000000
  -V(xc)+E(xc)   XCENC  =        72.39009087
  PAW double counting   =       295.67241005     -300.96960004
  entropy T*S    EENTRO =        -0.00000000
  eigenvalues    EBANDS =      -265.92403412
  atomic energy  EATOM  =       663.51739852
  Solvation  Ediel_sol  =         0.00000000
  ---------------------------------------------------
  free energy    TOTEN  =       -56.54569191 eV

  energy without entropy =      -56.54569191  energy(sigma->0) =      -56.54569191


--------------------------------------------------------------------------------------------------------




--------------------------------------- Iteration      1(  10)  ---------------------------------------


    POTLOK:  cpu time      0.3132: real time      0.3148
    SETDIJ:  cpu time      0.1933: real time      0.1941
     EDDAV:  cpu time      0.4857: real time      0.4884
       DOS:  cpu time      0.0001: real time      0.0001
    CHARGE:  cpu time      0.1991: real time      0.1999
    MIXING:  cpu time      0.0093: real time      0.0093
    --------------------------------------------
      LOOP:  cpu time      1.2007: real time      1.2066

 eigenvalue-minimisations  :    80
 total energy-change (2. order) : 0.3976644E-02  (-0.1393365E-02)
 number of electron      22.0000000 magnetization 
 augmentation part        0.4904997 magnetization 

 Broyden mixing:
  rms(total) = 0.16581E-01    rms(broyden)= 0.16578E-01
  rms(prec ) = 0.36273E-01
  weight for this iteration     100.00

 eigenvalues of (default mixing * dielectric matrix)
  average eigenvalue GAMMA=   1.6585
  2.6580  2.3096  0.9869  0.9869  1.3514

 Free energy of the ion-electron system (eV)
  ---------------------------------------------------
  alpha Z        PSCENC =         0.62641250
  Ewald energy   TEWEN  =       854.61970848
  -Hartree energ DENC   =     -1378.25276074
  -exchange      EXHF   =         0.00000000
  -V(xc)+E(xc)   XCENC  =        72.41202449
  PAW double counting   =       295.33275892     -300.64063785
  entropy T*S    EENTRO =        -0.00000000
  eigenvalues    EBANDS =      -264.15661959
  atomic energy  EATOM  =       663.51739852
  Solvation  Ediel_sol  =         0.00000000
  ---------------------------------------------------
  free energy    TOTEN  =       -56.54171527 eV

  energy without entropy =      -56.54171527  energy(sigma->0) =      -56.54171527


--------------------------------------------------------------------------------------------------------




--------------------------------------- Iteration      1(  11)  ---------------------------------------


    POTLOK:  cpu time      0.3135: real time      0.3152
    SETDIJ:  cpu time      0.1941: real time      0.1949
     EDDAV:  cpu time      0.3681: real time      0.3701
       DOS:  cpu time      0.0001: real time      0.0001
    CHARGE:  cpu time      0.1993: real time      0.2001
    MIXING:  cpu time      0.0100: real time      0.0101
    --------------------------------------------
      LOOP:  cpu time      1.0851: real time      1.0905

 eigenvalue-minimisations  :    56
 total energy-change (2. order) : 0.1212400E-01  (-0.1153178E-02)
 number of electron      22.0000000 magnetization 
 augmentation part        0.4898090 magnetization 

 Broyden mixing:
  rms(total) = 0.77434E-02    rms(broyden)= 0.77421E-02
  rms(prec ) = 0.17251E-01
  weight for this iteration     100.00

 eigenvalues of (default mixing * dielectric matrix)
  average eigenvalue GAMMA=   1.6989
  3.2067  2.4629  1.4390  1.0096  1.0375  1.0375

 Free energy of the ion-electron system (eV)
  ---------------------------------------------------
  alpha Z        PSCENC =         0.62641250
  Ewald energy   TEWEN  =       854.61970848
  -Hartree energ DENC   =     -1383.34205366
  -exchange      EXHF   =         0.00000000
  -V(xc)+E(xc)   XCENC  =        72.54662180
  PAW double counting   =       294.05671487     -299.35275321
  entropy T*S    EENTRO =        -0.00000000
  eigenvalues    EBANDS =      -259.20164056
  atomic energy  EATOM  =       663.51739852
  Solvation  Ediel_sol  =         0.00000000
  ---------------------------------------------------
  free energy    TOTEN  =       -56.52959127 eV

  energy without entropy =      -56.52959127  energy(sigma->0) =      -56.52959127


--------------------------------------------------------------------------------------------------------




--------------------------------------- Iteration      1(  12)  ---------------------------------------


    POTLOK:  cpu time      0.3112: real time      0.3129
    SETDIJ:  cpu time      0.1921: real time      0.1929
     EDDAV:  cpu time      0.4065: real time      0.4087
       DOS:  cpu time      0.0001: real time      0.0001
    CHARGE:  cpu time      0.1995: real time      0.2003
    MIXING:  cpu time      0.0101: real time      0.0102
    --------------------------------------------
      LOOP:  cpu time      1.1196: real time      1.1252

 eigenvalue-minimisations  :    64
 total energy-change (2. order) :-0.1904473E-02  (-0.1253903E-03)
 number of electron      22.0000000 magnetization 
 augmentation part        0.4895874 magnetization 

 Broyden mixing:
  rms(total) = 0.62982E-02    rms(broyden)= 0.62980E-02
  rms(prec ) = 0.12142E-01
  weight for this iteration     100.00

 eigenvalues of (default mixing * dielectric matrix)
  average eigenvalue GAMMA=   1.9274
  4.3977  2.5418  2.1466  1.4521  0.9556  0.9990  0.9990

 Free energy of the ion-electron system (eV)
  ---------------------------------------------------
  alpha Z        PSCENC =         0.62641250
  Ewald energy   TEWEN  =       854.61970848
  -Hartree energ DENC   =     -1384.77904515
  -exchange      EXHF   =         0.00000000
  -V(xc)+E(xc)   XCENC  =        72.56569605
  PAW double counting   =       293.56995955     -298.86696013
  entropy T*S    EENTRO =        -0.00000000
  eigenvalues    EBANDS =      -257.78466556
  atomic energy  EATOM  =       663.51739852
  Solvation  Ediel_sol  =         0.00000000
  ---------------------------------------------------
  free energy    TOTEN  =       -56.53149574 eV

  energy without entropy =      -56.53149574  energy(sigma->0) =      -56.53149574


--------------------------------------------------------------------------------------------------------




--------------------------------------- Iteration      1(  13)  ---------------------------------------


    POTLOK:  cpu time      0.3073: real time      0.3090
    SETDIJ:  cpu time      0.1924: real time      0.1932
     EDDAV:  cpu time      0.4481: real time      0.4506
       DOS:  cpu time      0.0001: real time      0.0001
    CHARGE:  cpu time      0.1994: real time      0.2003
    MIXING:  cpu time      0.0133: real time      0.0134
    --------------------------------------------
      LOOP:  cpu time      1.1606: real time      1.1665

 eigenvalue-minimisations  :    72
 total energy-change (2. order) :-0.9857114E-02  (-0.1804464E-03)
 number of electron      22.0000000 magnetization 
 augmentation part        0.4895343 magnetization 

 Broyden mixing:
  rms(total) = 0.28141E-02    rms(broyden)= 0.28138E-02
  rms(prec ) = 0.60818E-02
  weight for this iteration     100.00

 eigenvalues of (default mixing * dielectric matrix)
  average eigenvalue GAMMA=   1.9838
  5.1379  2.6972  2.2026  1.4373  1.4373  0.9999  0.9999  0.9582

 Free energy of the ion-electron system (eV)
  ---------------------------------------------------
  alpha Z        PSCENC =         0.62641250
  Ewald energy   TEWEN  =       854.61970848
  -Hartree energ DENC   =     -1385.73483367
  -exchange      EXHF   =         0.00000000
  -V(xc)+E(xc)   XCENC  =        72.56947426
  PAW double counting   =       293.50347228     -298.80033894
  entropy T*S    EENTRO =        -0.00000000
  eigenvalues    EBANDS =      -256.84264629
  atomic energy  EATOM  =       663.51739852
  Solvation  Ediel_sol  =         0.00000000
  ---------------------------------------------------
  free energy    TOTEN  =       -56.54135286 eV

  energy without entropy =      -56.54135286  energy(sigma->0) =      -56.54135286


--------------------------------------------------------------------------------------------------------




--------------------------------------- Iteration      1(  14)  ---------------------------------------


    POTLOK:  cpu time      0.3071: real time      0.3088
    SETDIJ:  cpu time      0.1938: real time      0.1946
     EDDAV:  cpu time      0.4477: real time      0.4502
       DOS:  cpu time      0.0001: real time      0.0001
    CHARGE:  cpu time      0.1985: real time      0.1993
    MIXING:  cpu time      0.0098: real time      0.0099
    --------------------------------------------
      LOOP:  cpu time      1.1570: real time      1.1628

 eigenvalue-minimisations  :    72
 total energy-change (2. order) :-0.6057802E-02  (-0.7793408E-04)
 number of electron      22.0000000 magnetization 
 augmentation part        0.4894293 magnetization 

 Broyden mixing:
  rms(total) = 0.16656E-02    rms(broyden)= 0.16655E-02
  rms(prec ) = 0.35293E-02
  weight for this iteration     100.00

 eigenvalues of (default mixing * dielectric matrix)
  average eigenvalue GAMMA=   2.2410
  6.5585  3.6614  2.3705  2.0593  1.3335  1.3335  0.9680  0.9680  0.9163

 Free energy of the ion-electron system (eV)
  ---------------------------------------------------
  alpha Z        PSCENC =         0.62641250
  Ewald energy   TEWEN  =       854.61970848
  -Hartree energ DENC   =     -1385.98611193
  -exchange      EXHF   =         0.00000000
  -V(xc)+E(xc)   XCENC  =        72.56166324
  PAW double counting   =       293.58636187     -298.88327773
  entropy T*S    EENTRO =        -0.00000000
  eigenvalues    EBANDS =      -256.58956562
  atomic energy  EATOM  =       663.51739852
  Solvation  Ediel_sol  =         0.00000000
  ---------------------------------------------------
  free energy    TOTEN  =       -56.54741066 eV

  energy without entropy =      -56.54741066  energy(sigma->0) =      -56.54741066


--------------------------------------------------------------------------------------------------------




--------------------------------------- Iteration      1(  15)  ---------------------------------------


    POTLOK:  cpu time      0.3016: real time      0.3032
    SETDIJ:  cpu time      0.1907: real time      0.1915
     EDDAV:  cpu time      0.4039: real time      0.4062
       DOS:  cpu time      0.0001: real time      0.0001
    CHARGE:  cpu time      0.1985: real time      0.1993
    MIXING:  cpu time      0.0099: real time      0.0099
    --------------------------------------------
      LOOP:  cpu time      1.1047: real time      1.1102

 eigenvalue-minimisations  :    64
 total energy-change (2. order) :-0.4238467E-02  (-0.6815242E-04)
 number of electron      22.0000000 magnetization 
 augmentation part        0.4894488 magnetization 

 Broyden mixing:
  rms(total) = 0.11817E-02    rms(broyden)= 0.11817E-02
  rms(prec ) = 0.18917E-02
  weight for this iteration     100.00

 eigenvalues of (default mixing * dielectric matrix)
  average eigenvalue GAMMA=   2.2595
  6.7386  4.1555  2.4725  1.9995  1.7947  1.3774  0.9826  0.9826  0.9194  1.1727

 Free energy of the ion-electron system (eV)
  ---------------------------------------------------
  alpha Z        PSCENC =         0.62641250
  Ewald energy   TEWEN  =       854.61970848
  -Hartree energ DENC   =     -1386.00302781
  -exchange      EXHF   =         0.00000000
  -V(xc)+E(xc)   XCENC  =        72.55088255
  PAW double counting   =       293.59727452     -298.89305224
  entropy T*S    EENTRO =        -0.00000000
  eigenvalues    EBANDS =      -256.56724566
  atomic energy  EATOM  =       663.51739852
  Solvation  Ediel_sol  =         0.00000000
  ---------------------------------------------------
  free energy    TOTEN  =       -56.55164913 eV

  energy without entropy =      -56.55164913  energy(sigma->0) =      -56.55164913


--------------------------------------------------------------------------------------------------------




--------------------------------------- Iteration      1(  16)  ---------------------------------------


    POTLOK:  cpu time      0.3001: real time      0.3017
    SETDIJ:  cpu time      0.1923: real time      0.1931
     EDDAV:  cpu time      0.4890: real time      0.4918
       DOS:  cpu time      0.0001: real time      0.0001
    CHARGE:  cpu time      0.1958: real time      0.1966
    MIXING:  cpu time      0.0122: real time      0.0122
    --------------------------------------------
      LOOP:  cpu time      1.1895: real time      1.1955

 eigenvalue-minimisations  :    80
 total energy-change (2. order) :-0.1107272E-02  (-0.1337582E-04)
 number of electron      22.0000000 magnetization 
 augmentation part        0.4893391 magnetization 

 Broyden mixing:
  rms(total) = 0.57017E-03    rms(broyden)= 0.56998E-03
  rms(prec ) = 0.98208E-03
  weight for this iteration     100.00

 eigenvalues of (default mixing * dielectric matrix)
  average eigenvalue GAMMA=   2.3283
  7.8421  4.5321  2.5505  2.4278  1.8891  1.4261  1.1709  0.9791  0.9791  0.9071
  0.9071

 Free energy of the ion-electron system (eV)
  ---------------------------------------------------
  alpha Z        PSCENC =         0.62641250
  Ewald energy   TEWEN  =       854.61970848
  -Hartree energ DENC   =     -1386.11148814
  -exchange      EXHF   =         0.00000000
  -V(xc)+E(xc)   XCENC  =        72.55351236
  PAW double counting   =       293.65241804     -298.94878522
  entropy T*S    EENTRO =        -0.00000000
  eigenvalues    EBANDS =      -256.46193294
  atomic energy  EATOM  =       663.51739852
  Solvation  Ediel_sol  =         0.00000000
  ---------------------------------------------------
  free energy    TOTEN  =       -56.55275640 eV

  energy without entropy =      -56.55275640  energy(sigma->0) =      -56.55275640


--------------------------------------------------------------------------------------------------------




--------------------------------------- Iteration      1(  17)  ---------------------------------------


    POTLOK:  cpu time      0.2973: real time      0.2990
    SETDIJ:  cpu time      0.1907: real time      0.1915
     EDDAV:  cpu time      0.4085: real time      0.4108
       DOS:  cpu time      0.0001: real time      0.0001
    CHARGE:  cpu time      0.1966: real time      0.1974
    MIXING:  cpu time      0.0133: real time      0.0133
    --------------------------------------------
      LOOP:  cpu time      1.1066: real time      1.1122

 eigenvalue-minimisations  :    64
 total energy-change (2. order) :-0.4866161E-03  (-0.3556426E-05)
 number of electron      22.0000000 magnetization 
 augmentation part        0.4893585 magnetization 

 Broyden mixing:
  rms(total) = 0.34140E-03    rms(broyden)= 0.34134E-03
  rms(prec ) = 0.57260E-03
  weight for this iteration     100.00

 eigenvalues of (default mixing * dielectric matrix)
  average eigenvalue GAMMA=   2.3810
  8.1851  4.8992  2.9565  2.4811  1.8317  1.8317  1.4827  1.0320  1.0320  0.9675
  0.9675  0.9048

 Free energy of the ion-electron system (eV)
  ---------------------------------------------------
  alpha Z        PSCENC =         0.62641250
  Ewald energy   TEWEN  =       854.61970848
  -Hartree energ DENC   =     -1386.07696855
  -exchange      EXHF   =         0.00000000
  -V(xc)+E(xc)   XCENC  =        72.55076994
  PAW double counting   =       293.59512477     -298.89131074
  entropy T*S    EENTRO =        -0.00000000
  eigenvalues    EBANDS =      -256.49437793
  atomic energy  EATOM  =       663.51739852
  Solvation  Ediel_sol  =         0.00000000
  ---------------------------------------------------
  free energy    TOTEN  =       -56.55324301 eV

  energy without entropy =      -56.55324301  energy(sigma->0) =      -56.55324301


--------------------------------------------------------------------------------------------------------




--------------------------------------- Iteration      1(  18)  ---------------------------------------


    POTLOK:  cpu time      0.2961: real time      0.2977
    SETDIJ:  cpu time      0.1911: real time      0.1919
     EDDAV:  cpu time      0.4051: real time      0.4074
       DOS:  cpu time      0.0001: real time      0.0001
    CHARGE:  cpu time      0.1970: real time      0.1978
    MIXING:  cpu time      0.0118: real time      0.0119
    --------------------------------------------
      LOOP:  cpu time      1.1011: real time      1.1067

 eigenvalue-minimisations  :    64
 total energy-change (2. order) :-0.2406576E-03  (-0.1267687E-05)
 number of electron      22.0000000 magnetization 
 augmentation part        0.4893623 magnetization 

 Broyden mixing:
  rms(total) = 0.18024E-03    rms(broyden)= 0.18015E-03
  rms(prec ) = 0.29346E-03
  weight for this iteration     100.00

 eigenvalues of (default mixing * dielectric matrix)
  average eigenvalue GAMMA=   2.3518
  8.5110  5.1786  3.1862  2.4585  2.1037  1.6007  1.6007  1.1046  1.1046  0.9704
  0.9704  0.9364  0.8478

 Free energy of the ion-electron system (eV)
  ---------------------------------------------------
  alpha Z        PSCENC =         0.62641250
  Ewald energy   TEWEN  =       854.61970848
  -Hartree energ DENC   =     -1386.09188056
  -exchange      EXHF   =         0.00000000
  -V(xc)+E(xc)   XCENC  =        72.55078097
  PAW double counting   =       293.58114147     -298.87728929
  entropy T*S    EENTRO =        -0.00000000
  eigenvalues    EBANDS =      -256.47975577
  atomic energy  EATOM  =       663.51739852
  Solvation  Ediel_sol  =         0.00000000
  ---------------------------------------------------
  free energy    TOTEN  =       -56.55348367 eV

  energy without entropy =      -56.55348367  energy(sigma->0) =      -56.55348367


--------------------------------------------------------------------------------------------------------




--------------------------------------- Iteration      1(  19)  ---------------------------------------


    POTLOK:  cpu time      0.2972: real time      0.2989
    SETDIJ:  cpu time      0.1913: real time      0.1921
     EDDAV:  cpu time      0.4040: real time      0.4062
       DOS:  cpu time      0.0001: real time      0.0001
    CHARGE:  cpu time      0.1963: real time      0.1971
    MIXING:  cpu time      0.0145: real time      0.0145
    --------------------------------------------
      LOOP:  cpu time      1.1033: real time      1.1089

 eigenvalue-minimisations  :    64
 total energy-change (2. order) :-0.5648472E-04  (-0.1141747E-06)
 number of electron      22.0000000 magnetization 
 augmentation part        0.4893620 magnetization 

 Broyden mixing:
  rms(total) = 0.10415E-03    rms(broyden)= 0.10403E-03
  rms(prec ) = 0.18910E-03
  weight for this iteration     100.00

 eigenvalues of (default mixing * dielectric matrix)
  average eigenvalue GAMMA=   2.4007
  8.6818  5.4700  3.5646  2.4099  2.4099  1.9892  1.4868  1.4868  1.1488  1.1488
  0.9779  0.9779  0.9596  0.8980

 Free energy of the ion-electron system (eV)
  ---------------------------------------------------
  alpha Z        PSCENC =         0.62641250
  Ewald energy   TEWEN  =       854.61970848
  -Hartree energ DENC   =     -1386.09011613
  -exchange      EXHF   =         0.00000000
  -V(xc)+E(xc)   XCENC  =        72.55069217
  PAW double counting   =       293.58798045     -298.88417719
  entropy T*S    EENTRO =        -0.00000000
  eigenvalues    EBANDS =      -256.48143896
  atomic energy  EATOM  =       663.51739852
  Solvation  Ediel_sol  =         0.00000000
  ---------------------------------------------------
  free energy    TOTEN  =       -56.55354016 eV

  energy without entropy =      -56.55354016  energy(sigma->0) =      -56.55354016


--------------------------------------------------------------------------------------------------------




--------------------------------------- Iteration      1(  20)  ---------------------------------------


    POTLOK:  cpu time      0.3010: real time      0.3026
    SETDIJ:  cpu time      0.1914: real time      0.1923
     EDDAV:  cpu time      0.4075: real time      0.4098
       DOS:  cpu time      0.0001: real time      0.0001
    CHARGE:  cpu time      0.1971: real time      0.1979
    MIXING:  cpu time      0.0140: real time      0.0141
    --------------------------------------------
      LOOP:  cpu time      1.1112: real time      1.1168

 eigenvalue-minimisations  :    64
 total energy-change (2. order) :-0.5266326E-04  (-0.1157705E-06)
 number of electron      22.0000000 magnetization 
 augmentation part        0.4893659 magnetization 

 Broyden mixing:
  rms(total) = 0.72050E-04    rms(broyden)= 0.71894E-04
  rms(prec ) = 0.10919E-03
  weight for this iteration     100.00

 eigenvalues of (default mixing * dielectric matrix)
  average eigenvalue GAMMA=   2.3750
  8.8352  5.7385  3.8462  2.6848  2.4569  1.6839  1.6839  1.4161  1.2037  1.2037
  0.9937  0.9937  0.8841  1.0005  1.0005

 Free energy of the ion-electron system (eV)
  ---------------------------------------------------
  alpha Z        PSCENC =         0.62641250
  Ewald energy   TEWEN  =       854.61970848
  -Hartree energ DENC   =     -1386.09167812
  -exchange      EXHF   =         0.00000000
  -V(xc)+E(xc)   XCENC  =        72.55054578
  PAW double counting   =       293.58738085     -298.88354233
  entropy T*S    EENTRO =        -0.00000000
  eigenvalues    EBANDS =      -256.47981850
  atomic energy  EATOM  =       663.51739852
  Solvation  Ediel_sol  =         0.00000000
  ---------------------------------------------------
  free energy    TOTEN  =       -56.55359282 eV

  energy without entropy =      -56.55359282  energy(sigma->0) =      -56.55359282


--------------------------------------------------------------------------------------------------------




--------------------------------------- Iteration      1(  21)  ---------------------------------------


    POTLOK:  cpu time      0.3067: real time      0.3083
    SETDIJ:  cpu time      0.1913: real time      0.1921
     EDDAV:  cpu time      0.4080: real time      0.4104
       DOS:  cpu time      0.0001: real time      0.0001
    CHARGE:  cpu time      0.1984: real time      0.1993
    MIXING:  cpu time      0.0132: real time      0.0133
    --------------------------------------------
      LOOP:  cpu time      1.1178: real time      1.1235

 eigenvalue-minimisations  :    64
 total energy-change (2. order) :-0.1127752E-04  (-0.1184335E-07)
 number of electron      22.0000000 magnetization 
 augmentation part        0.4893644 magnetization 

 Broyden mixing:
  rms(total) = 0.43206E-04    rms(broyden)= 0.42959E-04
  rms(prec ) = 0.66498E-04
  weight for this iteration     100.00

 eigenvalues of (default mixing * dielectric matrix)
  average eigenvalue GAMMA=   2.4157
  8.9411  5.9982  4.2350  2.9187  2.4968  2.0001  2.0001  1.4291  1.3923  1.3923
  0.9922  0.9922  1.0034  1.0034  0.9640  0.8917

 Free energy of the ion-electron system (eV)
  ---------------------------------------------------
  alpha Z        PSCENC =         0.62641250
  Ewald energy   TEWEN  =       854.61970848
  -Hartree energ DENC   =     -1386.09300410
  -exchange      EXHF   =         0.00000000
  -V(xc)+E(xc)   XCENC  =        72.55053617
  PAW double counting   =       293.59134663     -298.88755656
  entropy T*S    EENTRO =        -0.00000000
  eigenvalues    EBANDS =      -256.47844573
  atomic energy  EATOM  =       663.51739852
  Solvation  Ediel_sol  =         0.00000000
  ---------------------------------------------------
  free energy    TOTEN  =       -56.55360410 eV

  energy without entropy =      -56.55360410  energy(sigma->0) =      -56.55360410


--------------------------------------------------------------------------------------------------------




--------------------------------------- Iteration      1(  22)  ---------------------------------------


    POTLOK:  cpu time      0.3106: real time      0.3123
    SETDIJ:  cpu time      0.1930: real time      0.1938
     EDDAV:  cpu time      0.4103: real time      0.4126
       DOS:  cpu time      0.0001: real time      0.0001
    CHARGE:  cpu time      0.1983: real time      0.1991
    MIXING:  cpu time      0.0160: real time      0.0161
    --------------------------------------------
      LOOP:  cpu time      1.1283: real time      1.1339

 eigenvalue-minimisations  :    64
 total energy-change (2. order) :-0.9642502E-05  (-0.1694791E-07)
 number of electron      22.0000000 magnetization 
 augmentation part        0.4893638 magnetization 

 Broyden mixing:
  rms(total) = 0.23236E-04    rms(broyden)= 0.22772E-04
  rms(prec ) = 0.34654E-04
  weight for this iteration     100.00

 eigenvalues of (default mixing * dielectric matrix)
  average eigenvalue GAMMA=   2.4159
  9.0760  6.3395  4.6739  3.1320  2.4214  2.4214  1.7706  1.5367  1.3318  1.3318
  1.2011  0.9896  0.9896  1.0109  1.0109  0.9167  0.9167

 Free energy of the ion-electron system (eV)
  ---------------------------------------------------
  alpha Z        PSCENC =         0.62641250
  Ewald energy   TEWEN  =       854.61970848
  -Hartree energ DENC   =     -1386.09541687
  -exchange      EXHF   =         0.00000000
  -V(xc)+E(xc)   XCENC  =        72.55055409
  PAW double counting   =       293.59112464     -298.88732927
  entropy T*S    EENTRO =        -0.00000000
  eigenvalues    EBANDS =      -256.47606583
  atomic energy  EATOM  =       663.51739852
  Solvation  Ediel_sol  =         0.00000000
  ---------------------------------------------------
  free energy    TOTEN  =       -56.55361374 eV

  energy without entropy =      -56.55361374  energy(sigma->0) =      -56.55361374


--------------------------------------------------------------------------------------------------------




--------------------------------------- Iteration      1(  23)  ---------------------------------------


    POTLOK:  cpu time      0.3109: real time      0.3126
    SETDIJ:  cpu time      0.1927: real time      0.1936
     EDDAV:  cpu time      0.4116: real time      0.4139
       DOS:  cpu time      0.0001: real time      0.0001
    CHARGE:  cpu time      0.1982: real time      0.1990
    MIXING:  cpu time      0.0147: real time      0.0147
    --------------------------------------------
      LOOP:  cpu time      1.1281: real time      1.1339

 eigenvalue-minimisations  :    64
 total energy-change (2. order) :-0.1969718E-05  (-0.2984155E-08)
 number of electron      22.0000000 magnetization 
 augmentation part        0.4893647 magnetization 

 Broyden mixing:
  rms(total) = 0.14734E-04    rms(broyden)= 0.13997E-04
  rms(prec ) = 0.21703E-04
  weight for this iteration     100.00

 eigenvalues of (default mixing * dielectric matrix)
  average eigenvalue GAMMA=   2.4596
  9.1278  6.6219  4.9775  3.4301  2.5369  2.5369  1.9506  1.9506  1.3628  1.3628
  1.4853  1.0580  1.0580  0.9726  0.9726  1.0269  0.9556  0.8867

 Free energy of the ion-electron system (eV)
  ---------------------------------------------------
  alpha Z        PSCENC =         0.62641250
  Ewald energy   TEWEN  =       854.61970848
  -Hartree energ DENC   =     -1386.09513807
  -exchange      EXHF   =         0.00000000
  -V(xc)+E(xc)   XCENC  =        72.55051062
  PAW double counting   =       293.58922897     -298.88541880
  entropy T*S    EENTRO =        -0.00000000
  eigenvalues    EBANDS =      -256.47631792
  atomic energy  EATOM  =       663.51739852
  Solvation  Ediel_sol  =         0.00000000
  ---------------------------------------------------
  free energy    TOTEN  =       -56.55361571 eV

  energy without entropy =      -56.55361571  energy(sigma->0) =      -56.55361571


--------------------------------------------------------------------------------------------------------




--------------------------------------- Iteration      1(  24)  ---------------------------------------


    POTLOK:  cpu time      0.3134: real time      0.3151
    SETDIJ:  cpu time      0.1910: real time      0.1918
     EDDAV:  cpu time      0.3722: real time      0.3744
       DOS:  cpu time      0.0001: real time      0.0001
    CHARGE:  cpu time      0.2001: real time      0.2009
    MIXING:  cpu time      0.0129: real time      0.0129
    --------------------------------------------
      LOOP:  cpu time      1.0897: real time      1.0953

 eigenvalue-minimisations  :    56
 total energy-change (2. order) :-0.1933271E-05  (-0.4638501E-08)
 number of electron      22.0000000 magnetization 
 augmentation part        0.4893642 magnetization 

 Broyden mixing:
  rms(total) = 0.93644E-05    rms(broyden)= 0.81561E-05
  rms(prec ) = 0.12431E-04
  weight for this iteration     100.00
  WARNING: grid for Broyden might be to small

 eigenvalues of (default mixing * dielectric matrix)
  average eigenvalue GAMMA=   2.4433
  9.1327  6.8488  5.1348  3.6930  2.7637  2.4532  2.2075  1.8701  1.3153  1.3153
  1.4356  1.3473  1.0525  1.0525  0.9752  0.9752  0.8881  0.9515  1.0097

 Free energy of the ion-electron system (eV)
  ---------------------------------------------------
  alpha Z        PSCENC =         0.62641250
  Ewald energy   TEWEN  =       854.61970848
  -Hartree energ DENC   =     -1386.09593532
  -exchange      EXHF   =         0.00000000
  -V(xc)+E(xc)   XCENC  =        72.55054154
  PAW double counting   =       293.58983281     -298.88602923
  entropy T*S    EENTRO =        -0.00000000
  eigenvalues    EBANDS =      -256.47554694
  atomic energy  EATOM  =       663.51739852
  Solvation  Ediel_sol  =         0.00000000
  ---------------------------------------------------
  free energy    TOTEN  =       -56.55361764 eV

  energy without entropy =      -56.55361764  energy(sigma->0) =      -56.55361764


--------------------------------------------------------------------------------------------------------




--------------------------------------- Iteration      1(  25)  ---------------------------------------


    POTLOK:  cpu time      0.3158: real time      0.3174
    SETDIJ:  cpu time      0.1907: real time      0.1916
     EDDAV:  cpu time      0.4110: real time      0.4132
       DOS:  cpu time      0.0001: real time      0.0001
    --------------------------------------------
      LOOP:  cpu time      0.9176: real time      0.9222

 eigenvalue-minimisations  :    64
 total energy-change (2. order) :-0.4537968E-06  (-0.8212311E-09)
 number of electron      22.0000000 magnetization 
 augmentation part        0.4893642 magnetization 

 Free energy of the ion-electron system (eV)
  ---------------------------------------------------
  alpha Z        PSCENC =         0.62641250
  Ewald energy   TEWEN  =       854.61970848
  -Hartree energ DENC   =     -1386.09601329
  -exchange      EXHF   =         0.00000000
  -V(xc)+E(xc)   XCENC  =        72.55054825
  PAW double counting   =       293.58972199     -298.88591461
  entropy T*S    EENTRO =        -0.00000000
  eigenvalues    EBANDS =      -256.47547994
  atomic energy  EATOM  =       663.51739852
  Solvation  Ediel_sol  =         0.00000000
  ---------------------------------------------------
  free energy    TOTEN  =       -56.55361810 eV

  energy without entropy =      -56.55361810  energy(sigma->0) =      -56.55361810


--------------------------------------------------------------------------------------------------------




 average (electrostatic) potential at core
  the test charge radii are     0.6991  0.5201
  (the norm of the test charge is              1.0000)
       1 -58.5743       2 -58.9444       3 -58.9497       4 -58.5971       5 -42.0302
       6 -42.2099       7 -42.0911       8 -41.8460       9 -42.3066      10 -42.0389
 
 
 
 E-fermi :  -5.4023     XC(G=0):  -0.4441     alpha+bet : -0.1681

 Fermi energy:        -5.4023442146

 k-point     1 :       0.0000    0.0000    0.0000
  band No.  band energies     occupation 
      1     -19.4580      2.00000
      2     -17.8383      2.00000
      3     -15.2064      2.00000
      4     -13.0810      2.00000
      5     -11.7137      2.00000
      6     -10.5067      2.00000
      7     -10.1115      2.00000
      8      -8.7732      2.00000
      9      -8.3406      2.00000
     10      -7.5175      2.00000
     11      -5.6908      2.00000
     12      -2.1697      0.00000
     13      -0.4278      0.00000
     14       0.0727      0.00000
     15       0.2009      0.00000
     16       0.2209      0.00000
     17       0.3880      0.00000
     18       0.4974      0.00000
     19       0.5425      0.00000
     20       0.6800      0.00000
     21       0.8509      0.00000
     22       0.9552      0.00000
     23       1.0124      0.00000
     24       1.1044      0.00000


--------------------------------------------------------------------------------------------------------


 soft charge-density along one line, spin component           1
         0         1         2         3         4         5         6         7         8         9
 total charge-density along one line
 
 pseudopotential strength for first ion, spin component:           1
 10.253   0.020  -0.001  -0.001  -0.000   0.000   0.000   0.001
  0.020  -0.001   0.000   0.000  -0.000  -0.000   0.000  -0.000
 -0.001   0.000  -4.363  -0.001   0.010  -0.016  -0.000   0.003
 -0.001   0.000  -0.001  -4.366   0.003  -0.000  -0.017   0.001
 -0.000  -0.000   0.010   0.003  -4.357   0.003   0.001  -0.014
  0.000  -0.000  -0.016  -0.000   0.003  -0.773  -0.000   0.000
  0.000   0.000  -0.000  -0.017   0.001  -0.000  -0.773   0.000
  0.001  -0.000   0.003   0.001  -0.014   0.000   0.000  -0.772
 total augmentation occupancy for first ion, spin component:           1
  1.487  -1.078   0.011   0.008  -0.001   0.003   0.005  -0.014
 -1.078   0.863  -0.008  -0.020   0.075  -0.016  -0.014   0.027
  0.011  -0.008   1.113  -0.003  -0.162   0.171   0.005  -0.063
  0.008  -0.020  -0.003   1.200  -0.034   0.005   0.199  -0.020
 -0.001   0.075  -0.162  -0.034   1.007  -0.063  -0.020   0.132
  0.003  -0.016   0.171   0.005  -0.063   0.029   0.003  -0.016
  0.005  -0.014   0.005   0.199  -0.020   0.003   0.035  -0.006
 -0.014   0.027  -0.063  -0.020   0.132  -0.016  -0.006   0.020


------------------------ aborting loop because EDIFF is reached ----------------------------------------


    CHARGE:  cpu time      0.1977: real time      0.1985
    FORLOC:  cpu time      0.0326: real time      0.0327
    FORNL :  cpu time      1.0704: real time      1.0754
    STRESS:  cpu time      3.3880: real time      3.4036
    FORHAR:  cpu time      0.1119: real time      0.1125
    MIXING:  cpu time      0.0122: real time      0.0123
    OFIELD:  cpu time      0.0001: real time      0.0001

  FORCE on cell =-STRESS in cart. coord.  units (eV):
  Direction    XX          YY          ZZ          XY          YZ          ZX
  --------------------------------------------------------------------------------------
  Alpha Z     0.62641     0.62641     0.62641
  Ewald     -77.87695   265.76450   666.73183  -200.23058   -42.97952  -139.45916
  Hartree   255.58885   411.43536   719.07186   -90.85774   -26.76898   -88.97258
  E(xc)     -77.23235   -75.91092   -75.48653    -0.76308    -0.08605    -0.27443
  Local    -393.55640  -868.13171 -1574.94905   276.60661    68.98717   224.67651
  n-local   -28.86616   -31.21987   -30.53335     1.27793     0.15890     0.13171
  augment    -0.50242    -0.62665    -0.61075     0.07301    -0.00014     0.01375
  Kinetic   321.07009   296.97952   290.60418    14.17753     0.89663     5.19696
  Fock        0.00000     0.00000     0.00000     0.00000     0.00000     0.00000
  -------------------------------------------------------------------------------------
  Total      -0.74894    -1.08336    -4.54539     0.28368     0.20801     1.31276
  in kB      -0.35554    -0.51429    -2.15778     0.13467     0.09874     0.62319
  external pressure =       -1.01 kB  Pullay stress =        0.00 kB


 VOLUME and BASIS-vectors are now :
 -----------------------------------------------------------------------------
  energy-cutoff  :      520.00
  volume of cell :     3375.00
      direct lattice vectors                 reciprocal lattice vectors
    15.000000000  0.000000000  0.000000000     0.066666667  0.000000000  0.000000000
     0.000000000 15.000000000  0.000000000     0.000000000  0.066666667  0.000000000
     0.000000000  0.000000000 15.000000000     0.000000000  0.000000000  0.066666667

  length of vectors
    15.000000000 15.000000000 15.000000000     0.066666667  0.066666667  0.066666667


 FORCES acting on ions
    electron-ion (+dipol)            ewald-force                    non-local-force                 convergence-correction
 -----------------------------------------------------------------------------------------------
   -.707E+02 0.572E+02 0.950E+02   0.707E+02 -.563E+02 -.943E+02   -.174E+01 0.315E-01 0.940E-01   0.240E-04 -.367E-04 0.105E-04
   0.498E+02 -.599E+02 0.418E+02   -.499E+02 0.588E+02 -.419E+02   0.190E+01 0.698E-01 0.720E+00   -.589E-05 0.894E-05 0.219E-04
   0.143E+02 -.802E+02 -.374E+02   -.138E+02 0.796E+02 0.383E+02   -.123E+01 -.796E+00 -.582E+00   0.335E-05 -.107E-05 0.226E-04
   0.341E+01 0.797E+02 -.108E+03   -.416E+01 -.787E+02 0.107E+03   0.719E+00 0.189E+01 -.927E+00   0.131E-04 -.115E-04 -.372E-04
   -.599E+01 -.112E+01 0.670E+02   0.586E+01 0.210E+01 -.734E+02   0.484E-01 -.658E+00 0.590E+01   0.159E-05 -.396E-05 0.567E-05
   -.364E+02 0.543E+02 -.360E+00   0.399E+02 -.598E+02 0.261E+01   -.296E+01 0.509E+01 -.146E+01   -.218E-05 -.351E-07 0.349E-05
   0.300E+02 -.535E+02 0.358E+02   -.327E+02 0.582E+02 -.387E+02   0.237E+01 -.447E+01 0.297E+01   -.176E-05 0.462E-05 0.127E-05
   0.217E+02 -.595E+02 -.286E+02   -.232E+02 0.639E+02 0.305E+02   0.182E+01 -.467E+01 -.220E+01   0.409E-05 -.828E-05 -.534E-05
   -.139E+02 0.638E+02 -.156E+00   0.157E+02 -.708E+02 -.205E+01   -.163E+01 0.578E+01 0.186E+01   -.593E-06 0.728E-05 -.256E-05
   0.763E+01 -.211E+01 -.659E+02   -.842E+01 0.310E+01 0.716E+02   0.757E+00 -.103E+01 -.564E+01   0.249E-05 -.331E-05 -.116E-04
 -----------------------------------------------------------------------------------------------
   -.547E-01 -.124E+01 -.715E+00   0.355E-14 -.315E-13 0.142E-13   0.560E-01 0.125E+01 0.735E+00   0.382E-04 -.439E-04 0.877E-05
 
 
 POSITION                                       TOTAL-FORCE (eV/Angst)
 -----------------------------------------------------------------------------------
      8.08700      7.20200      5.93400        -1.681040      1.004270      0.842987
      7.31000      8.02500      6.72500         1.792816     -1.066881      0.556714
      7.20700      8.05500      8.23600        -0.686043     -1.427005      0.322465
      7.29200      6.99600      9.13700        -0.031260      2.851942     -1.417979
      8.07500      7.33100      4.86500        -0.078713      0.328434     -0.507198
      8.61000      6.31300      6.21500         0.465044     -0.445431      0.787436
      6.86200      8.85700      6.19300        -0.307944      0.266868      0.080434
      6.84300      9.01100      8.66700         0.325666     -0.306027     -0.329760
      7.56500      6.02300      8.82800         0.235654     -1.174621     -0.350107
      7.14900      7.18600     10.19900        -0.034179     -0.031549      0.015006
 -----------------------------------------------------------------------------------
    total drift:                                0.001342      0.007880      0.019336


--------------------------------------------------------------------------------------------------------



  FREE ENERGIE OF THE ION-ELECTRON SYSTEM (eV)
  ---------------------------------------------------
  free  energy   TOTEN  =       -56.55361810 eV

  energy  without entropy=      -56.55361810  energy(sigma->0) =      -56.55361810
 


--------------------------------------------------------------------------------------------------------


    POTLOK:  cpu time      0.5130: real time      0.5155


--------------------------------------------------------------------------------------------------------


 stress matrix after NEB project (eV)
     -0.74894      0.28369      1.31276
      0.28368     -1.08336      0.20801
      1.31276      0.20801     -4.54539
  FORCES: max atom, RMS     3.185155    1.594079
  FORCE total and by dimension    5.040920    2.851942
  Stress total and by dimension    5.107765    4.545385
     LOOP+:  cpu time     30.7188: real time     30.8721
    4ORBIT:  cpu time      0.0000: real time      0.0000

 total amount of memory used by VASP MPI-rank0   224780. kBytes
=======================================================================

   base      :      30000. kBytes
   nonlr-proj:       1256. kBytes
   fftplans  :     123538. kBytes
   grid      :      67787. kBytes
   one-center:         15. kBytes
   wavefun   :       2184. kBytes
 
  
  
 General timing and accounting informations for this job:
 ========================================================
  
                  Total CPU time used (sec):       37.356
                            User time (sec):       34.125
                          System time (sec):        3.231
                         Elapsed time (sec):       38.724
  
                   Maximum memory used (kb):      557884.
                   Average memory used (kb):          N/A
  
                          Minor page faults:       185946
                          Major page faults:         5448
                 Voluntary context switches:         3133
