 vasp.6.4.2 20Jul23 (build Apr 10 2024 13:39:58) complex                        
  
 executed on             LinuxIFC date 2024.05.18  15:09:41
 running   16 mpi-ranks, on    1 nodes
 distrk:  each k-point on   16 cores,    1 groups
 distr:  one band on NCORE=   2 cores,    8 groups


--------------------------------------------------------------------------------------------------------


 INCAR:
   ISTART = 0
   ISPIN = 1
   LREAL = Auto
   ENCUT = 520
   NPAR = 8
   LPLANE = .TRUE.
   LSCALU = .FALSE.
   NSIM = 4
   LWAVE = .FALSE.
   LCHARG = .FALSE.
   ADDGRID = .TRUE.
   LASPH = .TRUE.
   PREC = Accurate
   ISMEAR = 0
   SIGMA = 0.05
   EDIFF = 1E-06
   NSW = 0
   TEBEG = 300
   TEEND = 700     	
   ISYM = 0
   NWRITE = 2

 POTCAR:   PAW_PBE C 08Apr2002                    
 POTCAR:   PAW_PBE H 15Jun2001                    
 POTCAR:   PAW_PBE C 08Apr2002                    
   VRHFIN =C: s2p2                                                                                  
   LEXCH  = PE                                                                                      
   EATOM  =   147.1560 eV,   10.8157 Ry                                                             
                                                                                                    
   TITEL  = PAW_PBE C 08Apr2002                                                                     
   LULTRA =        F    use ultrasoft PP ?                                                          
   IUNSCR =        0    unscreen: 0-lin 1-nonlin 2-no                                               
   RPACOR =     .000    partial core radius                                                         
   POMASS =   12.011; ZVAL   =    4.000    mass and valenz                                          
   RCORE  =    1.500    outmost cutoff radius                                                       
   RWIGS  =    1.630; RWIGS  =     .863    wigner-seitz radius (au A)                               
   ENMAX  =  400.000; ENMIN  =  300.000 eV                                                          
   ICORE  =        2    local potential                                                             
   LCOR   =        T    correct aug charges                                                         
   LPAW   =        T    paw PP                                                                      
   EAUG   =  644.873                                                                                
   DEXC   =     .000                                                                                
   RMAX   =    2.266    core radius for proj-oper                                                   
   RAUG   =    1.300    factor for augmentation sphere                                              
   RDEP   =    1.501    radius for radial grids                                                     
   RDEPT  =    1.300    core radius for aug-charge                                                  
   QCUT   =   -5.516; QGAM   =   11.032    optimization parameters                                  
                                                                                                    
   Description                                                                                      
     l     E      TYP  RCUT    TYP  RCUT                                                            
     0   .000     23  1.200                                                                         
     0   .000     23  1.200                                                                         
     1   .000     23  1.500                                                                         
     1  2.500     23  1.500                                                                         
     2   .000      7  1.500                                                                         
  local pseudopotential read in
  atomic valenz-charges read in
  non local Contribution for L=           0  read in
    real space projection operators read in
  non local Contribution for L=           0  read in
    real space projection operators read in
  non local Contribution for L=           1  read in
    real space projection operators read in
  non local Contribution for L=           1  read in
    real space projection operators read in
    PAW grid and wavefunctions read in
 
   number of l-projection  operators is LMAX  =           4
   number of lm-projection operators is LMMAX =           8
 
 POTCAR:   PAW_PBE H 15Jun2001                    
   VRHFIN =H: ultrasoft test                                                                        
   LEXCH  = PE                                                                                      
   EATOM  =    12.4884 eV,     .9179 Ry                                                             
                                                                                                    
   TITEL  = PAW_PBE H 15Jun2001                                                                     
   LULTRA =        F    use ultrasoft PP ?                                                          
   IUNSCR =        0    unscreen: 0-lin 1-nonlin 2-no                                               
   RPACOR =     .000    partial core radius                                                         
   POMASS =    1.000; ZVAL   =    1.000    mass and valenz                                          
   RCORE  =    1.100    outmost cutoff radius                                                       
   RWIGS  =     .700; RWIGS  =     .370    wigner-seitz radius (au A)                               
   ENMAX  =  250.000; ENMIN  =  200.000 eV                                                          
   RCLOC  =     .701    cutoff for local pot                                                        
   LCOR   =        T    correct aug charges                                                         
   LPAW   =        T    paw PP                                                                      
   EAUG   =  400.000                                                                                
   RMAX   =    2.174    core radius for proj-oper                                                   
   RAUG   =    1.200    factor for augmentation sphere                                              
   RDEP   =    1.112    radius for radial grids                                                     
   QCUT   =   -5.749; QGAM   =   11.498    optimization parameters                                  
                                                                                                    
   Description                                                                                      
     l     E      TYP  RCUT    TYP  RCUT                                                            
     0   .000     23  1.100                                                                         
     0   .500     23  1.100                                                                         
     1  -.300     23  1.100                                                                         
  local pseudopotential read in
  atomic valenz-charges read in
  non local Contribution for L=           0  read in
    real space projection operators read in
  non local Contribution for L=           0  read in
    real space projection operators read in
  non local Contribution for L=           1  read in
    real space projection operators read in
    PAW grid and wavefunctions read in
 
   number of l-projection  operators is LMAX  =           3
   number of lm-projection operators is LMMAX =           5
 
 Optimization of the real space projectors (new method)

 maximal supplied QI-value         = 25.13
 optimisation between [QCUT,QGAM] = [ 11.56, 23.12] = [ 37.43,149.72] Ry 
 Optimized for a Real-space Cutoff    1.04 Angstroem

   l    n(q)    QCUT    max X(q) W(low)/X(q) W(high)/X(q)  e(spline) 
   0      7    11.561     5.582    0.47E-04    0.94E-04    0.17E-07
   0      7    11.561    69.432    0.20E-03    0.59E-03    0.21E-06
   1      7    11.561     2.780    0.24E-04    0.70E-04    0.44E-07
   1      7    11.561     4.549    0.18E-03    0.25E-03    0.12E-06
 Optimization of the real space projectors (new method)

 maximal supplied QI-value         = 34.20
 optimisation between [QCUT,QGAM] = [ 11.63, 23.26] = [ 37.87,151.49] Ry 
 Optimized for a Real-space Cutoff    1.21 Angstroem

   l    n(q)    QCUT    max X(q) W(low)/X(q) W(high)/X(q)  e(spline) 
   0      8    11.629     4.436    0.19E-04    0.32E-04    0.47E-07
   0      8    11.629    16.131    0.16E-03    0.33E-03    0.21E-06
   1      8    11.629     4.654    0.18E-03    0.16E-03    0.26E-06
 PAW_PBE C 08Apr2002                    :
 energy of atom  1       EATOM= -147.1560
 kinetic energy error for atom=    0.0071 (will be added to EATOM!!)
 PAW_PBE H 15Jun2001                    :
 energy of atom  2       EATOM=  -12.4884
 kinetic energy error for atom=    0.0014 (will be added to EATOM!!)
 
 
 POSCAR:  C  H
  positions in cartesian coordinates
  No initial velocities read in
 exchange correlation table for  LEXCH =        8
   RHO(1)=    0.500       N(1)  =     2000
   RHO(2)=  100.500       N(2)  =     4000

 VTST: version 4.1, (05/19/21)

 CHAIN: initializing optimizer
 
 OPT: Using VASP Dynamics algorithm
 CHAIN: Read ICHAIN            0
 
 POSCAR:  C  H
  positions in cartesian coordinates
  No initial velocities read in
 


--------------------------------------------------------------------------------------------------------


 ion  position               nearest neighbor table
   1  0.532  0.537  0.442-   6 1.09   5 1.11   2 1.55   4 1.83
   2  0.476  0.450  0.449-   7 1.10   3 1.33   1 1.55
   3  0.465  0.445  0.537-   8 1.11   2 1.33   4 1.51
   4  0.509  0.532  0.562-  10 1.09   9 1.11   3 1.51   1 1.83
   5  0.605  0.529  0.435-   1 1.11
   6  0.505  0.592  0.403-   1 1.09
   7  0.450  0.410  0.394-   2 1.10
   8  0.429  0.399  0.583-   3 1.11
   9  0.569  0.527  0.605-   4 1.11
  10  0.461  0.579  0.590-   4 1.09
 

IMPORTANT INFORMATION: All symmetrisations will be switched off!
NOSYMM: (Re-)initialisation of all symmetry stuff for point group C_1.


----------------------------------------------------------------------------------------

                                     Primitive cell                                     

  volume of cell :    3375.0000

  direct lattice vectors                    reciprocal lattice vectors
    15.000000000  0.000000000  0.000000000     0.066666667  0.000000000  0.000000000
     0.000000000 15.000000000  0.000000000     0.000000000  0.066666667  0.000000000
     0.000000000  0.000000000 15.000000000     0.000000000  0.000000000  0.066666667

  length of vectors
    15.000000000 15.000000000 15.000000000     0.066666667  0.066666667  0.066666667

  position of ions in fractional coordinates (direct lattice)
     0.531666660  0.537066650  0.442466672
     0.475933329  0.450466665  0.449199994
     0.464733346  0.445000013  0.536666679
     0.508533319  0.531599998  0.562466685
     0.604866664  0.528533332  0.434799989
     0.505066681  0.591733360  0.402799988
     0.450400003  0.410266654  0.393800004
     0.429200013  0.399133333  0.582866669
     0.568866666  0.526866659  0.604933357
     0.460733318  0.579333305  0.590000025

  ion indices of the primitive-cell ions
   primitive index   ion index
                 1           1
                 2           2
                 3           3
                 4           4
                 5           5
                 6           6
                 7           7
                 8           8
                 9           9
                10          10

----------------------------------------------------------------------------------------

 
 
 KPOINTS: K-Spacing Value to Generate K-Mesh: 1.00

Automatic generation of k-mesh.
 Grid dimensions read from file:
 generate k-points for:    1    1    1

 Generating k-lattice:

  Cartesian coordinates                     Fractional coordinates (reciprocal lattice)
     0.066666667  0.000000000  0.000000000     1.000000000  0.000000000  0.000000000
     0.000000000  0.066666667  0.000000000     0.000000000  1.000000000  0.000000000
     0.000000000  0.000000000  0.066666667     0.000000000  0.000000000  1.000000000

  Length of vectors
     0.066666667  0.066666667  0.066666667

  Shift w.r.t. Gamma in fractional coordinates (k-lattice)
     0.000000000  0.000000000  0.000000000

 
 Subroutine IBZKPT returns following result:
 ===========================================
 
 Found      1 irreducible k-points:
 
 Following reciprocal coordinates:
            Coordinates               Weight
  0.000000  0.000000  0.000000      1.000000
 
 Following cartesian coordinates:
            Coordinates               Weight
  0.000000  0.000000  0.000000      1.000000
 


--------------------------------------------------------------------------------------------------------




 Dimension of arrays:
   k-points           NKPTS =      1   k-points in BZ     NKDIM =      1   number of bands    NBANDS=     24
   number of dos      NEDOS =    301   number of ions     NIONS =     10
   non local maximal  LDIM  =      4   non local SUM 2l+1 LMDIM =      8
   total plane-waves  NPLWV = ******
   max r-space proj   IRMAX =   3145   max aug-charges    IRDMAX=  39494
   dimension x,y,z NGX =   112 NGY =  112 NGZ =  112
   dimension x,y,z NGXF=   224 NGYF=  224 NGZF=  224
   support grid    NGXF=   448 NGYF=  448 NGZF=  448
   ions per type =               4   6
   NGX,Y,Z   is equivalent  to a cutoff of  12.41, 12.41, 12.41 a.u.
   NGXF,Y,Z  is equivalent  to a cutoff of  24.83, 24.83, 24.83 a.u.

 SYSTEM =  unknown system                          
 POSCAR =   C  H                                   

 Startparameter for this run:
   NWRITE =      2    write-flag & timer
   PREC   = accura    normal or accurate (medium, high low for compatibility)
   ISTART =      0    job   : 0-new  1-cont  2-samecut
   ICHARG =      2    charge: 1-file 2-atom 10-const
   ISPIN  =      1    spin polarized calculation?
   LNONCOLLINEAR =      F non collinear calculations
   LSORBIT =      F    spin-orbit coupling
   INIWAV =      1    electr: 0-lowe 1-rand  2-diag
   LASPH  =      T    aspherical Exc in radial PAW
 Electronic Relaxation 1
   ENCUT  =  520.0 eV  38.22 Ry    6.18 a.u.  27.89 27.89 27.89*2*pi/ulx,y,z
   ENINI  =  520.0     initial cutoff
   ENAUG  =  644.9 eV  augmentation charge cutoff
   NELM   =     60;   NELMIN=  2; NELMDL= -5     # of ELM steps 
   EDIFF  = 0.1E-05   stopping-criterion for ELM
   LREAL  =      T    real-space projection
   NLSPLINE    = F    spline interpolate recip. space projectors
   LCOMPAT=      F    compatible to vasp.4.4
   GGA_COMPAT  = T    GGA compatible to vasp.4.4-vasp.4.6
   LMAXPAW     = -100 max onsite density
   LMAXMIX     =    2 max onsite mixed and CHGCAR
   VOSKOWN=      0    Vosko Wilk Nusair interpolation
   ROPT   =   -0.00025  -0.00025
 Ionic relaxation
   EDIFFG = 0.1E-04   stopping-criterion for IOM
   NSW    =      0    number of steps for IOM
   NBLOCK =      1;   KBLOCK =      1    inner block; outer block 
   IBRION =     -1    ionic relax: 0-MD 1-quasi-New 2-CG
   NFREE  =      0    steps in history (QN), initial steepest desc. (CG)
   ISIF   =      2    stress and relaxation
   IWAVPR =     10    prediction:  0-non 1-charg 2-wave 3-comb
   ISYM   =      0    0-nonsym 1-usesym 2-fastsym
   LCORR  =      T    Harris-Foulkes like correction to forces

   POTIM  = 0.5000    time-step for ionic-motion
   TEIN   =    0.0    initial temperature
   TEBEG  =  300.0;   TEEND  = 700.0 temperature during run
   SMASS  =  -3.00    Nose mass-parameter (am)
   estimated Nose-frequenzy (Omega)   =  0.10E-29 period in steps = 0.13E+47 mass=  -0.514E-26a.u.
   SCALEE = 1.0000    scale energy and forces
   NPACO  =    256;   APACO  = 10.0  distance and # of slots for P.C.
   PSTRESS=    0.0 pullay stress

  Mass of Ions in am
   POMASS =  12.01  1.00
  Ionic Valenz
   ZVAL   =   4.00  1.00
  Atomic Wigner-Seitz radii
   RWIGS  =  -1.00 -1.00
  virtual crystal weights 
   VCA    =   1.00  1.00
   NELECT =      22.0000    total number of electrons
   NUPDOWN=      -1.0000    fix difference up-down

 DOS related values:
   EMIN   =  10.00;   EMAX   =-10.00  energy-range for DOS
   EFERMI =   0.00;   METHOD = LEGACY      
   ISMEAR =     0;   SIGMA  =   0.05  broadening in eV -4-tet -1-fermi 0-gaus

 Electronic relaxation 2 (details)
   IALGO  =     38    algorithm
   LDIAG  =      T    sub-space diagonalisation (order eigenvalues)
   LSUBROT=      F    optimize rotation matrix (better conditioning)
   TURBO    =      0    0=normal 1=particle mesh
   IRESTART =      0    0=no restart 2=restart with 2 vectors
   NREBOOT  =      0    no. of reboots
   NMIN     =      0    reboot dimension
   EREF     =   0.00    reference energy to select bands
   IMIX   =      4    mixing-type and parameters
     AMIX     =   0.40;   BMIX     =  1.00
     AMIX_MAG =   1.60;   BMIX_MAG =  1.00
     AMIN     =   0.10
     WC   =   100.;   INIMIX=   1;  MIXPRE=   1;  MAXMIX= -45

 Intra band minimization:
   WEIMIN = 0.0000     energy-eigenvalue tresh-hold
   EBREAK =  0.10E-07  absolut break condition
   DEPER  =   0.30     relativ break condition  

   TIME   =   0.40     timestep for ELM

  volume/ion in A,a.u.               =     337.50      2277.56
  Fermi-wavevector in a.u.,A,eV,Ry     =   0.305814  0.577905  1.272449  0.093522
  Thomas-Fermi vector in A             =   1.179187
 
 Write flags
   LWAVE        =      F    write WAVECAR
   LDOWNSAMPLE  =      F    k-point downsampling of WAVECAR
   LCHARG       =      F    write CHGCAR
   LVTOT        =      F    write LOCPOT, total local potential
   LVHAR        =      F    write LOCPOT, Hartree potential only
   LELF         =      F    write electronic localiz. function (ELF)
   LORBIT       =      0    0 simple, 1 ext, 2 COOP (PROOUT), +10 PAW based schemes


 Dipole corrections
   LMONO  =      F    monopole corrections only (constant potential shift)
   LDIPOL =      F    correct potential (dipole corrections)
   IDIPOL =      0    1-x, 2-y, 3-z, 4-all directions 
   EPSILON=  1.0000000 bulk dielectric constant

 Exchange correlation treatment:
   GGA     =    --    GGA type
   LEXCH   =     8    internal setting for exchange type
   LIBXC   =     F    Libxc                    
   VOSKOWN =     0    Vosko Wilk Nusair interpolation
   LHFCALC =     F    Hartree Fock is set to
   LHFONE  =     F    Hartree Fock one center treatment
   AEXX    =    0.0000 exact exchange contribution

 Linear response parameters
   LEPSILON=     F    determine dielectric tensor
   LRPA    =     F    only Hartree local field effects (RPA)
   LNABLA  =     F    use nabla operator in PAW spheres
   LVEL    =     F    velocity operator in full k-point grid
   CSHIFT  =0.1000    complex shift for real part using Kramers Kronig
   OMEGAMAX=  -1.0    maximum frequency
   DEG_THRESHOLD= 0.2000000E-02 threshold for treating states as degnerate
   RTIME   =   -0.100 relaxation time in fs
  (WPLASMAI=    0.000 imaginary part of plasma frequency in eV, 0.658/RTIME)
   DFIELD  = 0.0000000 0.0000000 0.0000000 field for delta impulse in time
 
  Optional k-point grid parameters
   LKPOINTS_OPT  =     F    use optional k-point grid
   KPOINTS_OPT_MODE=     1    mode for optional k-point grid
 
 Orbital magnetization related:
   ORBITALMAG=     F  switch on orbital magnetization
   LCHIMAG   =     F  perturbation theory with respect to B field
   DQ        =  0.001000  dq finite difference perturbation B field
   LLRAUG    =     F  two centre corrections for induced B field
   LBONE     =     F  B-component reconstruction in AE one-centre
   LVGVCALC  =     T  calculate vGv susceptibility
   LVGVAPPL  =     F  apply vGv susceptibility instead of pGv for G=0

 Random number generation:
   RANDOM_GENERATOR = DEFAULT
   PCG_SEED         = not used


--------------------------------------------------------------------------------------------------------


 Static calculation
 charge density and potential will be updated during run
 non-spin polarized calculation
 Variant of blocked Davidson
 Davidson routine will perform the subspace rotation
 perform sub-space diagonalisation
    after iterative eigenvector-optimisation
 modified Broyden-mixing scheme, WC =      100.0
 initial mixing is a Kerker type mixing with AMIX =  0.4000 and BMIX =      1.0000
 Hartree-type preconditioning will be used
 using additional bands           13
 real space projection scheme for non local part
 calculate Harris-corrections to forces 
   (improved forces if not selfconsistent)
 use gradient corrections 
 use of overlap-Matrix (Vanderbilt PP)
 Gauss-broadening in eV      SIGMA  =   0.05


--------------------------------------------------------------------------------------------------------


  energy-cutoff  :      520.00
  volume of cell :     3375.00
      direct lattice vectors                 reciprocal lattice vectors
    15.000000000  0.000000000  0.000000000     0.066666667  0.000000000  0.000000000
     0.000000000 15.000000000  0.000000000     0.000000000  0.066666667  0.000000000
     0.000000000  0.000000000 15.000000000     0.000000000  0.000000000  0.066666667

  length of vectors
    15.000000000 15.000000000 15.000000000     0.066666667  0.066666667  0.066666667


 
 k-points in units of 2pi/SCALE and weight: K-Spacing Value to Generate K-Mesh: 1.00
   0.00000000  0.00000000  0.00000000       1.000
 
 k-points in reciprocal lattice and weights: K-Spacing Value to Generate K-Mesh: 1.00
   0.00000000  0.00000000  0.00000000       1.000
 
 position of ions in fractional coordinates (direct lattice) 
   0.53166666  0.53706665  0.44246667
   0.47593333  0.45046666  0.44919999
   0.46473335  0.44500001  0.53666668
   0.50853332  0.53160000  0.56246668
   0.60486666  0.52853333  0.43479999
   0.50506668  0.59173336  0.40279999
   0.45040000  0.41026665  0.39380000
   0.42920001  0.39913333  0.58286667
   0.56886667  0.52686666  0.60493336
   0.46073332  0.57933331  0.59000003
 
 position of ions in cartesian coordinates  (Angst):
   7.97499990  8.05599976  6.63700008
   7.13899994  6.75699997  6.73799992
   6.97100019  6.67500019  8.05000019
   7.62799978  7.97399998  8.43700027
   9.07299995  7.92799997  6.52199984
   7.57600021  8.87600040  6.04199982
   6.75600004  6.15399981  5.90700006
   6.43800020  5.98699999  8.74300003
   8.53299999  7.90299988  9.07400036
   6.91099977  8.68999958  8.85000038
 


--------------------------------------------------------------------------------------------------------


 k-point   1 :   0.0000 0.0000 0.0000  plane waves:   90879

 maximum and minimum number of plane-waves per node :     45467    45412

 maximum number of plane-waves:     90879
 maximum index in each direction: 
   IXMAX=   27   IYMAX=   27   IZMAX=   27
   IXMIN=  -27   IYMIN=  -27   IZMIN=  -27


 real space projection operators:
  total allocation   :       1184.96 KBytes
  max/ min on nodes  :        593.64        591.32


 parallel 3D FFT for wavefunctions:
    minimum data exchange during FFTs selected (reduces bandwidth)
 parallel 3D FFT for charge:
    minimum data exchange during FFTs selected (reduces bandwidth)


 total amount of memory used by VASP MPI-rank0   224782. kBytes
=======================================================================

   base      :      30000. kBytes
   nonlr-proj:       1258. kBytes
   fftplans  :     123538. kBytes
   grid      :      67787. kBytes
   one-center:         15. kBytes
   wavefun   :       2184. kBytes
 
     INWAV:  cpu time      0.0000: real time      0.0000
 Broyden mixing: mesh for mixing (old mesh)
   NGX = 55   NGY = 55   NGZ = 55
  (NGX  =224   NGY  =224   NGZ  =224)
  gives a total of 166375 points

 initial charge density was supplied:
 charge density of overlapping atoms calculated
 number of electron      22.0000000 magnetization 
 keeping initial charge density in first step


--------------------------------------------------------------------------------------------------------


 Maximum index for non-local projection operator         1512
 Maximum index for augmentation-charges         2507 (set IRDMAX)


--------------------------------------------------------------------------------------------------------


 First call to EWALD:  gamma=   0.118
 Maximum number of real-space cells 3x 3x 3
 Maximum number of reciprocal cells 3x 3x 3

    FEWALD:  cpu time      0.0010: real time      0.0010


--------------------------------------- Ionic step        1  -------------------------------------------




--------------------------------------- Iteration      1(   1)  ---------------------------------------


    POTLOK:  cpu time      0.3353: real time      0.3371
    SETDIJ:  cpu time      0.1950: real time      0.1959
     EDDAV:  cpu time      0.4194: real time      0.4219
       DOS:  cpu time      0.0002: real time      0.0002
    --------------------------------------------
      LOOP:  cpu time      0.9499: real time      0.9551

 eigenvalue-minimisations  :    64
 total energy-change (2. order) : 0.9479075E+02  (-0.5360441E+03)
 number of electron      22.0000000 magnetization 
 augmentation part       22.0000000 magnetization 

 Free energy of the ion-electron system (eV)
  ---------------------------------------------------
  alpha Z        PSCENC =         0.62641250
  Ewald energy   TEWEN  =       959.50756373
  -Hartree energ DENC   =     -1387.19540886
  -exchange      EXHF   =         0.00000000
  -V(xc)+E(xc)   XCENC  =        67.41683256
  PAW double counting   =       156.01372664     -160.66969168
  entropy T*S    EENTRO =        -0.00018496
  eigenvalues    EBANDS =      -204.42589792
  atomic energy  EATOM  =       663.51739852
  Solvation  Ediel_sol  =         0.00000000
  ---------------------------------------------------
  free energy    TOTEN  =        94.79075053 eV

  energy without entropy =       94.79093550  energy(sigma->0) =       94.79084301


--------------------------------------------------------------------------------------------------------




--------------------------------------- Iteration      1(   2)  ---------------------------------------


     EDDAV:  cpu time      0.4827: real time      0.4854
       DOS:  cpu time      0.0001: real time      0.0001
    --------------------------------------------
      LOOP:  cpu time      0.4828: real time      0.4856

 eigenvalue-minimisations  :    80
 total energy-change (2. order) :-0.1142391E+03  (-0.1115769E+03)
 number of electron      22.0000000 magnetization 
 augmentation part       22.0000000 magnetization 

 Free energy of the ion-electron system (eV)
  ---------------------------------------------------
  alpha Z        PSCENC =         0.62641250
  Ewald energy   TEWEN  =       959.50756373
  -Hartree energ DENC   =     -1387.19540886
  -exchange      EXHF   =         0.00000000
  -V(xc)+E(xc)   XCENC  =        67.41683256
  PAW double counting   =       156.01372664     -160.66969168
  entropy T*S    EENTRO =        -0.00000000
  eigenvalues    EBANDS =      -318.66516058
  atomic energy  EATOM  =       663.51739852
  Solvation  Ediel_sol  =         0.00000000
  ---------------------------------------------------
  free energy    TOTEN  =       -19.44832717 eV

  energy without entropy =      -19.44832717  energy(sigma->0) =      -19.44832717


--------------------------------------------------------------------------------------------------------




--------------------------------------- Iteration      1(   3)  ---------------------------------------


     EDDAV:  cpu time      0.4014: real time      0.4037
       DOS:  cpu time      0.0001: real time      0.0001
    --------------------------------------------
      LOOP:  cpu time      0.4015: real time      0.4038

 eigenvalue-minimisations  :    64
 total energy-change (2. order) :-0.3873978E+02  (-0.3863282E+02)
 number of electron      22.0000000 magnetization 
 augmentation part       22.0000000 magnetization 

 Free energy of the ion-electron system (eV)
  ---------------------------------------------------
  alpha Z        PSCENC =         0.62641250
  Ewald energy   TEWEN  =       959.50756373
  -Hartree energ DENC   =     -1387.19540886
  -exchange      EXHF   =         0.00000000
  -V(xc)+E(xc)   XCENC  =        67.41683256
  PAW double counting   =       156.01372664     -160.66969168
  entropy T*S    EENTRO =        -0.00000000
  eigenvalues    EBANDS =      -357.40493759
  atomic energy  EATOM  =       663.51739852
  Solvation  Ediel_sol  =         0.00000000
  ---------------------------------------------------
  free energy    TOTEN  =       -58.18810417 eV

  energy without entropy =      -58.18810417  energy(sigma->0) =      -58.18810417


--------------------------------------------------------------------------------------------------------




--------------------------------------- Iteration      1(   4)  ---------------------------------------


     EDDAV:  cpu time      0.4428: real time      0.4453
       DOS:  cpu time      0.0001: real time      0.0001
    --------------------------------------------
      LOOP:  cpu time      0.4429: real time      0.4454

 eigenvalue-minimisations  :    72
 total energy-change (2. order) :-0.3868905E+01  (-0.3863869E+01)
 number of electron      22.0000000 magnetization 
 augmentation part       22.0000000 magnetization 

 Free energy of the ion-electron system (eV)
  ---------------------------------------------------
  alpha Z        PSCENC =         0.62641250
  Ewald energy   TEWEN  =       959.50756373
  -Hartree energ DENC   =     -1387.19540886
  -exchange      EXHF   =         0.00000000
  -V(xc)+E(xc)   XCENC  =        67.41683256
  PAW double counting   =       156.01372664     -160.66969168
  entropy T*S    EENTRO =        -0.00000000
  eigenvalues    EBANDS =      -361.27384220
  atomic energy  EATOM  =       663.51739852
  Solvation  Ediel_sol  =         0.00000000
  ---------------------------------------------------
  free energy    TOTEN  =       -62.05700879 eV

  energy without entropy =      -62.05700879  energy(sigma->0) =      -62.05700879


--------------------------------------------------------------------------------------------------------




--------------------------------------- Iteration      1(   5)  ---------------------------------------


     EDDAV:  cpu time      0.4062: real time      0.4085
       DOS:  cpu time      0.0001: real time      0.0001
    CHARGE:  cpu time      0.2012: real time      0.2020
    MIXING:  cpu time      0.0109: real time      0.0109
    --------------------------------------------
      LOOP:  cpu time      0.6184: real time      0.6215

 eigenvalue-minimisations  :    64
 total energy-change (2. order) :-0.2931824E-01  (-0.2931318E-01)
 number of electron      22.0000000 magnetization 
 augmentation part        0.5587392 magnetization 

 Broyden mixing:
  rms(total) = 0.11299E+01    rms(broyden)= 0.11297E+01
  rms(prec ) = 0.13619E+01
  weight for this iteration     100.00

 Free energy of the ion-electron system (eV)
  ---------------------------------------------------
  alpha Z        PSCENC =         0.62641250
  Ewald energy   TEWEN  =       959.50756373
  -Hartree energ DENC   =     -1387.19540886
  -exchange      EXHF   =         0.00000000
  -V(xc)+E(xc)   XCENC  =        67.41683256
  PAW double counting   =       156.01372664     -160.66969168
  entropy T*S    EENTRO =        -0.00000000
  eigenvalues    EBANDS =      -361.30316045
  atomic energy  EATOM  =       663.51739852
  Solvation  Ediel_sol  =         0.00000000
  ---------------------------------------------------
  free energy    TOTEN  =       -62.08632703 eV

  energy without entropy =      -62.08632703  energy(sigma->0) =      -62.08632703


--------------------------------------------------------------------------------------------------------




--------------------------------------- Iteration      1(   6)  ---------------------------------------


    POTLOK:  cpu time      0.3075: real time      0.3092
    SETDIJ:  cpu time      0.1936: real time      0.1944
     EDDAV:  cpu time      0.4436: real time      0.4461
       DOS:  cpu time      0.0001: real time      0.0001
    CHARGE:  cpu time      0.1984: real time      0.1992
    MIXING:  cpu time      0.0087: real time      0.0087
    --------------------------------------------
      LOOP:  cpu time      1.1519: real time      1.1577

 eigenvalue-minimisations  :    72
 total energy-change (2. order) : 0.4710482E+01  (-0.6560042E+00)
 number of electron      22.0000000 magnetization 
 augmentation part        0.5162279 magnetization 

 Broyden mixing:
  rms(total) = 0.56024E+00    rms(broyden)= 0.56022E+00
  rms(prec ) = 0.66765E+00
  weight for this iteration     100.00

 eigenvalues of (default mixing * dielectric matrix)
  average eigenvalue GAMMA=   1.6775
  1.6775

 Free energy of the ion-electron system (eV)
  ---------------------------------------------------
  alpha Z        PSCENC =         0.62641250
  Ewald energy   TEWEN  =       959.50756373
  -Hartree energ DENC   =     -1433.36963105
  -exchange      EXHF   =         0.00000000
  -V(xc)+E(xc)   XCENC  =        69.67145646
  PAW double counting   =       223.32746086     -228.48748061
  entropy T*S    EENTRO =        -0.00000000
  eigenvalues    EBANDS =      -312.16902524
  atomic energy  EATOM  =       663.51739852
  Solvation  Ediel_sol  =         0.00000000
  ---------------------------------------------------
  free energy    TOTEN  =       -57.37584482 eV

  energy without entropy =      -57.37584482  energy(sigma->0) =      -57.37584482


--------------------------------------------------------------------------------------------------------




--------------------------------------- Iteration      1(   7)  ---------------------------------------


    POTLOK:  cpu time      0.3096: real time      0.3113
    SETDIJ:  cpu time      0.1935: real time      0.1943
     EDDAV:  cpu time      0.4077: real time      0.4100
       DOS:  cpu time      0.0001: real time      0.0001
    CHARGE:  cpu time      0.1935: real time      0.1943
    MIXING:  cpu time      0.0166: real time      0.0166
    --------------------------------------------
      LOOP:  cpu time      1.1210: real time      1.1266

 eigenvalue-minimisations  :    64
 total energy-change (2. order) : 0.1238246E+01  (-0.4217913E+00)
 number of electron      22.0000000 magnetization 
 augmentation part        0.4858783 magnetization 

 Broyden mixing:
  rms(total) = 0.21604E+00    rms(broyden)= 0.21599E+00
  rms(prec ) = 0.25010E+00
  weight for this iteration     100.00

 eigenvalues of (default mixing * dielectric matrix)
  average eigenvalue GAMMA=   2.0103
  2.0103  2.0103

 Free energy of the ion-electron system (eV)
  ---------------------------------------------------
  alpha Z        PSCENC =         0.62641250
  Ewald energy   TEWEN  =       959.50756373
  -Hartree energ DENC   =     -1472.70173018
  -exchange      EXHF   =         0.00000000
  -V(xc)+E(xc)   XCENC  =        71.87238576
  PAW double counting   =       282.25249544     -287.66047279
  entropy T*S    EENTRO =        -0.00000000
  eigenvalues    EBANDS =      -273.55165191
  atomic energy  EATOM  =       663.51739852
  Solvation  Ediel_sol  =         0.00000000
  ---------------------------------------------------
  free energy    TOTEN  =       -56.13759892 eV

  energy without entropy =      -56.13759892  energy(sigma->0) =      -56.13759892


--------------------------------------------------------------------------------------------------------




--------------------------------------- Iteration      1(   8)  ---------------------------------------


    POTLOK:  cpu time      0.3142: real time      0.3159
    SETDIJ:  cpu time      0.1930: real time      0.1939
     EDDAV:  cpu time      0.4086: real time      0.4108
       DOS:  cpu time      0.0001: real time      0.0001
    CHARGE:  cpu time      0.1919: real time      0.1927
    MIXING:  cpu time      0.0164: real time      0.0165
    --------------------------------------------
      LOOP:  cpu time      1.1243: real time      1.1298

 eigenvalue-minimisations  :    64
 total energy-change (2. order) : 0.1655291E+00  (-0.4341824E-01)
 number of electron      22.0000000 magnetization 
 augmentation part        0.4901814 magnetization 

 Broyden mixing:
  rms(total) = 0.52085E-01    rms(broyden)= 0.52081E-01
  rms(prec ) = 0.85931E-01
  weight for this iteration     100.00

 eigenvalues of (default mixing * dielectric matrix)
  average eigenvalue GAMMA=   1.6345
  1.0668  2.3071  1.5296

 Free energy of the ion-electron system (eV)
  ---------------------------------------------------
  alpha Z        PSCENC =         0.62641250
  Ewald energy   TEWEN  =       959.50756373
  -Hartree energ DENC   =     -1479.43387939
  -exchange      EXHF   =         0.00000000
  -V(xc)+E(xc)   XCENC  =        72.44173893
  PAW double counting   =       284.33944489     -289.57760143
  entropy T*S    EENTRO =        -0.00000000
  eigenvalues    EBANDS =      -267.39314759
  atomic energy  EATOM  =       663.51739852
  Solvation  Ediel_sol  =         0.00000000
  ---------------------------------------------------
  free energy    TOTEN  =       -55.97206984 eV

  energy without entropy =      -55.97206984  energy(sigma->0) =      -55.97206984


--------------------------------------------------------------------------------------------------------




--------------------------------------- Iteration      1(   9)  ---------------------------------------


    POTLOK:  cpu time      0.3136: real time      0.3152
    SETDIJ:  cpu time      0.1925: real time      0.1934
     EDDAV:  cpu time      0.4838: real time      0.4866
       DOS:  cpu time      0.0001: real time      0.0001
    CHARGE:  cpu time      0.2007: real time      0.2015
    MIXING:  cpu time      0.0086: real time      0.0086
    --------------------------------------------
      LOOP:  cpu time      1.1993: real time      1.2054

 eigenvalue-minimisations  :    80
 total energy-change (2. order) : 0.3066803E-01  (-0.9927107E-02)
 number of electron      22.0000000 magnetization 
 augmentation part        0.4861380 magnetization 

 Broyden mixing:
  rms(total) = 0.23642E-01    rms(broyden)= 0.23638E-01
  rms(prec ) = 0.48087E-01
  weight for this iteration     100.00

 eigenvalues of (default mixing * dielectric matrix)
  average eigenvalue GAMMA=   1.5456
  1.9936  1.9936  1.0976  1.0976

 Free energy of the ion-electron system (eV)
  ---------------------------------------------------
  alpha Z        PSCENC =         0.62641250
  Ewald energy   TEWEN  =       959.50756373
  -Hartree energ DENC   =     -1484.71814059
  -exchange      EXHF   =         0.00000000
  -V(xc)+E(xc)   XCENC  =        72.65135206
  PAW double counting   =       289.36939230     -294.64515139
  entropy T*S    EENTRO =        -0.00000000
  eigenvalues    EBANDS =      -262.25022894
  atomic energy  EATOM  =       663.51739852
  Solvation  Ediel_sol  =         0.00000000
  ---------------------------------------------------
  free energy    TOTEN  =       -55.94140181 eV

  energy without entropy =      -55.94140181  energy(sigma->0) =      -55.94140181


--------------------------------------------------------------------------------------------------------




--------------------------------------- Iteration      1(  10)  ---------------------------------------


    POTLOK:  cpu time      0.3155: real time      0.3171
    SETDIJ:  cpu time      0.1923: real time      0.1931
     EDDAV:  cpu time      0.4038: real time      0.4061
       DOS:  cpu time      0.0001: real time      0.0001
    CHARGE:  cpu time      0.1994: real time      0.2002
    MIXING:  cpu time      0.0090: real time      0.0090
    --------------------------------------------
      LOOP:  cpu time      1.1201: real time      1.1257

 eigenvalue-minimisations  :    64
 total energy-change (2. order) : 0.7509552E-02  (-0.1613800E-02)
 number of electron      22.0000000 magnetization 
 augmentation part        0.4850268 magnetization 

 Broyden mixing:
  rms(total) = 0.13426E-01    rms(broyden)= 0.13423E-01
  rms(prec ) = 0.30289E-01
  weight for this iteration     100.00

 eigenvalues of (default mixing * dielectric matrix)
  average eigenvalue GAMMA=   1.7036
  2.6882  2.3680  1.2077  1.2077  1.0463

 Free energy of the ion-electron system (eV)
  ---------------------------------------------------
  alpha Z        PSCENC =         0.62641250
  Ewald energy   TEWEN  =       959.50756373
  -Hartree energ DENC   =     -1488.46181403
  -exchange      EXHF   =         0.00000000
  -V(xc)+E(xc)   XCENC  =        72.72431310
  PAW double counting   =       287.97812936     -293.25252020
  entropy T*S    EENTRO =        -0.00000000
  eigenvalues    EBANDS =      -258.57337524
  atomic energy  EATOM  =       663.51739852
  Solvation  Ediel_sol  =         0.00000000
  ---------------------------------------------------
  free energy    TOTEN  =       -55.93389226 eV

  energy without entropy =      -55.93389226  energy(sigma->0) =      -55.93389226


--------------------------------------------------------------------------------------------------------




--------------------------------------- Iteration      1(  11)  ---------------------------------------


    POTLOK:  cpu time      0.3150: real time      0.3167
    SETDIJ:  cpu time      0.1935: real time      0.1943
     EDDAV:  cpu time      0.3248: real time      0.3267
       DOS:  cpu time      0.0001: real time      0.0001
    CHARGE:  cpu time      0.1915: real time      0.1923
    MIXING:  cpu time      0.0181: real time      0.0181
    --------------------------------------------
      LOOP:  cpu time      1.0430: real time      1.0482

 eigenvalue-minimisations  :    48
 total energy-change (2. order) : 0.1129487E-01  (-0.5228387E-03)
 number of electron      22.0000000 magnetization 
 augmentation part        0.4846672 magnetization 

 Broyden mixing:
  rms(total) = 0.85718E-02    rms(broyden)= 0.85716E-02
  rms(prec ) = 0.18314E-01
  weight for this iteration     100.00

 eigenvalues of (default mixing * dielectric matrix)
  average eigenvalue GAMMA=   1.8594
  3.4935  2.4361  1.8654  0.9692  1.1962  1.1962

 Free energy of the ion-electron system (eV)
  ---------------------------------------------------
  alpha Z        PSCENC =         0.62641250
  Ewald energy   TEWEN  =       959.50756373
  -Hartree energ DENC   =     -1492.02153221
  -exchange      EXHF   =         0.00000000
  -V(xc)+E(xc)   XCENC  =        72.82937034
  PAW double counting   =       287.31481651     -292.57813497
  entropy T*S    EENTRO =        -0.00000000
  eigenvalues    EBANDS =      -255.11849181
  atomic energy  EATOM  =       663.51739852
  Solvation  Ediel_sol  =         0.00000000
  ---------------------------------------------------
  free energy    TOTEN  =       -55.92259739 eV

  energy without entropy =      -55.92259739  energy(sigma->0) =      -55.92259739


--------------------------------------------------------------------------------------------------------




--------------------------------------- Iteration      1(  12)  ---------------------------------------


    POTLOK:  cpu time      0.3121: real time      0.3138
    SETDIJ:  cpu time      0.1868: real time      0.1877
     EDDAV:  cpu time      0.4028: real time      0.4051
       DOS:  cpu time      0.0001: real time      0.0001
    CHARGE:  cpu time      0.1999: real time      0.2007
    MIXING:  cpu time      0.0085: real time      0.0086
    --------------------------------------------
      LOOP:  cpu time      1.1103: real time      1.1159

 eigenvalue-minimisations  :    64
 total energy-change (2. order) :-0.4922018E-02  (-0.5797359E-03)
 number of electron      22.0000000 magnetization 
 augmentation part        0.4836674 magnetization 

 Broyden mixing:
  rms(total) = 0.74110E-02    rms(broyden)= 0.74102E-02
  rms(prec ) = 0.12201E-01
  weight for this iteration     100.00

 eigenvalues of (default mixing * dielectric matrix)
  average eigenvalue GAMMA=   1.9523
  4.4718  2.5178  2.0843  1.4047  1.0863  1.0508  1.0508

 Free energy of the ion-electron system (eV)
  ---------------------------------------------------
  alpha Z        PSCENC =         0.62641250
  Ewald energy   TEWEN  =       959.50756373
  -Hartree energ DENC   =     -1495.03083299
  -exchange      EXHF   =         0.00000000
  -V(xc)+E(xc)   XCENC  =        72.88601127
  PAW double counting   =       287.42027554     -292.69172233
  entropy T*S    EENTRO =        -0.00000000
  eigenvalues    EBANDS =      -252.16262565
  atomic energy  EATOM  =       663.51739852
  Solvation  Ediel_sol  =         0.00000000
  ---------------------------------------------------
  free energy    TOTEN  =       -55.92751941 eV

  energy without entropy =      -55.92751941  energy(sigma->0) =      -55.92751941


--------------------------------------------------------------------------------------------------------




--------------------------------------- Iteration      1(  13)  ---------------------------------------


    POTLOK:  cpu time      0.3093: real time      0.3110
    SETDIJ:  cpu time      0.1869: real time      0.1878
     EDDAV:  cpu time      0.3636: real time      0.3656
       DOS:  cpu time      0.0001: real time      0.0001
    CHARGE:  cpu time      0.1928: real time      0.1936
    MIXING:  cpu time      0.0197: real time      0.0198
    --------------------------------------------
      LOOP:  cpu time      1.0724: real time      1.0779

 eigenvalue-minimisations  :    56
 total energy-change (2. order) :-0.7590334E-02  (-0.2432211E-03)
 number of electron      22.0000000 magnetization 
 augmentation part        0.4841025 magnetization 

 Broyden mixing:
  rms(total) = 0.27463E-02    rms(broyden)= 0.27461E-02
  rms(prec ) = 0.61453E-02
  weight for this iteration     100.00

 eigenvalues of (default mixing * dielectric matrix)
  average eigenvalue GAMMA=   2.0709
  5.0937  2.9592  2.3038  1.7648  1.2759  1.0028  1.0836  1.0836

 Free energy of the ion-electron system (eV)
  ---------------------------------------------------
  alpha Z        PSCENC =         0.62641250
  Ewald energy   TEWEN  =       959.50756373
  -Hartree energ DENC   =     -1494.85642976
  -exchange      EXHF   =         0.00000000
  -V(xc)+E(xc)   XCENC  =        72.85873542
  PAW double counting   =       286.91065661     -292.17617350
  entropy T*S    EENTRO =        -0.00000000
  eigenvalues    EBANDS =      -252.32327326
  atomic energy  EATOM  =       663.51739852
  Solvation  Ediel_sol  =         0.00000000
  ---------------------------------------------------
  free energy    TOTEN  =       -55.93510974 eV

  energy without entropy =      -55.93510974  energy(sigma->0) =      -55.93510974


--------------------------------------------------------------------------------------------------------




--------------------------------------- Iteration      1(  14)  ---------------------------------------


    POTLOK:  cpu time      0.3083: real time      0.3100
    SETDIJ:  cpu time      0.1882: real time      0.1891
     EDDAV:  cpu time      0.4074: real time      0.4096
       DOS:  cpu time      0.0001: real time      0.0001
    CHARGE:  cpu time      0.1994: real time      0.2002
    MIXING:  cpu time      0.0093: real time      0.0094
    --------------------------------------------
      LOOP:  cpu time      1.1128: real time      1.1184

 eigenvalue-minimisations  :    64
 total energy-change (2. order) :-0.7145133E-02  (-0.1186201E-03)
 number of electron      22.0000000 magnetization 
 augmentation part        0.4841114 magnetization 

 Broyden mixing:
  rms(total) = 0.23739E-02    rms(broyden)= 0.23737E-02
  rms(prec ) = 0.37585E-02
  weight for this iteration     100.00

 eigenvalues of (default mixing * dielectric matrix)
  average eigenvalue GAMMA=   2.2065
  6.2473  3.5777  2.3264  2.0295  1.5067  1.0471  1.0471  1.1225  0.9540

 Free energy of the ion-electron system (eV)
  ---------------------------------------------------
  alpha Z        PSCENC =         0.62641250
  Ewald energy   TEWEN  =       959.50756373
  -Hartree energ DENC   =     -1495.18218957
  -exchange      EXHF   =         0.00000000
  -V(xc)+E(xc)   XCENC  =        72.84930314
  PAW double counting   =       286.96559846     -292.22976649
  entropy T*S    EENTRO =        -0.00000000
  eigenvalues    EBANDS =      -251.99657517
  atomic energy  EATOM  =       663.51739852
  Solvation  Ediel_sol  =         0.00000000
  ---------------------------------------------------
  free energy    TOTEN  =       -55.94225487 eV

  energy without entropy =      -55.94225487  energy(sigma->0) =      -55.94225487


--------------------------------------------------------------------------------------------------------




--------------------------------------- Iteration      1(  15)  ---------------------------------------


    POTLOK:  cpu time      0.3047: real time      0.3063
    SETDIJ:  cpu time      0.1877: real time      0.1885
     EDDAV:  cpu time      0.4043: real time      0.4066
       DOS:  cpu time      0.0001: real time      0.0001
    CHARGE:  cpu time      0.1988: real time      0.1996
    MIXING:  cpu time      0.0100: real time      0.0101
    --------------------------------------------
      LOOP:  cpu time      1.1056: real time      1.1112

 eigenvalue-minimisations  :    64
 total energy-change (2. order) :-0.2835979E-02  (-0.4576062E-04)
 number of electron      22.0000000 magnetization 
 augmentation part        0.4839473 magnetization 

 Broyden mixing:
  rms(total) = 0.97032E-03    rms(broyden)= 0.97024E-03
  rms(prec ) = 0.17728E-02
  weight for this iteration     100.00

 eigenvalues of (default mixing * dielectric matrix)
  average eigenvalue GAMMA=   2.3394
  7.1702  4.1943  2.3393  2.3393  1.5972  1.5972  1.0552  1.0552  0.9844  1.0612

 Free energy of the ion-electron system (eV)
  ---------------------------------------------------
  alpha Z        PSCENC =         0.62641250
  Ewald energy   TEWEN  =       959.50756373
  -Hartree energ DENC   =     -1495.37071784
  -exchange      EXHF   =         0.00000000
  -V(xc)+E(xc)   XCENC  =        72.84751567
  PAW double counting   =       287.10704087     -292.37282236
  entropy T*S    EENTRO =        -0.00000000
  eigenvalues    EBANDS =      -251.80748194
  atomic energy  EATOM  =       663.51739852
  Solvation  Ediel_sol  =         0.00000000
  ---------------------------------------------------
  free energy    TOTEN  =       -55.94509085 eV

  energy without entropy =      -55.94509085  energy(sigma->0) =      -55.94509085


--------------------------------------------------------------------------------------------------------




--------------------------------------- Iteration      1(  16)  ---------------------------------------


    POTLOK:  cpu time      0.3021: real time      0.3038
    SETDIJ:  cpu time      0.1927: real time      0.1935
     EDDAV:  cpu time      0.4087: real time      0.4110
       DOS:  cpu time      0.0001: real time      0.0001
    CHARGE:  cpu time      0.1955: real time      0.1963
    MIXING:  cpu time      0.0160: real time      0.0161
    --------------------------------------------
      LOOP:  cpu time      1.1152: real time      1.1208

 eigenvalue-minimisations  :    64
 total energy-change (2. order) :-0.1508581E-02  (-0.1879190E-04)
 number of electron      22.0000000 magnetization 
 augmentation part        0.4839866 magnetization 

 Broyden mixing:
  rms(total) = 0.57230E-03    rms(broyden)= 0.57226E-03
  rms(prec ) = 0.97769E-03
  weight for this iteration     100.00

 eigenvalues of (default mixing * dielectric matrix)
  average eigenvalue GAMMA=   2.3959
  8.0075  4.6489  2.7676  2.3374  1.8038  1.3521  1.3521  0.9972  1.0411  1.0236
  1.0236

 Free energy of the ion-electron system (eV)
  ---------------------------------------------------
  alpha Z        PSCENC =         0.62641250
  Ewald energy   TEWEN  =       959.50756373
  -Hartree energ DENC   =     -1495.28167950
  -exchange      EXHF   =         0.00000000
  -V(xc)+E(xc)   XCENC  =        72.84198307
  PAW double counting   =       287.02253276     -292.28776370
  entropy T*S    EENTRO =        -0.00000000
  eigenvalues    EBANDS =      -251.89304681
  atomic energy  EATOM  =       663.51739852
  Solvation  Ediel_sol  =         0.00000000
  ---------------------------------------------------
  free energy    TOTEN  =       -55.94659944 eV

  energy without entropy =      -55.94659944  energy(sigma->0) =      -55.94659944


--------------------------------------------------------------------------------------------------------




--------------------------------------- Iteration      1(  17)  ---------------------------------------


    POTLOK:  cpu time      0.2991: real time      0.3008
    SETDIJ:  cpu time      0.1865: real time      0.1873
     EDDAV:  cpu time      0.4431: real time      0.4456
       DOS:  cpu time      0.0001: real time      0.0001
    CHARGE:  cpu time      0.1961: real time      0.1971
    MIXING:  cpu time      0.0146: real time      0.0147
    --------------------------------------------
      LOOP:  cpu time      1.1396: real time      1.1456

 eigenvalue-minimisations  :    72
 total energy-change (2. order) :-0.3561512E-03  (-0.3957761E-05)
 number of electron      22.0000000 magnetization 
 augmentation part        0.4839263 magnetization 

 Broyden mixing:
  rms(total) = 0.32346E-03    rms(broyden)= 0.32339E-03
  rms(prec ) = 0.53417E-03
  weight for this iteration     100.00

 eigenvalues of (default mixing * dielectric matrix)
  average eigenvalue GAMMA=   2.4365
  8.4390  4.9832  2.7679  2.6611  2.0736  1.7267  1.3973  1.2239  1.0283  1.0283
  0.9743  0.9340

 Free energy of the ion-electron system (eV)
  ---------------------------------------------------
  alpha Z        PSCENC =         0.62641250
  Ewald energy   TEWEN  =       959.50756373
  -Hartree energ DENC   =     -1495.37032514
  -exchange      EXHF   =         0.00000000
  -V(xc)+E(xc)   XCENC  =        72.84467621
  PAW double counting   =       287.06939822     -292.33508935
  entropy T*S    EENTRO =        -0.00000000
  eigenvalues    EBANDS =      -251.80699028
  atomic energy  EATOM  =       663.51739852
  Solvation  Ediel_sol  =         0.00000000
  ---------------------------------------------------
  free energy    TOTEN  =       -55.94695559 eV

  energy without entropy =      -55.94695559  energy(sigma->0) =      -55.94695559


--------------------------------------------------------------------------------------------------------




--------------------------------------- Iteration      1(  18)  ---------------------------------------


    POTLOK:  cpu time      0.3000: real time      0.3017
    SETDIJ:  cpu time      0.1884: real time      0.1893
     EDDAV:  cpu time      0.4075: real time      0.4098
       DOS:  cpu time      0.0001: real time      0.0001
    CHARGE:  cpu time      0.1971: real time      0.1980
    MIXING:  cpu time      0.0142: real time      0.0143
    --------------------------------------------
      LOOP:  cpu time      1.1074: real time      1.1132

 eigenvalue-minimisations  :    64
 total energy-change (2. order) :-0.2262065E-03  (-0.9475087E-06)
 number of electron      22.0000000 magnetization 
 augmentation part        0.4839347 magnetization 

 Broyden mixing:
  rms(total) = 0.15824E-03    rms(broyden)= 0.15816E-03
  rms(prec ) = 0.25658E-03
  weight for this iteration     100.00

 eigenvalues of (default mixing * dielectric matrix)
  average eigenvalue GAMMA=   2.4035
  8.5488  5.2862  3.2650  2.4201  2.3665  1.7337  1.4154  1.1740  1.1740  1.0156
  1.0156  0.9531  0.8780

 Free energy of the ion-electron system (eV)
  ---------------------------------------------------
  alpha Z        PSCENC =         0.62641250
  Ewald energy   TEWEN  =       959.50756373
  -Hartree energ DENC   =     -1495.36288789
  -exchange      EXHF   =         0.00000000
  -V(xc)+E(xc)   XCENC  =        72.84375548
  PAW double counting   =       287.04630821     -292.31188537
  entropy T*S    EENTRO =        -0.00000000
  eigenvalues    EBANDS =      -251.81384697
  atomic energy  EATOM  =       663.51739852
  Solvation  Ediel_sol  =         0.00000000
  ---------------------------------------------------
  free energy    TOTEN  =       -55.94718179 eV

  energy without entropy =      -55.94718179  energy(sigma->0) =      -55.94718179


--------------------------------------------------------------------------------------------------------




--------------------------------------- Iteration      1(  19)  ---------------------------------------


    POTLOK:  cpu time      0.3004: real time      0.3022
    SETDIJ:  cpu time      0.1888: real time      0.1897
     EDDAV:  cpu time      0.4072: real time      0.4095
       DOS:  cpu time      0.0001: real time      0.0001
    CHARGE:  cpu time      0.1955: real time      0.1963
    MIXING:  cpu time      0.0166: real time      0.0167
    --------------------------------------------
      LOOP:  cpu time      1.1087: real time      1.1145

 eigenvalue-minimisations  :    64
 total energy-change (2. order) :-0.4569039E-04  (-0.1080051E-06)
 number of electron      22.0000000 magnetization 
 augmentation part        0.4839399 magnetization 

 Broyden mixing:
  rms(total) = 0.94276E-04    rms(broyden)= 0.94174E-04
  rms(prec ) = 0.16596E-03
  weight for this iteration     100.00

 eigenvalues of (default mixing * dielectric matrix)
  average eigenvalue GAMMA=   2.4569
  8.8162  5.6386  3.7496  2.7943  2.3167  1.7734  1.6959  1.4045  1.1320  1.1320
  1.0206  1.0206  0.9513  0.9513

 Free energy of the ion-electron system (eV)
  ---------------------------------------------------
  alpha Z        PSCENC =         0.62641250
  Ewald energy   TEWEN  =       959.50756373
  -Hartree energ DENC   =     -1495.36869053
  -exchange      EXHF   =         0.00000000
  -V(xc)+E(xc)   XCENC  =        72.84396582
  PAW double counting   =       287.04625737     -292.31174513
  entropy T*S    EENTRO =        -0.00000000
  eigenvalues    EBANDS =      -251.80838977
  atomic energy  EATOM  =       663.51739852
  Solvation  Ediel_sol  =         0.00000000
  ---------------------------------------------------
  free energy    TOTEN  =       -55.94722748 eV

  energy without entropy =      -55.94722748  energy(sigma->0) =      -55.94722748


--------------------------------------------------------------------------------------------------------




--------------------------------------- Iteration      1(  20)  ---------------------------------------


    POTLOK:  cpu time      0.3061: real time      0.3077
    SETDIJ:  cpu time      0.1885: real time      0.1893
     EDDAV:  cpu time      0.3293: real time      0.3313
       DOS:  cpu time      0.0001: real time      0.0001
    CHARGE:  cpu time      0.1966: real time      0.1974
    MIXING:  cpu time      0.0147: real time      0.0148
    --------------------------------------------
      LOOP:  cpu time      1.0352: real time      1.0406

 eigenvalue-minimisations  :    48
 total energy-change (2. order) :-0.4072219E-04  (-0.6679726E-07)
 number of electron      22.0000000 magnetization 
 augmentation part        0.4839415 magnetization 

 Broyden mixing:
  rms(total) = 0.68331E-04    rms(broyden)= 0.68188E-04
  rms(prec ) = 0.99665E-04
  weight for this iteration     100.00

 eigenvalues of (default mixing * dielectric matrix)
  average eigenvalue GAMMA=   2.3764
  8.8672  5.6945  3.9230  2.6684  2.3532  1.7940  1.7940  1.2896  1.1632  1.1632
  1.0249  1.0249  0.9234  0.9815  0.9815

 Free energy of the ion-electron system (eV)
  ---------------------------------------------------
  alpha Z        PSCENC =         0.62641250
  Ewald energy   TEWEN  =       959.50756373
  -Hartree energ DENC   =     -1495.36965412
  -exchange      EXHF   =         0.00000000
  -V(xc)+E(xc)   XCENC  =        72.84374657
  PAW double counting   =       287.04749592     -292.31300313
  entropy T*S    EENTRO =        -0.00000000
  eigenvalues    EBANDS =      -251.80722820
  atomic energy  EATOM  =       663.51739852
  Solvation  Ediel_sol  =         0.00000000
  ---------------------------------------------------
  free energy    TOTEN  =       -55.94726821 eV

  energy without entropy =      -55.94726821  energy(sigma->0) =      -55.94726821


--------------------------------------------------------------------------------------------------------




--------------------------------------- Iteration      1(  21)  ---------------------------------------


    POTLOK:  cpu time      0.3080: real time      0.3097
    SETDIJ:  cpu time      0.1880: real time      0.1889
     EDDAV:  cpu time      0.2854: real time      0.2871
       DOS:  cpu time      0.0001: real time      0.0001
    CHARGE:  cpu time      0.1960: real time      0.1968
    MIXING:  cpu time      0.0163: real time      0.0164
    --------------------------------------------
      LOOP:  cpu time      0.9939: real time      0.9989

 eigenvalue-minimisations  :    40
 total energy-change (2. order) :-0.7205211E-05  (-0.1064199E-07)
 number of electron      22.0000000 magnetization 
 augmentation part        0.4839399 magnetization 

 Broyden mixing:
  rms(total) = 0.33623E-04    rms(broyden)= 0.33349E-04
  rms(prec ) = 0.58803E-04
  weight for this iteration     100.00

 eigenvalues of (default mixing * dielectric matrix)
  average eigenvalue GAMMA=   2.4823
  8.9757  6.1354  4.4974  3.1133  2.6624  2.2696  1.7435  1.4828  1.3653  1.2599
  1.2599  1.0239  1.0239  0.9869  0.9869  0.9292

 Free energy of the ion-electron system (eV)
  ---------------------------------------------------
  alpha Z        PSCENC =         0.62641250
  Ewald energy   TEWEN  =       959.50756373
  -Hartree energ DENC   =     -1495.37473658
  -exchange      EXHF   =         0.00000000
  -V(xc)+E(xc)   XCENC  =        72.84390648
  PAW double counting   =       287.05035285     -292.31588477
  entropy T*S    EENTRO =        -0.00000000
  eigenvalues    EBANDS =      -251.80228814
  atomic energy  EATOM  =       663.51739852
  Solvation  Ediel_sol  =         0.00000000
  ---------------------------------------------------
  free energy    TOTEN  =       -55.94727541 eV

  energy without entropy =      -55.94727541  energy(sigma->0) =      -55.94727541


--------------------------------------------------------------------------------------------------------




--------------------------------------- Iteration      1(  22)  ---------------------------------------


    POTLOK:  cpu time      0.3117: real time      0.3134
    SETDIJ:  cpu time      0.1888: real time      0.1896
     EDDAV:  cpu time      0.3352: real time      0.3370
       DOS:  cpu time      0.0001: real time      0.0001
    CHARGE:  cpu time      0.1991: real time      0.1999
    MIXING:  cpu time      0.0164: real time      0.0165
    --------------------------------------------
      LOOP:  cpu time      1.0514: real time      1.0566

 eigenvalue-minimisations  :    48
 total energy-change (2. order) :-0.1061063E-04  (-0.1875422E-07)
 number of electron      22.0000000 magnetization 
 augmentation part        0.4839395 magnetization 

 Broyden mixing:
  rms(total) = 0.24156E-04    rms(broyden)= 0.23772E-04
  rms(prec ) = 0.32658E-04
  weight for this iteration     100.00

 eigenvalues of (default mixing * dielectric matrix)
  average eigenvalue GAMMA=   2.4351
  9.1045  6.3678  4.7536  3.2388  2.5007  2.3577  1.6926  1.6926  1.1892  1.1892
  1.1829  1.1829  1.0171  1.0171  0.9320  0.9532  1.0255

 Free energy of the ion-electron system (eV)
  ---------------------------------------------------
  alpha Z        PSCENC =         0.62641250
  Ewald energy   TEWEN  =       959.50756373
  -Hartree energ DENC   =     -1495.37552204
  -exchange      EXHF   =         0.00000000
  -V(xc)+E(xc)   XCENC  =        72.84387895
  PAW double counting   =       287.05200598     -292.31754957
  entropy T*S    EENTRO =        -0.00000000
  eigenvalues    EBANDS =      -251.80147410
  atomic energy  EATOM  =       663.51739852
  Solvation  Ediel_sol  =         0.00000000
  ---------------------------------------------------
  free energy    TOTEN  =       -55.94728602 eV

  energy without entropy =      -55.94728602  energy(sigma->0) =      -55.94728602


--------------------------------------------------------------------------------------------------------




--------------------------------------- Iteration      1(  23)  ---------------------------------------


    POTLOK:  cpu time      0.3124: real time      0.3141
    SETDIJ:  cpu time      0.1892: real time      0.1903
     EDDAV:  cpu time      0.3287: real time      0.3305
       DOS:  cpu time      0.0001: real time      0.0001
    CHARGE:  cpu time      0.1968: real time      0.1977
    MIXING:  cpu time      0.0172: real time      0.0173
    --------------------------------------------
      LOOP:  cpu time      1.0445: real time      1.0499

 eigenvalue-minimisations  :    48
 total energy-change (2. order) :-0.1015507E-05  (-0.1854900E-08)
 number of electron      22.0000000 magnetization 
 augmentation part        0.4839403 magnetization 

 Broyden mixing:
  rms(total) = 0.12882E-04    rms(broyden)= 0.12153E-04
  rms(prec ) = 0.19485E-04
  weight for this iteration     100.00

 eigenvalues of (default mixing * dielectric matrix)
  average eigenvalue GAMMA=   2.4948
  9.1410  6.7043  5.0058  3.5409  2.6634  2.3262  2.3262  1.7931  1.3452  1.3452
  1.3753  1.3753  1.0249  1.0249  1.0363  0.9680  0.9680  0.9418

 Free energy of the ion-electron system (eV)
  ---------------------------------------------------
  alpha Z        PSCENC =         0.62641250
  Ewald energy   TEWEN  =       959.50756373
  -Hartree energ DENC   =     -1495.37456768
  -exchange      EXHF   =         0.00000000
  -V(xc)+E(xc)   XCENC  =        72.84383436
  PAW double counting   =       287.05027692     -292.31580737
  entropy T*S    EENTRO =        -0.00000000
  eigenvalues    EBANDS =      -251.80239802
  atomic energy  EATOM  =       663.51739852
  Solvation  Ediel_sol  =         0.00000000
  ---------------------------------------------------
  free energy    TOTEN  =       -55.94728704 eV

  energy without entropy =      -55.94728704  energy(sigma->0) =      -55.94728704


--------------------------------------------------------------------------------------------------------




--------------------------------------- Iteration      1(  24)  ---------------------------------------


    POTLOK:  cpu time      0.3173: real time      0.3191
    SETDIJ:  cpu time      0.1884: real time      0.1892
     EDDAV:  cpu time      0.2894: real time      0.2910
       DOS:  cpu time      0.0001: real time      0.0001
    CHARGE:  cpu time      0.1969: real time      0.1978
    MIXING:  cpu time      0.0152: real time      0.0153
    --------------------------------------------
      LOOP:  cpu time      1.0073: real time      1.0125

 eigenvalue-minimisations  :    40
 total energy-change (2. order) :-0.2084156E-05  (-0.5133668E-08)
 number of electron      22.0000000 magnetization 
 augmentation part        0.4839407 magnetization 

 Broyden mixing:
  rms(total) = 0.15504E-04    rms(broyden)= 0.14903E-04
  rms(prec ) = 0.19098E-04
  weight for this iteration     100.00

 eigenvalues of (default mixing * dielectric matrix)
  average eigenvalue GAMMA=   2.4493
  9.1638  6.8928  5.1597  3.7349  2.8278  2.4061  2.2531  1.7496  1.5201  1.2980
  1.2980  1.1586  1.1586  1.0234  1.0234  0.9848  0.9848  0.9500  0.9500

 Free energy of the ion-electron system (eV)
  ---------------------------------------------------
  alpha Z        PSCENC =         0.62641250
  Ewald energy   TEWEN  =       959.50756373
  -Hartree energ DENC   =     -1495.37463860
  -exchange      EXHF   =         0.00000000
  -V(xc)+E(xc)   XCENC  =        72.84384007
  PAW double counting   =       287.04957671     -292.31509914
  entropy T*S    EENTRO =        -0.00000000
  eigenvalues    EBANDS =      -251.80234292
  atomic energy  EATOM  =       663.51739852
  Solvation  Ediel_sol  =         0.00000000
  ---------------------------------------------------
  free energy    TOTEN  =       -55.94728912 eV

  energy without entropy =      -55.94728912  energy(sigma->0) =      -55.94728912


--------------------------------------------------------------------------------------------------------




--------------------------------------- Iteration      1(  25)  ---------------------------------------


    POTLOK:  cpu time      0.3198: real time      0.3215
    SETDIJ:  cpu time      0.1886: real time      0.1894
     EDDAV:  cpu time      0.3290: real time      0.3308
       DOS:  cpu time      0.0001: real time      0.0001
    --------------------------------------------
      LOOP:  cpu time      0.8375: real time      0.8418

 eigenvalue-minimisations  :    48
 total energy-change (2. order) :-0.2391311E-06  (-0.8343566E-09)
 number of electron      22.0000000 magnetization 
 augmentation part        0.4839407 magnetization 

 Free energy of the ion-electron system (eV)
  ---------------------------------------------------
  alpha Z        PSCENC =         0.62641250
  Ewald energy   TEWEN  =       959.50756373
  -Hartree energ DENC   =     -1495.37555715
  -exchange      EXHF   =         0.00000000
  -V(xc)+E(xc)   XCENC  =        72.84386552
  PAW double counting   =       287.05030954     -292.31584223
  entropy T*S    EENTRO =        -0.00000000
  eigenvalues    EBANDS =      -251.80143979
  atomic energy  EATOM  =       663.51739852
  Solvation  Ediel_sol  =         0.00000000
  ---------------------------------------------------
  free energy    TOTEN  =       -55.94728936 eV

  energy without entropy =      -55.94728936  energy(sigma->0) =      -55.94728936


--------------------------------------------------------------------------------------------------------




 average (electrostatic) potential at core
  the test charge radii are     0.6991  0.5201
  (the norm of the test charge is              1.0000)
       1 -58.7030       2 -58.5073       3 -58.4763       4 -58.6357       5 -41.6073
       6 -41.8645       7 -41.8128       8 -41.8437       9 -41.5517      10 -41.7507
 
 
 
 E-fermi :  -5.6172     XC(G=0):  -0.4265     alpha+bet : -0.1681

 Fermi energy:        -5.6171926613

 k-point     1 :       0.0000    0.0000    0.0000
  band No.  band energies     occupation 
      1     -20.5186      2.00000
      2     -16.0375      2.00000
      3     -15.5811      2.00000
      4     -12.4538      2.00000
      5     -11.8304      2.00000
      6     -10.7445      2.00000
      7      -9.1769      2.00000
      8      -9.0947      2.00000
      9      -7.6660      2.00000
     10      -6.8867      2.00000
     11      -5.9105      2.00000
     12      -0.6034      0.00000
     13      -0.3488      0.00000
     14      -0.1110      0.00000
     15       0.1652      0.00000
     16       0.3330      0.00000
     17       0.3797      0.00000
     18       0.6047      0.00000
     19       0.6458      0.00000
     20       0.7541      0.00000
     21       0.8824      0.00000
     22       0.9742      0.00000
     23       1.0189      0.00000
     24       1.0497      0.00000


--------------------------------------------------------------------------------------------------------


 soft charge-density along one line, spin component           1
         0         1         2         3         4         5         6         7         8         9
 total charge-density along one line
 
 pseudopotential strength for first ion, spin component:           1
 10.249   0.020  -0.001   0.004  -0.001  -0.000   0.002  -0.000
  0.020  -0.001   0.000  -0.000   0.000  -0.000   0.000  -0.000
 -0.001   0.000  -4.375   0.006   0.001  -0.012   0.001   0.000
  0.004  -0.000   0.006  -4.368  -0.000   0.001  -0.009  -0.000
 -0.001   0.000   0.001  -0.000  -4.377   0.000  -0.000  -0.012
 -0.000  -0.000  -0.012   0.001   0.000  -0.773   0.000   0.000
  0.002   0.000   0.001  -0.009  -0.000   0.000  -0.773  -0.000
 -0.000  -0.000   0.000  -0.000  -0.012   0.000  -0.000  -0.773
 total augmentation occupancy for first ion, spin component:           1
  1.435  -0.929   0.014  -0.068   0.016  -0.000  -0.024   0.005
 -0.929   0.699   0.008   0.080  -0.016   0.015   0.009   0.005
  0.014   0.008   1.103  -0.069  -0.022   0.166  -0.026  -0.001
 -0.068   0.080  -0.069   0.938   0.022  -0.027   0.120   0.005
  0.016  -0.016  -0.022   0.022   1.131  -0.001   0.005   0.175
 -0.000   0.015   0.166  -0.027  -0.001   0.028  -0.007   0.001
 -0.024   0.009  -0.026   0.120   0.005  -0.007   0.018   0.000
  0.005   0.005  -0.001   0.005   0.175   0.001   0.000   0.029


------------------------ aborting loop because EDIFF is reached ----------------------------------------


    CHARGE:  cpu time      0.1925: real time      0.1933
    FORLOC:  cpu time      0.0368: real time      0.0370
    FORNL :  cpu time      1.0595: real time      1.0649
    STRESS:  cpu time      3.3555: real time      3.3716
    FORHAR:  cpu time      0.1107: real time      0.1112
    MIXING:  cpu time      0.0121: real time      0.0122
    OFIELD:  cpu time      0.0001: real time      0.0001

  FORCE on cell =-STRESS in cart. coord.  units (eV):
  Direction    XX          YY          ZZ          XY          YZ          ZX
  --------------------------------------------------------------------------------------
  Alpha Z     0.62641     0.62641     0.62641
  Ewald     125.13389   329.02491   505.34843   213.46634    15.80433   -45.83636
  Hartree   374.79991   507.17747   613.39790   131.29648    11.95647   -33.07581
  E(xc)     -76.65308   -76.33535   -75.95081     0.44136     0.00465    -0.04391
  Local    -702.78970 -1037.95638 -1312.66862  -341.38102   -28.47337    79.27154
  n-local   -29.98377   -29.71983   -29.74661     0.17163    -0.09764    -0.35175
  augment    -0.56341    -0.54762    -0.61478     0.00216     0.00848    -0.00115
  Kinetic   307.72540   307.46186   294.99686    -4.85893     2.34132     1.47950
  Fock        0.00000     0.00000     0.00000     0.00000     0.00000     0.00000
  -------------------------------------------------------------------------------------
  Total      -1.70434    -0.26853    -4.61122    -0.86198     1.54423     1.44206
  in kB      -0.80908    -0.12747    -2.18903    -0.40920     0.73308     0.68457
  external pressure =       -1.04 kB  Pullay stress =        0.00 kB


 VOLUME and BASIS-vectors are now :
 -----------------------------------------------------------------------------
  energy-cutoff  :      520.00
  volume of cell :     3375.00
      direct lattice vectors                 reciprocal lattice vectors
    15.000000000  0.000000000  0.000000000     0.066666667  0.000000000  0.000000000
     0.000000000 15.000000000  0.000000000     0.000000000  0.066666667  0.000000000
     0.000000000  0.000000000 15.000000000     0.000000000  0.000000000  0.066666667

  length of vectors
    15.000000000 15.000000000 15.000000000     0.066666667  0.066666667  0.066666667


 FORCES acting on ions
    electron-ion (+dipol)            ewald-force                    non-local-force                 convergence-correction
 -----------------------------------------------------------------------------------------------
   -.663E+02 -.906E+02 0.880E+02   0.664E+02 0.905E+02 -.875E+02   -.704E+00 -.114E+01 0.269E+01   -.396E-04 -.608E-04 0.645E-04
   0.395E+02 0.918E+02 0.139E+03   -.401E+02 -.931E+02 -.142E+03   0.945E+00 0.155E+01 0.624E+00   -.164E-04 0.154E-04 0.965E-04
   0.709E+02 0.116E+03 -.112E+03   -.720E+02 -.117E+03 0.113E+03   0.713E+00 0.163E+01 -.240E+00   0.372E-04 0.765E-04 -.565E-04
   -.360E+02 -.919E+02 -.106E+03   0.368E+02 0.927E+02 0.105E+03   -.674E-01 -.839E+00 -.159E+01   -.317E-04 -.675E-04 -.198E-04
   -.679E+02 -.252E+01 0.186E+02   0.727E+02 0.194E+01 -.193E+02   -.533E+01 0.604E+00 0.467E+00   0.612E-05 -.581E-05 0.462E-05
   0.151E+02 -.544E+02 0.432E+02   -.173E+02 0.590E+02 -.462E+02   0.210E+01 -.431E+01 0.314E+01   -.814E-05 0.521E-05 -.293E-05
   0.245E+02 0.403E+02 0.540E+02   -.264E+02 -.435E+02 -.581E+02   0.201E+01 0.308E+01 0.427E+01   0.389E-05 0.128E-04 0.169E-04
   0.336E+02 0.454E+02 -.430E+02   -.359E+02 -.485E+02 0.457E+02   0.259E+01 0.330E+01 -.339E+01   0.932E-05 0.173E-04 -.104E-04
   -.523E+02 -.465E+01 -.475E+02   0.566E+02 0.444E+01 0.504E+02   -.441E+01 0.352E+00 -.308E+01   -.180E-04 -.476E-05 -.116E-04
   0.372E+02 -.499E+02 -.360E+02   -.408E+02 0.539E+02 0.380E+02   0.371E+01 -.363E+01 -.214E+01   0.862E-05 -.190E-04 -.770E-05
 -----------------------------------------------------------------------------------------------
   -.156E+01 -.596E+00 -.757E+00   -.711E-14 -.355E-13 0.213E-13   0.155E+01 0.596E+00 0.751E+00   -.489E-04 -.306E-04 0.734E-04
 
 
 POSITION                                       TOTAL-FORCE (eV/Angst)
 -----------------------------------------------------------------------------------
      7.97500      8.05600      6.63700        -0.540939     -1.212586      3.220054
      7.13900      6.75700      6.73800         0.314485      0.329539     -1.413729
      6.97100      6.67500      8.05000        -0.343807      0.040256      1.131139
      7.62800      7.97400      8.43700         0.771085     -0.058764     -1.916239
      9.07300      7.92800      6.52200        -0.497538      0.018320     -0.167686
      7.57600      8.87600      6.04200        -0.102004      0.267345      0.105643
      6.75600      6.15400      5.90700         0.139361     -0.116202      0.120830
      6.43800      5.98700      8.74300         0.329815      0.169069     -0.647541
      8.53300      7.90300      9.07400        -0.187368      0.149459     -0.219625
      6.91100      8.69000      8.85000         0.116911      0.413564     -0.212845
 -----------------------------------------------------------------------------------
    total drift:                               -0.010051      0.000548     -0.005727


--------------------------------------------------------------------------------------------------------



  FREE ENERGIE OF THE ION-ELECTRON SYSTEM (eV)
  ---------------------------------------------------
  free  energy   TOTEN  =       -55.94728936 eV

  energy  without entropy=      -55.94728936  energy(sigma->0) =      -55.94728936
 


--------------------------------------------------------------------------------------------------------


    POTLOK:  cpu time      0.5108: real time      0.5133


--------------------------------------------------------------------------------------------------------


 stress matrix after NEB project (eV)
     -1.70434     -0.86198      1.44206
     -0.86198     -0.26853      1.54423
      1.44206      1.54423     -4.61122
  FORCES: max atom, RMS     3.483063    1.460002
  FORCE total and by dimension    4.616933    3.220054
  Stress total and by dimension    5.886816    4.611215
     LOOP+:  cpu time     29.9661: real time     30.1194
    4ORBIT:  cpu time      0.0000: real time      0.0000

 total amount of memory used by VASP MPI-rank0   224782. kBytes
=======================================================================

   base      :      30000. kBytes
   nonlr-proj:       1258. kBytes
   fftplans  :     123538. kBytes
   grid      :      67787. kBytes
   one-center:         15. kBytes
   wavefun   :       2184. kBytes
 
  
  
 General timing and accounting informations for this job:
 ========================================================
  
                  Total CPU time used (sec):       36.659
                            User time (sec):       33.473
                          System time (sec):        3.186
                         Elapsed time (sec):       37.910
  
                   Maximum memory used (kb):      563700.
                   Average memory used (kb):          N/A
  
                          Minor page faults:       158911
                          Major page faults:         5457
                 Voluntary context switches:         3129
