 vasp.6.4.2 20Jul23 (build Apr 10 2024 13:39:58) complex                        
  
 executed on             LinuxIFC date 2024.05.17  08:39:06
 running   16 mpi-ranks, on    1 nodes
 distrk:  each k-point on   16 cores,    1 groups
 distr:  one band on NCORE=   2 cores,    8 groups


--------------------------------------------------------------------------------------------------------


 INCAR:
   ISTART = 0
   ISPIN = 1
   LREAL = Auto
   ENCUT = 520
   NPAR = 8
   LPLANE = .TRUE.
   LSCALU = .FALSE.
   NSIM = 4
   LWAVE = .FALSE.
   LCHARG = .FALSE.
   ADDGRID = .TRUE.
   LASPH = .TRUE.
   PREC = Accurate
   ISMEAR = 0
   SIGMA = 0.05
   EDIFF = 1E-06
   NSW = 0
   TEBEG = 300
   TEEND = 700     	
   ISYM = 0
   NWRITE = 2

 POTCAR:   PAW_PBE C 08Apr2002                    
 POTCAR:   PAW_PBE H 15Jun2001                    
 POTCAR:   PAW_PBE C 08Apr2002                    
   VRHFIN =C: s2p2                                                                                  
   LEXCH  = PE                                                                                      
   EATOM  =   147.1560 eV,   10.8157 Ry                                                             
                                                                                                    
   TITEL  = PAW_PBE C 08Apr2002                                                                     
   LULTRA =        F    use ultrasoft PP ?                                                          
   IUNSCR =        0    unscreen: 0-lin 1-nonlin 2-no                                               
   RPACOR =     .000    partial core radius                                                         
   POMASS =   12.011; ZVAL   =    4.000    mass and valenz                                          
   RCORE  =    1.500    outmost cutoff radius                                                       
   RWIGS  =    1.630; RWIGS  =     .863    wigner-seitz radius (au A)                               
   ENMAX  =  400.000; ENMIN  =  300.000 eV                                                          
   ICORE  =        2    local potential                                                             
   LCOR   =        T    correct aug charges                                                         
   LPAW   =        T    paw PP                                                                      
   EAUG   =  644.873                                                                                
   DEXC   =     .000                                                                                
   RMAX   =    2.266    core radius for proj-oper                                                   
   RAUG   =    1.300    factor for augmentation sphere                                              
   RDEP   =    1.501    radius for radial grids                                                     
   RDEPT  =    1.300    core radius for aug-charge                                                  
   QCUT   =   -5.516; QGAM   =   11.032    optimization parameters                                  
                                                                                                    
   Description                                                                                      
     l     E      TYP  RCUT    TYP  RCUT                                                            
     0   .000     23  1.200                                                                         
     0   .000     23  1.200                                                                         
     1   .000     23  1.500                                                                         
     1  2.500     23  1.500                                                                         
     2   .000      7  1.500                                                                         
  local pseudopotential read in
  atomic valenz-charges read in
  non local Contribution for L=           0  read in
    real space projection operators read in
  non local Contribution for L=           0  read in
    real space projection operators read in
  non local Contribution for L=           1  read in
    real space projection operators read in
  non local Contribution for L=           1  read in
    real space projection operators read in
    PAW grid and wavefunctions read in
 
   number of l-projection  operators is LMAX  =           4
   number of lm-projection operators is LMMAX =           8
 
 POTCAR:   PAW_PBE H 15Jun2001                    
   VRHFIN =H: ultrasoft test                                                                        
   LEXCH  = PE                                                                                      
   EATOM  =    12.4884 eV,     .9179 Ry                                                             
                                                                                                    
   TITEL  = PAW_PBE H 15Jun2001                                                                     
   LULTRA =        F    use ultrasoft PP ?                                                          
   IUNSCR =        0    unscreen: 0-lin 1-nonlin 2-no                                               
   RPACOR =     .000    partial core radius                                                         
   POMASS =    1.000; ZVAL   =    1.000    mass and valenz                                          
   RCORE  =    1.100    outmost cutoff radius                                                       
   RWIGS  =     .700; RWIGS  =     .370    wigner-seitz radius (au A)                               
   ENMAX  =  250.000; ENMIN  =  200.000 eV                                                          
   RCLOC  =     .701    cutoff for local pot                                                        
   LCOR   =        T    correct aug charges                                                         
   LPAW   =        T    paw PP                                                                      
   EAUG   =  400.000                                                                                
   RMAX   =    2.174    core radius for proj-oper                                                   
   RAUG   =    1.200    factor for augmentation sphere                                              
   RDEP   =    1.112    radius for radial grids                                                     
   QCUT   =   -5.749; QGAM   =   11.498    optimization parameters                                  
                                                                                                    
   Description                                                                                      
     l     E      TYP  RCUT    TYP  RCUT                                                            
     0   .000     23  1.100                                                                         
     0   .500     23  1.100                                                                         
     1  -.300     23  1.100                                                                         
  local pseudopotential read in
  atomic valenz-charges read in
  non local Contribution for L=           0  read in
    real space projection operators read in
  non local Contribution for L=           0  read in
    real space projection operators read in
  non local Contribution for L=           1  read in
    real space projection operators read in
    PAW grid and wavefunctions read in
 
   number of l-projection  operators is LMAX  =           3
   number of lm-projection operators is LMMAX =           5
 
 Optimization of the real space projectors (new method)

 maximal supplied QI-value         = 25.13
 optimisation between [QCUT,QGAM] = [ 11.56, 23.12] = [ 37.43,149.72] Ry 
 Optimized for a Real-space Cutoff    1.04 Angstroem

   l    n(q)    QCUT    max X(q) W(low)/X(q) W(high)/X(q)  e(spline) 
   0      7    11.561     5.582    0.47E-04    0.94E-04    0.17E-07
   0      7    11.561    69.432    0.20E-03    0.59E-03    0.21E-06
   1      7    11.561     2.780    0.24E-04    0.70E-04    0.44E-07
   1      7    11.561     4.549    0.18E-03    0.25E-03    0.12E-06
 Optimization of the real space projectors (new method)

 maximal supplied QI-value         = 34.20
 optimisation between [QCUT,QGAM] = [ 11.63, 23.26] = [ 37.87,151.49] Ry 
 Optimized for a Real-space Cutoff    1.21 Angstroem

   l    n(q)    QCUT    max X(q) W(low)/X(q) W(high)/X(q)  e(spline) 
   0      8    11.629     4.436    0.19E-04    0.32E-04    0.47E-07
   0      8    11.629    16.131    0.16E-03    0.33E-03    0.21E-06
   1      8    11.629     4.654    0.18E-03    0.16E-03    0.26E-06
 PAW_PBE C 08Apr2002                    :
 energy of atom  1       EATOM= -147.1560
 kinetic energy error for atom=    0.0071 (will be added to EATOM!!)
 PAW_PBE H 15Jun2001                    :
 energy of atom  2       EATOM=  -12.4884
 kinetic energy error for atom=    0.0014 (will be added to EATOM!!)
 
 
 POSCAR:  C  H
  positions in cartesian coordinates
  No initial velocities read in
 exchange correlation table for  LEXCH =        8
   RHO(1)=    0.500       N(1)  =     2000
   RHO(2)=  100.500       N(2)  =     4000

 VTST: version 4.1, (05/19/21)

 CHAIN: initializing optimizer
 
 OPT: Using VASP Dynamics algorithm
 CHAIN: Read ICHAIN            0
 
 POSCAR:  C  H
  positions in cartesian coordinates
  No initial velocities read in
 


--------------------------------------------------------------------------------------------------------


 ion  position               nearest neighbor table
   1  0.531  0.531  0.396-   6 1.10   5 1.11   2 1.34
   2  0.498  0.468  0.450-   7 1.08   1 1.34   3 1.44
   3  0.498  0.460  0.545-   8 1.12   4 1.36   2 1.44
   4  0.475  0.521  0.608-   9 1.11  10 1.15   3 1.36
   5  0.517  0.530  0.323-   1 1.11
   6  0.560  0.590  0.427-   1 1.10
   7  0.470  0.410  0.417-   2 1.08
   8  0.517  0.392  0.567-   3 1.12
   9  0.452  0.587  0.585-   4 1.11
  10  0.482  0.510  0.684-   4 1.15
 

IMPORTANT INFORMATION: All symmetrisations will be switched off!
NOSYMM: (Re-)initialisation of all symmetry stuff for point group C_1.


----------------------------------------------------------------------------------------

                                     Primitive cell                                     

  volume of cell :    3375.0000

  direct lattice vectors                    reciprocal lattice vectors
    15.000000000  0.000000000  0.000000000     0.066666667  0.000000000  0.000000000
     0.000000000 15.000000000  0.000000000     0.000000000  0.066666667  0.000000000
     0.000000000  0.000000000 15.000000000     0.000000000  0.000000000  0.066666667

  length of vectors
    15.000000000 15.000000000 15.000000000     0.066666667  0.066666667  0.066666667

  position of ions in fractional coordinates (direct lattice)
     0.530600007  0.531000010  0.395666663
     0.498066680  0.467999999  0.449533335
     0.498200003  0.460333347  0.545066643
     0.474599997  0.521066666  0.607866669
     0.517266655  0.530333328  0.322733339
     0.559733327  0.590399996  0.426799997
     0.470199998  0.410000006  0.416866652
     0.517400010  0.391533343  0.567333349
     0.451533318  0.587399991  0.584666697
     0.482466666  0.509866651  0.683533351

  ion indices of the primitive-cell ions
   primitive index   ion index
                 1           1
                 2           2
                 3           3
                 4           4
                 5           5
                 6           6
                 7           7
                 8           8
                 9           9
                10          10

----------------------------------------------------------------------------------------

 
 
 KPOINTS: K-Spacing Value to Generate K-Mesh: 1.00

Automatic generation of k-mesh.
 Grid dimensions read from file:
 generate k-points for:    1    1    1

 Generating k-lattice:

  Cartesian coordinates                     Fractional coordinates (reciprocal lattice)
     0.066666667  0.000000000  0.000000000     1.000000000  0.000000000  0.000000000
     0.000000000  0.066666667  0.000000000     0.000000000  1.000000000  0.000000000
     0.000000000  0.000000000  0.066666667     0.000000000  0.000000000  1.000000000

  Length of vectors
     0.066666667  0.066666667  0.066666667

  Shift w.r.t. Gamma in fractional coordinates (k-lattice)
     0.000000000  0.000000000  0.000000000

 
 Subroutine IBZKPT returns following result:
 ===========================================
 
 Found      1 irreducible k-points:
 
 Following reciprocal coordinates:
            Coordinates               Weight
  0.000000  0.000000  0.000000      1.000000
 
 Following cartesian coordinates:
            Coordinates               Weight
  0.000000  0.000000  0.000000      1.000000
 


--------------------------------------------------------------------------------------------------------




 Dimension of arrays:
   k-points           NKPTS =      1   k-points in BZ     NKDIM =      1   number of bands    NBANDS=     24
   number of dos      NEDOS =    301   number of ions     NIONS =     10
   non local maximal  LDIM  =      4   non local SUM 2l+1 LMDIM =      8
   total plane-waves  NPLWV = ******
   max r-space proj   IRMAX =   3145   max aug-charges    IRDMAX=  39494
   dimension x,y,z NGX =   112 NGY =  112 NGZ =  112
   dimension x,y,z NGXF=   224 NGYF=  224 NGZF=  224
   support grid    NGXF=   448 NGYF=  448 NGZF=  448
   ions per type =               4   6
   NGX,Y,Z   is equivalent  to a cutoff of  12.41, 12.41, 12.41 a.u.
   NGXF,Y,Z  is equivalent  to a cutoff of  24.83, 24.83, 24.83 a.u.

 SYSTEM =  unknown system                          
 POSCAR =   C  H                                   

 Startparameter for this run:
   NWRITE =      2    write-flag & timer
   PREC   = accura    normal or accurate (medium, high low for compatibility)
   ISTART =      0    job   : 0-new  1-cont  2-samecut
   ICHARG =      2    charge: 1-file 2-atom 10-const
   ISPIN  =      1    spin polarized calculation?
   LNONCOLLINEAR =      F non collinear calculations
   LSORBIT =      F    spin-orbit coupling
   INIWAV =      1    electr: 0-lowe 1-rand  2-diag
   LASPH  =      T    aspherical Exc in radial PAW
 Electronic Relaxation 1
   ENCUT  =  520.0 eV  38.22 Ry    6.18 a.u.  27.89 27.89 27.89*2*pi/ulx,y,z
   ENINI  =  520.0     initial cutoff
   ENAUG  =  644.9 eV  augmentation charge cutoff
   NELM   =     60;   NELMIN=  2; NELMDL= -5     # of ELM steps 
   EDIFF  = 0.1E-05   stopping-criterion for ELM
   LREAL  =      T    real-space projection
   NLSPLINE    = F    spline interpolate recip. space projectors
   LCOMPAT=      F    compatible to vasp.4.4
   GGA_COMPAT  = T    GGA compatible to vasp.4.4-vasp.4.6
   LMAXPAW     = -100 max onsite density
   LMAXMIX     =    2 max onsite mixed and CHGCAR
   VOSKOWN=      0    Vosko Wilk Nusair interpolation
   ROPT   =   -0.00025  -0.00025
 Ionic relaxation
   EDIFFG = 0.1E-04   stopping-criterion for IOM
   NSW    =      0    number of steps for IOM
   NBLOCK =      1;   KBLOCK =      1    inner block; outer block 
   IBRION =     -1    ionic relax: 0-MD 1-quasi-New 2-CG
   NFREE  =      0    steps in history (QN), initial steepest desc. (CG)
   ISIF   =      2    stress and relaxation
   IWAVPR =     10    prediction:  0-non 1-charg 2-wave 3-comb
   ISYM   =      0    0-nonsym 1-usesym 2-fastsym
   LCORR  =      T    Harris-Foulkes like correction to forces

   POTIM  = 0.5000    time-step for ionic-motion
   TEIN   =    0.0    initial temperature
   TEBEG  =  300.0;   TEEND  = 700.0 temperature during run
   SMASS  =  -3.00    Nose mass-parameter (am)
   estimated Nose-frequenzy (Omega)   =  0.10E-29 period in steps = 0.13E+47 mass=  -0.514E-26a.u.
   SCALEE = 1.0000    scale energy and forces
   NPACO  =    256;   APACO  = 10.0  distance and # of slots for P.C.
   PSTRESS=    0.0 pullay stress

  Mass of Ions in am
   POMASS =  12.01  1.00
  Ionic Valenz
   ZVAL   =   4.00  1.00
  Atomic Wigner-Seitz radii
   RWIGS  =  -1.00 -1.00
  virtual crystal weights 
   VCA    =   1.00  1.00
   NELECT =      22.0000    total number of electrons
   NUPDOWN=      -1.0000    fix difference up-down

 DOS related values:
   EMIN   =  10.00;   EMAX   =-10.00  energy-range for DOS
   EFERMI =   0.00;   METHOD = LEGACY      
   ISMEAR =     0;   SIGMA  =   0.05  broadening in eV -4-tet -1-fermi 0-gaus

 Electronic relaxation 2 (details)
   IALGO  =     38    algorithm
   LDIAG  =      T    sub-space diagonalisation (order eigenvalues)
   LSUBROT=      F    optimize rotation matrix (better conditioning)
   TURBO    =      0    0=normal 1=particle mesh
   IRESTART =      0    0=no restart 2=restart with 2 vectors
   NREBOOT  =      0    no. of reboots
   NMIN     =      0    reboot dimension
   EREF     =   0.00    reference energy to select bands
   IMIX   =      4    mixing-type and parameters
     AMIX     =   0.40;   BMIX     =  1.00
     AMIX_MAG =   1.60;   BMIX_MAG =  1.00
     AMIN     =   0.10
     WC   =   100.;   INIMIX=   1;  MIXPRE=   1;  MAXMIX= -45

 Intra band minimization:
   WEIMIN = 0.0000     energy-eigenvalue tresh-hold
   EBREAK =  0.10E-07  absolut break condition
   DEPER  =   0.30     relativ break condition  

   TIME   =   0.40     timestep for ELM

  volume/ion in A,a.u.               =     337.50      2277.56
  Fermi-wavevector in a.u.,A,eV,Ry     =   0.305814  0.577905  1.272449  0.093522
  Thomas-Fermi vector in A             =   1.179187
 
 Write flags
   LWAVE        =      F    write WAVECAR
   LDOWNSAMPLE  =      F    k-point downsampling of WAVECAR
   LCHARG       =      F    write CHGCAR
   LVTOT        =      F    write LOCPOT, total local potential
   LVHAR        =      F    write LOCPOT, Hartree potential only
   LELF         =      F    write electronic localiz. function (ELF)
   LORBIT       =      0    0 simple, 1 ext, 2 COOP (PROOUT), +10 PAW based schemes


 Dipole corrections
   LMONO  =      F    monopole corrections only (constant potential shift)
   LDIPOL =      F    correct potential (dipole corrections)
   IDIPOL =      0    1-x, 2-y, 3-z, 4-all directions 
   EPSILON=  1.0000000 bulk dielectric constant

 Exchange correlation treatment:
   GGA     =    --    GGA type
   LEXCH   =     8    internal setting for exchange type
   LIBXC   =     F    Libxc                    
   VOSKOWN =     0    Vosko Wilk Nusair interpolation
   LHFCALC =     F    Hartree Fock is set to
   LHFONE  =     F    Hartree Fock one center treatment
   AEXX    =    0.0000 exact exchange contribution

 Linear response parameters
   LEPSILON=     F    determine dielectric tensor
   LRPA    =     F    only Hartree local field effects (RPA)
   LNABLA  =     F    use nabla operator in PAW spheres
   LVEL    =     F    velocity operator in full k-point grid
   CSHIFT  =0.1000    complex shift for real part using Kramers Kronig
   OMEGAMAX=  -1.0    maximum frequency
   DEG_THRESHOLD= 0.2000000E-02 threshold for treating states as degnerate
   RTIME   =   -0.100 relaxation time in fs
  (WPLASMAI=    0.000 imaginary part of plasma frequency in eV, 0.658/RTIME)
   DFIELD  = 0.0000000 0.0000000 0.0000000 field for delta impulse in time
 
  Optional k-point grid parameters
   LKPOINTS_OPT  =     F    use optional k-point grid
   KPOINTS_OPT_MODE=     1    mode for optional k-point grid
 
 Orbital magnetization related:
   ORBITALMAG=     F  switch on orbital magnetization
   LCHIMAG   =     F  perturbation theory with respect to B field
   DQ        =  0.001000  dq finite difference perturbation B field
   LLRAUG    =     F  two centre corrections for induced B field
   LBONE     =     F  B-component reconstruction in AE one-centre
   LVGVCALC  =     T  calculate vGv susceptibility
   LVGVAPPL  =     F  apply vGv susceptibility instead of pGv for G=0

 Random number generation:
   RANDOM_GENERATOR = DEFAULT
   PCG_SEED         = not used


--------------------------------------------------------------------------------------------------------


 Static calculation
 charge density and potential will be updated during run
 non-spin polarized calculation
 Variant of blocked Davidson
 Davidson routine will perform the subspace rotation
 perform sub-space diagonalisation
    after iterative eigenvector-optimisation
 modified Broyden-mixing scheme, WC =      100.0
 initial mixing is a Kerker type mixing with AMIX =  0.4000 and BMIX =      1.0000
 Hartree-type preconditioning will be used
 using additional bands           13
 real space projection scheme for non local part
 calculate Harris-corrections to forces 
   (improved forces if not selfconsistent)
 use gradient corrections 
 use of overlap-Matrix (Vanderbilt PP)
 Gauss-broadening in eV      SIGMA  =   0.05


--------------------------------------------------------------------------------------------------------


  energy-cutoff  :      520.00
  volume of cell :     3375.00
      direct lattice vectors                 reciprocal lattice vectors
    15.000000000  0.000000000  0.000000000     0.066666667  0.000000000  0.000000000
     0.000000000 15.000000000  0.000000000     0.000000000  0.066666667  0.000000000
     0.000000000  0.000000000 15.000000000     0.000000000  0.000000000  0.066666667

  length of vectors
    15.000000000 15.000000000 15.000000000     0.066666667  0.066666667  0.066666667


 
 k-points in units of 2pi/SCALE and weight: K-Spacing Value to Generate K-Mesh: 1.00
   0.00000000  0.00000000  0.00000000       1.000
 
 k-points in reciprocal lattice and weights: K-Spacing Value to Generate K-Mesh: 1.00
   0.00000000  0.00000000  0.00000000       1.000
 
 position of ions in fractional coordinates (direct lattice) 
   0.53060001  0.53100001  0.39566666
   0.49806668  0.46800000  0.44953334
   0.49820000  0.46033335  0.54506664
   0.47460000  0.52106667  0.60786667
   0.51726665  0.53033333  0.32273334
   0.55973333  0.59040000  0.42680000
   0.47020000  0.41000001  0.41686665
   0.51740001  0.39153334  0.56733335
   0.45153332  0.58739999  0.58466670
   0.48246667  0.50986665  0.68353335
 
 position of ions in cartesian coordinates  (Angst):
   7.95900011  7.96500015  5.93499994
   7.47100019  7.01999998  6.74300003
   7.47300005  6.90500021  8.17599964
   7.11899996  7.81599998  9.11800003
   7.75899982  7.95499992  4.84100008
   8.39599991  8.85599995  6.40199995
   7.05299997  6.15000010  6.25299978
   7.76100016  5.87300014  8.51000023
   6.77299976  8.81099987  8.77000046
   7.23699999  7.64799976 10.25300026
 


--------------------------------------------------------------------------------------------------------


 k-point   1 :   0.0000 0.0000 0.0000  plane waves:   90879

 maximum and minimum number of plane-waves per node :     45467    45412

 maximum number of plane-waves:     90879
 maximum index in each direction: 
   IXMAX=   27   IYMAX=   27   IZMAX=   27
   IXMIN=  -27   IYMIN=  -27   IZMIN=  -27


 real space projection operators:
  total allocation   :       1184.11 KBytes
  max/ min on nodes  :        592.12        591.98


 parallel 3D FFT for wavefunctions:
    minimum data exchange during FFTs selected (reduces bandwidth)
 parallel 3D FFT for charge:
    minimum data exchange during FFTs selected (reduces bandwidth)


 total amount of memory used by VASP MPI-rank0   224782. kBytes
=======================================================================

   base      :      30000. kBytes
   nonlr-proj:       1258. kBytes
   fftplans  :     123538. kBytes
   grid      :      67787. kBytes
   one-center:         15. kBytes
   wavefun   :       2184. kBytes
 
     INWAV:  cpu time      0.0000: real time      0.0000
 Broyden mixing: mesh for mixing (old mesh)
   NGX = 55   NGY = 55   NGZ = 55
  (NGX  =224   NGY  =224   NGZ  =224)
  gives a total of 166375 points

 initial charge density was supplied:
 charge density of overlapping atoms calculated
 number of electron      22.0000000 magnetization 
 keeping initial charge density in first step


--------------------------------------------------------------------------------------------------------


 Maximum index for non-local projection operator         1510
 Maximum index for augmentation-charges         2497 (set IRDMAX)


--------------------------------------------------------------------------------------------------------


 First call to EWALD:  gamma=   0.118
 Maximum number of real-space cells 3x 3x 3
 Maximum number of reciprocal cells 3x 3x 3

    FEWALD:  cpu time      0.0010: real time      0.0010


--------------------------------------- Ionic step        1  -------------------------------------------




--------------------------------------- Iteration      1(   1)  ---------------------------------------


    POTLOK:  cpu time      0.3362: real time      0.3381
    SETDIJ:  cpu time      0.1928: real time      0.1936
     EDDAV:  cpu time      0.4185: real time      0.4208
       DOS:  cpu time      0.0002: real time      0.0002
    --------------------------------------------
      LOOP:  cpu time      0.9477: real time      0.9527

 eigenvalue-minimisations  :    64
 total energy-change (2. order) : 0.1057985E+03  (-0.5259034E+03)
 number of electron      22.0000000 magnetization 
 augmentation part       22.0000000 magnetization 

 Free energy of the ion-electron system (eV)
  ---------------------------------------------------
  alpha Z        PSCENC =         0.62641250
  Ewald energy   TEWEN  =       877.81436732
  -Hartree energ DENC   =     -1303.29186370
  -exchange      EXHF   =         0.00000000
  -V(xc)+E(xc)   XCENC  =        67.16342829
  PAW double counting   =       156.01372664     -160.66969168
  entropy T*S    EENTRO =        -0.00002595
  eigenvalues    EBANDS =      -195.37523666
  atomic energy  EATOM  =       663.51739852
  Solvation  Ediel_sol  =         0.00000000
  ---------------------------------------------------
  free energy    TOTEN  =       105.79851528 eV

  energy without entropy =      105.79854123  energy(sigma->0) =      105.79852825


--------------------------------------------------------------------------------------------------------




--------------------------------------- Iteration      1(   2)  ---------------------------------------


     EDDAV:  cpu time      0.4867: real time      0.4895
       DOS:  cpu time      0.0001: real time      0.0001
    --------------------------------------------
      LOOP:  cpu time      0.4868: real time      0.4896

 eigenvalue-minimisations  :    80
 total energy-change (2. order) :-0.1271167E+03  (-0.1238836E+03)
 number of electron      22.0000000 magnetization 
 augmentation part       22.0000000 magnetization 

 Free energy of the ion-electron system (eV)
  ---------------------------------------------------
  alpha Z        PSCENC =         0.62641250
  Ewald energy   TEWEN  =       877.81436732
  -Hartree energ DENC   =     -1303.29186370
  -exchange      EXHF   =         0.00000000
  -V(xc)+E(xc)   XCENC  =        67.16342829
  PAW double counting   =       156.01372664     -160.66969168
  entropy T*S    EENTRO =        -0.00000000
  eigenvalues    EBANDS =      -322.49199016
  atomic energy  EATOM  =       663.51739852
  Solvation  Ediel_sol  =         0.00000000
  ---------------------------------------------------
  free energy    TOTEN  =       -21.31821227 eV

  energy without entropy =      -21.31821227  energy(sigma->0) =      -21.31821227


--------------------------------------------------------------------------------------------------------




--------------------------------------- Iteration      1(   3)  ---------------------------------------


     EDDAV:  cpu time      0.4053: real time      0.4076
       DOS:  cpu time      0.0001: real time      0.0001
    --------------------------------------------
      LOOP:  cpu time      0.4054: real time      0.4078

 eigenvalue-minimisations  :    64
 total energy-change (2. order) :-0.3864199E+02  (-0.3853179E+02)
 number of electron      22.0000000 magnetization 
 augmentation part       22.0000000 magnetization 

 Free energy of the ion-electron system (eV)
  ---------------------------------------------------
  alpha Z        PSCENC =         0.62641250
  Ewald energy   TEWEN  =       877.81436732
  -Hartree energ DENC   =     -1303.29186370
  -exchange      EXHF   =         0.00000000
  -V(xc)+E(xc)   XCENC  =        67.16342829
  PAW double counting   =       156.01372664     -160.66969168
  entropy T*S    EENTRO =        -0.00000000
  eigenvalues    EBANDS =      -361.13398484
  atomic energy  EATOM  =       663.51739852
  Solvation  Ediel_sol  =         0.00000000
  ---------------------------------------------------
  free energy    TOTEN  =       -59.96020695 eV

  energy without entropy =      -59.96020695  energy(sigma->0) =      -59.96020695


--------------------------------------------------------------------------------------------------------




--------------------------------------- Iteration      1(   4)  ---------------------------------------


     EDDAV:  cpu time      0.4065: real time      0.4089
       DOS:  cpu time      0.0001: real time      0.0001
    --------------------------------------------
      LOOP:  cpu time      0.4066: real time      0.4090

 eigenvalue-minimisations  :    64
 total energy-change (2. order) :-0.3089590E+01  (-0.3083598E+01)
 number of electron      22.0000000 magnetization 
 augmentation part       22.0000000 magnetization 

 Free energy of the ion-electron system (eV)
  ---------------------------------------------------
  alpha Z        PSCENC =         0.62641250
  Ewald energy   TEWEN  =       877.81436732
  -Hartree energ DENC   =     -1303.29186370
  -exchange      EXHF   =         0.00000000
  -V(xc)+E(xc)   XCENC  =        67.16342829
  PAW double counting   =       156.01372664     -160.66969168
  entropy T*S    EENTRO =        -0.00000000
  eigenvalues    EBANDS =      -364.22357440
  atomic energy  EATOM  =       663.51739852
  Solvation  Ediel_sol  =         0.00000000
  ---------------------------------------------------
  free energy    TOTEN  =       -63.04979651 eV

  energy without entropy =      -63.04979651  energy(sigma->0) =      -63.04979651


--------------------------------------------------------------------------------------------------------




--------------------------------------- Iteration      1(   5)  ---------------------------------------


     EDDAV:  cpu time      0.4079: real time      0.4102
       DOS:  cpu time      0.0002: real time      0.0002
    CHARGE:  cpu time      0.2004: real time      0.2012
    MIXING:  cpu time      0.0128: real time      0.0129
    --------------------------------------------
      LOOP:  cpu time      0.6214: real time      0.6245

 eigenvalue-minimisations  :    64
 total energy-change (2. order) :-0.7003438E-01  (-0.6999736E-01)
 number of electron      22.0000000 magnetization 
 augmentation part        0.5786976 magnetization 

 Broyden mixing:
  rms(total) = 0.11690E+01    rms(broyden)= 0.11688E+01
  rms(prec ) = 0.14051E+01
  weight for this iteration     100.00

 Free energy of the ion-electron system (eV)
  ---------------------------------------------------
  alpha Z        PSCENC =         0.62641250
  Ewald energy   TEWEN  =       877.81436732
  -Hartree energ DENC   =     -1303.29186370
  -exchange      EXHF   =         0.00000000
  -V(xc)+E(xc)   XCENC  =        67.16342829
  PAW double counting   =       156.01372664     -160.66969168
  entropy T*S    EENTRO =        -0.00000000
  eigenvalues    EBANDS =      -364.29360878
  atomic energy  EATOM  =       663.51739852
  Solvation  Ediel_sol  =         0.00000000
  ---------------------------------------------------
  free energy    TOTEN  =       -63.11983089 eV

  energy without entropy =      -63.11983089  energy(sigma->0) =      -63.11983089


--------------------------------------------------------------------------------------------------------




--------------------------------------- Iteration      1(   6)  ---------------------------------------


    POTLOK:  cpu time      0.3094: real time      0.3111
    SETDIJ:  cpu time      0.1887: real time      0.1895
     EDDAV:  cpu time      0.4506: real time      0.4531
       DOS:  cpu time      0.0001: real time      0.0001
    CHARGE:  cpu time      0.1966: real time      0.1975
    MIXING:  cpu time      0.0120: real time      0.0121
    --------------------------------------------
      LOOP:  cpu time      1.1575: real time      1.1634

 eigenvalue-minimisations  :    72
 total energy-change (2. order) : 0.5132931E+01  (-0.7179443E+00)
 number of electron      22.0000000 magnetization 
 augmentation part        0.5310842 magnetization 

 Broyden mixing:
  rms(total) = 0.56470E+00    rms(broyden)= 0.56467E+00
  rms(prec ) = 0.67014E+00
  weight for this iteration     100.00

 eigenvalues of (default mixing * dielectric matrix)
  average eigenvalue GAMMA=   1.6390
  1.6390

 Free energy of the ion-electron system (eV)
  ---------------------------------------------------
  alpha Z        PSCENC =         0.62641250
  Ewald energy   TEWEN  =       877.81436732
  -Hartree energ DENC   =     -1349.87871420
  -exchange      EXHF   =         0.00000000
  -V(xc)+E(xc)   XCENC  =        69.56618713
  PAW double counting   =       228.80293397     -234.00569549
  entropy T*S    EENTRO =        -0.00000000
  eigenvalues    EBANDS =      -314.42978977
  atomic energy  EATOM  =       663.51739852
  Solvation  Ediel_sol  =         0.00000000
  ---------------------------------------------------
  free energy    TOTEN  =       -57.98690001 eV

  energy without entropy =      -57.98690001  energy(sigma->0) =      -57.98690001


--------------------------------------------------------------------------------------------------------




--------------------------------------- Iteration      1(   7)  ---------------------------------------


    POTLOK:  cpu time      0.3104: real time      0.3120
    SETDIJ:  cpu time      0.1934: real time      0.1942
     EDDAV:  cpu time      0.4129: real time      0.4151
       DOS:  cpu time      0.0001: real time      0.0001
    CHARGE:  cpu time      0.1979: real time      0.1987
    MIXING:  cpu time      0.0122: real time      0.0122
    --------------------------------------------
      LOOP:  cpu time      1.1269: real time      1.1325

 eigenvalue-minimisations  :    64
 total energy-change (2. order) : 0.1193272E+01  (-0.4481030E+00)
 number of electron      22.0000000 magnetization 
 augmentation part        0.4971346 magnetization 

 Broyden mixing:
  rms(total) = 0.22319E+00    rms(broyden)= 0.22312E+00
  rms(prec ) = 0.25517E+00
  weight for this iteration     100.00

 eigenvalues of (default mixing * dielectric matrix)
  average eigenvalue GAMMA=   1.9856
  1.9856  1.9856

 Free energy of the ion-electron system (eV)
  ---------------------------------------------------
  alpha Z        PSCENC =         0.62641250
  Ewald energy   TEWEN  =       877.81436732
  -Hartree energ DENC   =     -1387.98715047
  -exchange      EXHF   =         0.00000000
  -V(xc)+E(xc)   XCENC  =        71.75327517
  PAW double counting   =       290.93296215     -296.39679853
  entropy T*S    EENTRO =        -0.00000000
  eigenvalues    EBANDS =      -277.05409478
  atomic energy  EATOM  =       663.51739852
  Solvation  Ediel_sol  =         0.00000000
  ---------------------------------------------------
  free energy    TOTEN  =       -56.79362812 eV

  energy without entropy =      -56.79362812  energy(sigma->0) =      -56.79362812


--------------------------------------------------------------------------------------------------------




--------------------------------------- Iteration      1(   8)  ---------------------------------------


    POTLOK:  cpu time      0.3147: real time      0.3164
    SETDIJ:  cpu time      0.1892: real time      0.1900
     EDDAV:  cpu time      0.3670: real time      0.3691
       DOS:  cpu time      0.0001: real time      0.0001
    CHARGE:  cpu time      0.1948: real time      0.1956
    MIXING:  cpu time      0.0118: real time      0.0119
    --------------------------------------------
      LOOP:  cpu time      1.0777: real time      1.0830

 eigenvalue-minimisations  :    56
 total energy-change (2. order) : 0.1538511E+00  (-0.3927495E-01)
 number of electron      22.0000000 magnetization 
 augmentation part        0.5001412 magnetization 

 Broyden mixing:
  rms(total) = 0.50790E-01    rms(broyden)= 0.50784E-01
  rms(prec ) = 0.81828E-01
  weight for this iteration     100.00

 eigenvalues of (default mixing * dielectric matrix)
  average eigenvalue GAMMA=   1.6246
  2.3669  0.9560  1.5510

 Free energy of the ion-electron system (eV)
  ---------------------------------------------------
  alpha Z        PSCENC =         0.62641250
  Ewald energy   TEWEN  =       877.81436732
  -Hartree energ DENC   =     -1393.90949093
  -exchange      EXHF   =         0.00000000
  -V(xc)+E(xc)   XCENC  =        72.27683695
  PAW double counting   =       294.94839135     -300.24207061
  entropy T*S    EENTRO =        -0.00000000
  eigenvalues    EBANDS =      -271.67162211
  atomic energy  EATOM  =       663.51739852
  Solvation  Ediel_sol  =         0.00000000
  ---------------------------------------------------
  free energy    TOTEN  =       -56.63977700 eV

  energy without entropy =      -56.63977700  energy(sigma->0) =      -56.63977700


--------------------------------------------------------------------------------------------------------




--------------------------------------- Iteration      1(   9)  ---------------------------------------


    POTLOK:  cpu time      0.3138: real time      0.3154
    SETDIJ:  cpu time      0.1886: real time      0.1894
     EDDAV:  cpu time      0.4931: real time      0.4959
       DOS:  cpu time      0.0002: real time      0.0002
    CHARGE:  cpu time      0.1968: real time      0.1976
    MIXING:  cpu time      0.0105: real time      0.0106
    --------------------------------------------
      LOOP:  cpu time      1.2030: real time      1.2091

 eigenvalue-minimisations  :    80
 total energy-change (2. order) : 0.2839288E-01  (-0.7338515E-02)
 number of electron      22.0000000 magnetization 
 augmentation part        0.4964243 magnetization 

 Broyden mixing:
  rms(total) = 0.22820E-01    rms(broyden)= 0.22816E-01
  rms(prec ) = 0.46337E-01
  weight for this iteration     100.00

 eigenvalues of (default mixing * dielectric matrix)
  average eigenvalue GAMMA=   1.4641
  2.2991  1.6034  0.9769  0.9769

 Free energy of the ion-electron system (eV)
  ---------------------------------------------------
  alpha Z        PSCENC =         0.62641250
  Ewald energy   TEWEN  =       877.81436732
  -Hartree energ DENC   =     -1398.92319455
  -exchange      EXHF   =         0.00000000
  -V(xc)+E(xc)   XCENC  =        72.50421334
  PAW double counting   =       300.18768747     -305.51091541
  entropy T*S    EENTRO =        -0.00000000
  eigenvalues    EBANDS =      -266.82735331
  atomic energy  EATOM  =       663.51739852
  Solvation  Ediel_sol  =         0.00000000
  ---------------------------------------------------
  free energy    TOTEN  =       -56.61138412 eV

  energy without entropy =      -56.61138412  energy(sigma->0) =      -56.61138412


--------------------------------------------------------------------------------------------------------




--------------------------------------- Iteration      1(  10)  ---------------------------------------


    POTLOK:  cpu time      0.3156: real time      0.3172
    SETDIJ:  cpu time      0.1874: real time      0.1882
     EDDAV:  cpu time      0.3665: real time      0.3685
       DOS:  cpu time      0.0001: real time      0.0001
    CHARGE:  cpu time      0.1951: real time      0.1959
    MIXING:  cpu time      0.0121: real time      0.0121
    --------------------------------------------
      LOOP:  cpu time      1.0767: real time      1.0821

 eigenvalue-minimisations  :    56
 total energy-change (2. order) : 0.5618545E-02  (-0.2235174E-02)
 number of electron      22.0000000 magnetization 
 augmentation part        0.4943487 magnetization 

 Broyden mixing:
  rms(total) = 0.16258E-01    rms(broyden)= 0.16253E-01
  rms(prec ) = 0.32335E-01
  weight for this iteration     100.00

 eigenvalues of (default mixing * dielectric matrix)
  average eigenvalue GAMMA=   1.6846
  2.6510  2.3768  1.0247  1.0247  1.3457

 Free energy of the ion-electron system (eV)
  ---------------------------------------------------
  alpha Z        PSCENC =         0.62641250
  Ewald energy   TEWEN  =       877.81436732
  -Hartree energ DENC   =     -1402.17993567
  -exchange      EXHF   =         0.00000000
  -V(xc)+E(xc)   XCENC  =        72.58377693
  PAW double counting   =       300.03243455     -305.36386767
  entropy T*S    EENTRO =        -0.00000000
  eigenvalues    EBANDS =      -263.63635206
  atomic energy  EATOM  =       663.51739852
  Solvation  Ediel_sol  =         0.00000000
  ---------------------------------------------------
  free energy    TOTEN  =       -56.60576558 eV

  energy without entropy =      -56.60576558  energy(sigma->0) =      -56.60576558


--------------------------------------------------------------------------------------------------------




--------------------------------------- Iteration      1(  11)  ---------------------------------------


    POTLOK:  cpu time      0.3155: real time      0.3172
    SETDIJ:  cpu time      0.1927: real time      0.1935
     EDDAV:  cpu time      0.3641: real time      0.3661
       DOS:  cpu time      0.0001: real time      0.0001
    CHARGE:  cpu time      0.1965: real time      0.1973
    MIXING:  cpu time      0.0129: real time      0.0129
    --------------------------------------------
      LOOP:  cpu time      1.0818: real time      1.0872

 eigenvalue-minimisations  :    56
 total energy-change (2. order) : 0.1029512E-01  (-0.6150624E-03)
 number of electron      22.0000000 magnetization 
 augmentation part        0.4939393 magnetization 

 Broyden mixing:
  rms(total) = 0.72905E-02    rms(broyden)= 0.72903E-02
  rms(prec ) = 0.16602E-01
  weight for this iteration     100.00

 eigenvalues of (default mixing * dielectric matrix)
  average eigenvalue GAMMA=   1.7852
  3.4733  2.4909  1.4865  1.1666  1.0471  1.0471

 Free energy of the ion-electron system (eV)
  ---------------------------------------------------
  alpha Z        PSCENC =         0.62641250
  Ewald energy   TEWEN  =       877.81436732
  -Hartree energ DENC   =     -1405.94893190
  -exchange      EXHF   =         0.00000000
  -V(xc)+E(xc)   XCENC  =        72.68486810
  PAW double counting   =       298.74364310     -304.06086023
  entropy T*S    EENTRO =        -0.00000000
  eigenvalues    EBANDS =      -259.97236787
  atomic energy  EATOM  =       663.51739852
  Solvation  Ediel_sol  =         0.00000000
  ---------------------------------------------------
  free energy    TOTEN  =       -56.59547046 eV

  energy without entropy =      -56.59547046  energy(sigma->0) =      -56.59547046


--------------------------------------------------------------------------------------------------------




--------------------------------------- Iteration      1(  12)  ---------------------------------------


    POTLOK:  cpu time      0.3157: real time      0.3174
    SETDIJ:  cpu time      0.1919: real time      0.1927
     EDDAV:  cpu time      0.4479: real time      0.4503
       DOS:  cpu time      0.0001: real time      0.0001
    CHARGE:  cpu time      0.1975: real time      0.1983
    MIXING:  cpu time      0.0115: real time      0.0115
    --------------------------------------------
      LOOP:  cpu time      1.1645: real time      1.1703

 eigenvalue-minimisations  :    72
 total energy-change (2. order) :-0.3132081E-02  (-0.1606375E-03)
 number of electron      22.0000000 magnetization 
 augmentation part        0.4936557 magnetization 

 Broyden mixing:
  rms(total) = 0.54023E-02    rms(broyden)= 0.54020E-02
  rms(prec ) = 0.10508E-01
  weight for this iteration     100.00

 eigenvalues of (default mixing * dielectric matrix)
  average eigenvalue GAMMA=   1.9551
  4.4430  2.3944  2.3944  1.4284  1.0431  0.9912  0.9912

 Free energy of the ion-electron system (eV)
  ---------------------------------------------------
  alpha Z        PSCENC =         0.62641250
  Ewald energy   TEWEN  =       877.81436732
  -Hartree energ DENC   =     -1407.77712235
  -exchange      EXHF   =         0.00000000
  -V(xc)+E(xc)   XCENC  =        72.71077197
  PAW double counting   =       298.26226766     -303.58036301
  entropy T*S    EENTRO =        -0.00000000
  eigenvalues    EBANDS =      -258.17233514
  atomic energy  EATOM  =       663.51739852
  Solvation  Ediel_sol  =         0.00000000
  ---------------------------------------------------
  free energy    TOTEN  =       -56.59860254 eV

  energy without entropy =      -56.59860254  energy(sigma->0) =      -56.59860254


--------------------------------------------------------------------------------------------------------




--------------------------------------- Iteration      1(  13)  ---------------------------------------


    POTLOK:  cpu time      0.3102: real time      0.3119
    SETDIJ:  cpu time      0.1918: real time      0.1926
     EDDAV:  cpu time      0.3642: real time      0.3662
       DOS:  cpu time      0.0012: real time      0.0012
    CHARGE:  cpu time      0.1965: real time      0.1973
    MIXING:  cpu time      0.0139: real time      0.0139
    --------------------------------------------
      LOOP:  cpu time      1.0778: real time      1.0832

 eigenvalue-minimisations  :    56
 total energy-change (2. order) :-0.9434116E-02  (-0.1622674E-03)
 number of electron      22.0000000 magnetization 
 augmentation part        0.4936697 magnetization 

 Broyden mixing:
  rms(total) = 0.29136E-02    rms(broyden)= 0.29133E-02
  rms(prec ) = 0.58376E-02
  weight for this iteration     100.00

 eigenvalues of (default mixing * dielectric matrix)
  average eigenvalue GAMMA=   2.0536
  5.2440  2.8933  2.2333  1.5958  1.4525  1.0105  1.0105  0.9893

 Free energy of the ion-electron system (eV)
  ---------------------------------------------------
  alpha Z        PSCENC =         0.62641250
  Ewald energy   TEWEN  =       877.81436732
  -Hartree energ DENC   =     -1408.42261539
  -exchange      EXHF   =         0.00000000
  -V(xc)+E(xc)   XCENC  =        72.70986776
  PAW double counting   =       298.35834663     -303.67546100
  entropy T*S    EENTRO =        -0.00000000
  eigenvalues    EBANDS =      -257.53635299
  atomic energy  EATOM  =       663.51739852
  Solvation  Ediel_sol  =         0.00000000
  ---------------------------------------------------
  free energy    TOTEN  =       -56.60803665 eV

  energy without entropy =      -56.60803665  energy(sigma->0) =      -56.60803665


--------------------------------------------------------------------------------------------------------




--------------------------------------- Iteration      1(  14)  ---------------------------------------


    POTLOK:  cpu time      0.3121: real time      0.3138
    SETDIJ:  cpu time      0.1922: real time      0.1931
     EDDAV:  cpu time      0.4125: real time      0.4148
       DOS:  cpu time      0.0001: real time      0.0001
    CHARGE:  cpu time      0.1985: real time      0.1993
    MIXING:  cpu time      0.0107: real time      0.0108
    --------------------------------------------
      LOOP:  cpu time      1.1262: real time      1.1320

 eigenvalue-minimisations  :    64
 total energy-change (2. order) :-0.6061120E-02  (-0.8555300E-04)
 number of electron      22.0000000 magnetization 
 augmentation part        0.4936857 magnetization 

 Broyden mixing:
  rms(total) = 0.18746E-02    rms(broyden)= 0.18745E-02
  rms(prec ) = 0.33259E-02
  weight for this iteration     100.00

 eigenvalues of (default mixing * dielectric matrix)
  average eigenvalue GAMMA=   2.1219
  5.9503  3.3017  2.3959  1.9854  1.2721  1.2721  0.9657  0.9767  0.9767

 Free energy of the ion-electron system (eV)
  ---------------------------------------------------
  alpha Z        PSCENC =         0.62641250
  Ewald energy   TEWEN  =       877.81436732
  -Hartree energ DENC   =     -1408.54545774
  -exchange      EXHF   =         0.00000000
  -V(xc)+E(xc)   XCENC  =        72.69477061
  PAW double counting   =       298.28370526     -303.60093802
  entropy T*S    EENTRO =        -0.00000000
  eigenvalues    EBANDS =      -257.40435622
  atomic energy  EATOM  =       663.51739852
  Solvation  Ediel_sol  =         0.00000000
  ---------------------------------------------------
  free energy    TOTEN  =       -56.61409777 eV

  energy without entropy =      -56.61409777  energy(sigma->0) =      -56.61409777


--------------------------------------------------------------------------------------------------------




--------------------------------------- Iteration      1(  15)  ---------------------------------------


    POTLOK:  cpu time      0.3049: real time      0.3066
    SETDIJ:  cpu time      0.1913: real time      0.1921
     EDDAV:  cpu time      0.4467: real time      0.4493
       DOS:  cpu time      0.0001: real time      0.0001
    CHARGE:  cpu time      0.1970: real time      0.1978
    MIXING:  cpu time      0.0124: real time      0.0124
    --------------------------------------------
      LOOP:  cpu time      1.1524: real time      1.1583

 eigenvalue-minimisations  :    72
 total energy-change (2. order) :-0.2802918E-02  (-0.3642996E-04)
 number of electron      22.0000000 magnetization 
 augmentation part        0.4936422 magnetization 

 Broyden mixing:
  rms(total) = 0.12878E-02    rms(broyden)= 0.12877E-02
  rms(prec ) = 0.20366E-02
  weight for this iteration     100.00

 eigenvalues of (default mixing * dielectric matrix)
  average eigenvalue GAMMA=   2.2055
  6.7540  3.9324  2.4098  1.9589  1.5362  1.5362  0.9940  0.9940  1.0438  0.8958

 Free energy of the ion-electron system (eV)
  ---------------------------------------------------
  alpha Z        PSCENC =         0.62641250
  Ewald energy   TEWEN  =       877.81436732
  -Hartree energ DENC   =     -1408.60153639
  -exchange      EXHF   =         0.00000000
  -V(xc)+E(xc)   XCENC  =        72.69070548
  PAW double counting   =       298.34172949     -303.65845231
  entropy T*S    EENTRO =        -0.00000000
  eigenvalues    EBANDS =      -257.34752531
  atomic energy  EATOM  =       663.51739852
  Solvation  Ediel_sol  =         0.00000000
  ---------------------------------------------------
  free energy    TOTEN  =       -56.61690069 eV

  energy without entropy =      -56.61690069  energy(sigma->0) =      -56.61690069


--------------------------------------------------------------------------------------------------------




--------------------------------------- Iteration      1(  16)  ---------------------------------------


    POTLOK:  cpu time      0.3036: real time      0.3053
    SETDIJ:  cpu time      0.1923: real time      0.1931
     EDDAV:  cpu time      0.4866: real time      0.4893
       DOS:  cpu time      0.0001: real time      0.0001
    CHARGE:  cpu time      0.1941: real time      0.1949
    MIXING:  cpu time      0.0147: real time      0.0147
    --------------------------------------------
      LOOP:  cpu time      1.1914: real time      1.1975

 eigenvalue-minimisations  :    80
 total energy-change (2. order) :-0.1145234E-02  (-0.1039349E-04)
 number of electron      22.0000000 magnetization 
 augmentation part        0.4935486 magnetization 

 Broyden mixing:
  rms(total) = 0.59393E-03    rms(broyden)= 0.59370E-03
  rms(prec ) = 0.10807E-02
  weight for this iteration     100.00

 eigenvalues of (default mixing * dielectric matrix)
  average eigenvalue GAMMA=   2.2585
  7.5740  4.3330  2.4457  2.4457  1.5279  1.3067  0.9947  0.9947  0.9453  1.1380
  1.1380

 Free energy of the ion-electron system (eV)
  ---------------------------------------------------
  alpha Z        PSCENC =         0.62641250
  Ewald energy   TEWEN  =       877.81436732
  -Hartree energ DENC   =     -1408.70036050
  -exchange      EXHF   =         0.00000000
  -V(xc)+E(xc)   XCENC  =        72.69112082
  PAW double counting   =       298.38576943     -303.70320903
  entropy T*S    EENTRO =        -0.00000000
  eigenvalues    EBANDS =      -257.24954499
  atomic energy  EATOM  =       663.51739852
  Solvation  Ediel_sol  =         0.00000000
  ---------------------------------------------------
  free energy    TOTEN  =       -56.61804592 eV

  energy without entropy =      -56.61804592  energy(sigma->0) =      -56.61804592


--------------------------------------------------------------------------------------------------------




--------------------------------------- Iteration      1(  17)  ---------------------------------------


    POTLOK:  cpu time      0.3035: real time      0.3051
    SETDIJ:  cpu time      0.1911: real time      0.1920
     EDDAV:  cpu time      0.4465: real time      0.4490
       DOS:  cpu time      0.0001: real time      0.0001
    CHARGE:  cpu time      0.1969: real time      0.1977
    MIXING:  cpu time      0.0129: real time      0.0130
    --------------------------------------------
      LOOP:  cpu time      1.1511: real time      1.1569

 eigenvalue-minimisations  :    72
 total energy-change (2. order) :-0.5795175E-03  (-0.3621248E-05)
 number of electron      22.0000000 magnetization 
 augmentation part        0.4935432 magnetization 

 Broyden mixing:
  rms(total) = 0.42121E-03    rms(broyden)= 0.42116E-03
  rms(prec ) = 0.68909E-03
  weight for this iteration     100.00

 eigenvalues of (default mixing * dielectric matrix)
  average eigenvalue GAMMA=   2.3471
  8.1697  4.8492  2.5632  2.5632  2.0436  1.5814  1.2250  1.2250  1.0001  1.0001
  0.9939  0.9508

 Free energy of the ion-electron system (eV)
  ---------------------------------------------------
  alpha Z        PSCENC =         0.62641250
  Ewald energy   TEWEN  =       877.81436732
  -Hartree energ DENC   =     -1408.69156608
  -exchange      EXHF   =         0.00000000
  -V(xc)+E(xc)   XCENC  =        72.68963899
  PAW double counting   =       298.35946713     -303.67677843
  entropy T*S    EENTRO =        -0.00000000
  eigenvalues    EBANDS =      -257.25756539
  atomic energy  EATOM  =       663.51739852
  Solvation  Ediel_sol  =         0.00000000
  ---------------------------------------------------
  free energy    TOTEN  =       -56.61862544 eV

  energy without entropy =      -56.61862544  energy(sigma->0) =      -56.61862544


--------------------------------------------------------------------------------------------------------




--------------------------------------- Iteration      1(  18)  ---------------------------------------


    POTLOK:  cpu time      0.2989: real time      0.3005
    SETDIJ:  cpu time      0.1903: real time      0.1911
     EDDAV:  cpu time      0.4039: real time      0.4062
       DOS:  cpu time      0.0002: real time      0.0002
    CHARGE:  cpu time      0.1948: real time      0.1956
    MIXING:  cpu time      0.0151: real time      0.0152
    --------------------------------------------
      LOOP:  cpu time      1.1032: real time      1.1088

 eigenvalue-minimisations  :    64
 total energy-change (2. order) :-0.3349320E-03  (-0.2212734E-05)
 number of electron      22.0000000 magnetization 
 augmentation part        0.4935548 magnetization 

 Broyden mixing:
  rms(total) = 0.16959E-03    rms(broyden)= 0.16950E-03
  rms(prec ) = 0.31730E-03
  weight for this iteration     100.00

 eigenvalues of (default mixing * dielectric matrix)
  average eigenvalue GAMMA=   2.3319
  8.4327  5.1244  3.1100  2.3885  2.0469  1.4861  1.4861  0.9623  0.9623  1.0025
  1.0025  1.1549  1.1549

 Free energy of the ion-electron system (eV)
  ---------------------------------------------------
  alpha Z        PSCENC =         0.62641250
  Ewald energy   TEWEN  =       877.81436732
  -Hartree energ DENC   =     -1408.68779153
  -exchange      EXHF   =         0.00000000
  -V(xc)+E(xc)   XCENC  =        72.68914978
  PAW double counting   =       298.34032393     -303.65743686
  entropy T*S    EENTRO =        -0.00000000
  eigenvalues    EBANDS =      -257.26138403
  atomic energy  EATOM  =       663.51739852
  Solvation  Ediel_sol  =         0.00000000
  ---------------------------------------------------
  free energy    TOTEN  =       -56.61896037 eV

  energy without entropy =      -56.61896037  energy(sigma->0) =      -56.61896037


--------------------------------------------------------------------------------------------------------




--------------------------------------- Iteration      1(  19)  ---------------------------------------


    POTLOK:  cpu time      0.2988: real time      0.3005
    SETDIJ:  cpu time      0.1933: real time      0.1941
     EDDAV:  cpu time      0.4048: real time      0.4070
       DOS:  cpu time      0.0001: real time      0.0001
    CHARGE:  cpu time      0.1963: real time      0.1971
    MIXING:  cpu time      0.0135: real time      0.0136
    --------------------------------------------
      LOOP:  cpu time      1.1069: real time      1.1124

 eigenvalue-minimisations  :    64
 total energy-change (2. order) :-0.8003829E-04  (-0.2865343E-06)
 number of electron      22.0000000 magnetization 
 augmentation part        0.4935466 magnetization 

 Broyden mixing:
  rms(total) = 0.10883E-03    rms(broyden)= 0.10876E-03
  rms(prec ) = 0.20130E-03
  weight for this iteration     100.00

 eigenvalues of (default mixing * dielectric matrix)
  average eigenvalue GAMMA=   2.3969
  8.8338  5.4579  3.5220  2.6285  2.2833  1.7156  1.4671  1.0011  1.0011  1.3435
  0.9707  1.1398  1.0960  1.0960

 Free energy of the ion-electron system (eV)
  ---------------------------------------------------
  alpha Z        PSCENC =         0.62641250
  Ewald energy   TEWEN  =       877.81436732
  -Hartree energ DENC   =     -1408.70625538
  -exchange      EXHF   =         0.00000000
  -V(xc)+E(xc)   XCENC  =        72.68970262
  PAW double counting   =       298.34764704     -303.66483181
  entropy T*S    EENTRO =        -0.00000000
  eigenvalues    EBANDS =      -257.24348122
  atomic energy  EATOM  =       663.51739852
  Solvation  Ediel_sol  =         0.00000000
  ---------------------------------------------------
  free energy    TOTEN  =       -56.61904041 eV

  energy without entropy =      -56.61904041  energy(sigma->0) =      -56.61904041


--------------------------------------------------------------------------------------------------------




--------------------------------------- Iteration      1(  20)  ---------------------------------------


    POTLOK:  cpu time      0.3037: real time      0.3054
    SETDIJ:  cpu time      0.1919: real time      0.1927
     EDDAV:  cpu time      0.4093: real time      0.4116
       DOS:  cpu time      0.0001: real time      0.0001
    CHARGE:  cpu time      0.1966: real time      0.1974
    MIXING:  cpu time      0.0164: real time      0.0164
    --------------------------------------------
      LOOP:  cpu time      1.1180: real time      1.1238

 eigenvalue-minimisations  :    64
 total energy-change (2. order) :-0.6120788E-04  (-0.1574975E-06)
 number of electron      22.0000000 magnetization 
 augmentation part        0.4935506 magnetization 

 Broyden mixing:
  rms(total) = 0.81030E-04    rms(broyden)= 0.80932E-04
  rms(prec ) = 0.11926E-03
  weight for this iteration     100.00

 eigenvalues of (default mixing * dielectric matrix)
  average eigenvalue GAMMA=   2.3698
  8.8060  5.7505  3.9243  2.7239  2.3960  1.9332  1.3604  1.3604  1.2181  1.2181
  0.9977  0.9977  0.9851  0.9851  0.8899

 Free energy of the ion-electron system (eV)
  ---------------------------------------------------
  alpha Z        PSCENC =         0.62641250
  Ewald energy   TEWEN  =       877.81436732
  -Hartree energ DENC   =     -1408.70267209
  -exchange      EXHF   =         0.00000000
  -V(xc)+E(xc)   XCENC  =        72.68923758
  PAW double counting   =       298.34378376     -303.66098314
  entropy T*S    EENTRO =        -0.00000000
  eigenvalues    EBANDS =      -257.24664607
  atomic energy  EATOM  =       663.51739852
  Solvation  Ediel_sol  =         0.00000000
  ---------------------------------------------------
  free energy    TOTEN  =       -56.61910162 eV

  energy without entropy =      -56.61910162  energy(sigma->0) =      -56.61910162


--------------------------------------------------------------------------------------------------------




--------------------------------------- Iteration      1(  21)  ---------------------------------------


    POTLOK:  cpu time      0.3093: real time      0.3110
    SETDIJ:  cpu time      0.1935: real time      0.1943
     EDDAV:  cpu time      0.4055: real time      0.4077
       DOS:  cpu time      0.0001: real time      0.0001
    CHARGE:  cpu time      0.1963: real time      0.1971
    MIXING:  cpu time      0.0150: real time      0.0151
    --------------------------------------------
      LOOP:  cpu time      1.1197: real time      1.1254

 eigenvalue-minimisations  :    64
 total energy-change (2. order) :-0.1158411E-04  (-0.1875249E-07)
 number of electron      22.0000000 magnetization 
 augmentation part        0.4935510 magnetization 

 Broyden mixing:
  rms(total) = 0.53300E-04    rms(broyden)= 0.53159E-04
  rms(prec ) = 0.76383E-04
  weight for this iteration     100.00

 eigenvalues of (default mixing * dielectric matrix)
  average eigenvalue GAMMA=   2.4238
  8.9883  5.9915  4.3565  2.8115  2.6475  1.9345  1.9345  1.3817  1.3817  1.4020
  0.9990  0.9990  1.0253  1.0253  0.9952  0.9077

 Free energy of the ion-electron system (eV)
  ---------------------------------------------------
  alpha Z        PSCENC =         0.62641250
  Ewald energy   TEWEN  =       877.81436732
  -Hartree energ DENC   =     -1408.70708500
  -exchange      EXHF   =         0.00000000
  -V(xc)+E(xc)   XCENC  =        72.68937238
  PAW double counting   =       298.34437134     -303.66154516
  entropy T*S    EENTRO =        -0.00000000
  eigenvalues    EBANDS =      -257.24240510
  atomic energy  EATOM  =       663.51739852
  Solvation  Ediel_sol  =         0.00000000
  ---------------------------------------------------
  free energy    TOTEN  =       -56.61911320 eV

  energy without entropy =      -56.61911320  energy(sigma->0) =      -56.61911320


--------------------------------------------------------------------------------------------------------




--------------------------------------- Iteration      1(  22)  ---------------------------------------


    POTLOK:  cpu time      0.3126: real time      0.3142
    SETDIJ:  cpu time      0.1941: real time      0.1950
     EDDAV:  cpu time      0.4127: real time      0.4150
       DOS:  cpu time      0.0001: real time      0.0001
    CHARGE:  cpu time      0.1973: real time      0.1982
    MIXING:  cpu time      0.0146: real time      0.0147
    --------------------------------------------
      LOOP:  cpu time      1.1315: real time      1.1371

 eigenvalue-minimisations  :    64
 total energy-change (2. order) :-0.1079154E-04  (-0.2803422E-07)
 number of electron      22.0000000 magnetization 
 augmentation part        0.4935493 magnetization 

 Broyden mixing:
  rms(total) = 0.40483E-04    rms(broyden)= 0.40295E-04
  rms(prec ) = 0.52428E-04
  weight for this iteration     100.00

 eigenvalues of (default mixing * dielectric matrix)
  average eigenvalue GAMMA=   2.4113
  9.0379  6.2480  4.6089  3.0629  2.4446  2.4446  1.9775  1.3118  1.3118  1.4131
  0.9982  0.9982  1.1610  1.0187  1.0187  0.9388  0.9980

 Free energy of the ion-electron system (eV)
  ---------------------------------------------------
  alpha Z        PSCENC =         0.62641250
  Ewald energy   TEWEN  =       877.81436732
  -Hartree energ DENC   =     -1408.70934385
  -exchange      EXHF   =         0.00000000
  -V(xc)+E(xc)   XCENC  =        72.68941403
  PAW double counting   =       298.34750891     -303.66470119
  entropy T*S    EENTRO =        -0.00000000
  eigenvalues    EBANDS =      -257.24018024
  atomic energy  EATOM  =       663.51739852
  Solvation  Ediel_sol  =         0.00000000
  ---------------------------------------------------
  free energy    TOTEN  =       -56.61912400 eV

  energy without entropy =      -56.61912400  energy(sigma->0) =      -56.61912400


--------------------------------------------------------------------------------------------------------




--------------------------------------- Iteration      1(  23)  ---------------------------------------


    POTLOK:  cpu time      0.3165: real time      0.3182
    SETDIJ:  cpu time      0.1929: real time      0.1937
     EDDAV:  cpu time      0.4155: real time      0.4177
       DOS:  cpu time      0.0001: real time      0.0001
    CHARGE:  cpu time      0.1982: real time      0.1990
    MIXING:  cpu time      0.0146: real time      0.0147
    --------------------------------------------
      LOOP:  cpu time      1.1378: real time      1.1435

 eigenvalue-minimisations  :    64
 total energy-change (2. order) :-0.2059463E-05  (-0.4400743E-08)
 number of electron      22.0000000 magnetization 
 augmentation part        0.4935495 magnetization 

 Broyden mixing:
  rms(total) = 0.18059E-04    rms(broyden)= 0.17646E-04
  rms(prec ) = 0.24239E-04
  weight for this iteration     100.00

 eigenvalues of (default mixing * dielectric matrix)
  average eigenvalue GAMMA=   2.4179
  9.0934  6.5295  4.8460  3.4153  2.4921  2.4921  1.8755  1.6495  1.3795  1.3795
  1.3707  0.9999  0.9999  1.0306  1.0306  1.0465  0.9463  0.9463

 Free energy of the ion-electron system (eV)
  ---------------------------------------------------
  alpha Z        PSCENC =         0.62641250
  Ewald energy   TEWEN  =       877.81436732
  -Hartree energ DENC   =     -1408.70879482
  -exchange      EXHF   =         0.00000000
  -V(xc)+E(xc)   XCENC  =        72.68935844
  PAW double counting   =       298.34583305     -303.66302792
  entropy T*S    EENTRO =        -0.00000000
  eigenvalues    EBANDS =      -257.24067314
  atomic energy  EATOM  =       663.51739852
  Solvation  Ediel_sol  =         0.00000000
  ---------------------------------------------------
  free energy    TOTEN  =       -56.61912606 eV

  energy without entropy =      -56.61912606  energy(sigma->0) =      -56.61912606


--------------------------------------------------------------------------------------------------------




--------------------------------------- Iteration      1(  24)  ---------------------------------------


    POTLOK:  cpu time      0.3174: real time      0.3191
    SETDIJ:  cpu time      0.1927: real time      0.1935
     EDDAV:  cpu time      0.4138: real time      0.4163
       DOS:  cpu time      0.0001: real time      0.0001
    CHARGE:  cpu time      0.1974: real time      0.1981
    MIXING:  cpu time      0.0155: real time      0.0156
    --------------------------------------------
      LOOP:  cpu time      1.1370: real time      1.1428

 eigenvalue-minimisations  :    64
 total energy-change (2. order) :-0.1250492E-05  (-0.3502137E-08)
 number of electron      22.0000000 magnetization 
 augmentation part        0.4935497 magnetization 

 Broyden mixing:
  rms(total) = 0.10397E-04    rms(broyden)= 0.96622E-05
  rms(prec ) = 0.14537E-04
  weight for this iteration     100.00

 eigenvalues of (default mixing * dielectric matrix)
  average eigenvalue GAMMA=   2.4097
  9.1241  6.7653  5.0207  3.6064  2.5993  2.4187  1.9660  1.9660  1.3500  1.3500
  1.4368  0.9999  0.9999  1.1550  1.1550  0.9881  0.9881  0.9659  0.9283

 Free energy of the ion-electron system (eV)
  ---------------------------------------------------
  alpha Z        PSCENC =         0.62641250
  Ewald energy   TEWEN  =       877.81436732
  -Hartree energ DENC   =     -1408.70858594
  -exchange      EXHF   =         0.00000000
  -V(xc)+E(xc)   XCENC  =        72.68934767
  PAW double counting   =       298.34580558     -303.66299541
  entropy T*S    EENTRO =        -0.00000000
  eigenvalues    EBANDS =      -257.24087755
  atomic energy  EATOM  =       663.51739852
  Solvation  Ediel_sol  =         0.00000000
  ---------------------------------------------------
  free energy    TOTEN  =       -56.61912731 eV

  energy without entropy =      -56.61912731  energy(sigma->0) =      -56.61912731


--------------------------------------------------------------------------------------------------------




--------------------------------------- Iteration      1(  25)  ---------------------------------------


    POTLOK:  cpu time      0.3214: real time      0.3232
    SETDIJ:  cpu time      0.1939: real time      0.1947
     EDDAV:  cpu time      0.4176: real time      0.4199
       DOS:  cpu time      0.0001: real time      0.0001
    --------------------------------------------
      LOOP:  cpu time      0.9329: real time      0.9379

 eigenvalue-minimisations  :    64
 total energy-change (2. order) :-0.6521370E-06  (-0.8434746E-09)
 number of electron      22.0000000 magnetization 
 augmentation part        0.4935497 magnetization 

 Free energy of the ion-electron system (eV)
  ---------------------------------------------------
  alpha Z        PSCENC =         0.62641250
  Ewald energy   TEWEN  =       877.81436732
  -Hartree energ DENC   =     -1408.70919016
  -exchange      EXHF   =         0.00000000
  -V(xc)+E(xc)   XCENC  =        72.68937115
  PAW double counting   =       298.34601944     -303.66320872
  entropy T*S    EENTRO =        -0.00000000
  eigenvalues    EBANDS =      -257.24029800
  atomic energy  EATOM  =       663.51739852
  Solvation  Ediel_sol  =         0.00000000
  ---------------------------------------------------
  free energy    TOTEN  =       -56.61912796 eV

  energy without entropy =      -56.61912796  energy(sigma->0) =      -56.61912796


--------------------------------------------------------------------------------------------------------




 average (electrostatic) potential at core
  the test charge radii are     0.6991  0.5201
  (the norm of the test charge is              1.0000)
       1 -58.5573       2 -58.7817       3 -58.8918       4 -58.6996       5 -41.8897
       6 -41.8443       7 -42.0473       8 -41.7878       9 -41.8005      10 -41.6686
 
 
 
 E-fermi :  -5.6228     XC(G=0):  -0.4442     alpha+bet : -0.1681

 Fermi energy:        -5.6227713440

 k-point     1 :       0.0000    0.0000    0.0000
  band No.  band energies     occupation 
      1     -19.9104      2.00000
      2     -17.9002      2.00000
      3     -15.2094      2.00000
      4     -12.7235      2.00000
      5     -11.7913      2.00000
      6     -10.4510      2.00000
      7     -10.4212      2.00000
      8      -8.7399      2.00000
      9      -8.3029      2.00000
     10      -7.2689      2.00000
     11      -5.9015      2.00000
     12      -1.8092      0.00000
     13      -0.4780      0.00000
     14       0.0429      0.00000
     15       0.1694      0.00000
     16       0.2140      0.00000
     17       0.3869      0.00000
     18       0.4248      0.00000
     19       0.5325      0.00000
     20       0.7128      0.00000
     21       0.9135      0.00000
     22       0.9424      0.00000
     23       0.9870      0.00000
     24       1.1040      0.00000


--------------------------------------------------------------------------------------------------------


 soft charge-density along one line, spin component           1
         0         1         2         3         4         5         6         7         8         9
 total charge-density along one line
 
 pseudopotential strength for first ion, spin component:           1
 10.252   0.020   0.001  -0.001   0.000   0.002  -0.002   0.001
  0.020  -0.001  -0.000   0.000  -0.000   0.000  -0.000   0.000
  0.001  -0.000  -4.365   0.005  -0.009  -0.017   0.001  -0.002
 -0.001   0.000   0.005  -4.366   0.001   0.001  -0.017   0.000
  0.000  -0.000  -0.009   0.001  -4.352  -0.002   0.000  -0.014
  0.002   0.000  -0.017   0.001  -0.002  -0.773   0.000  -0.000
 -0.002  -0.000   0.001  -0.017   0.000   0.000  -0.773   0.000
  0.001   0.000  -0.002   0.000  -0.014  -0.000   0.000  -0.772
 total augmentation occupancy for first ion, spin component:           1
  1.487  -1.081  -0.034   0.034  -0.014  -0.017   0.023  -0.018
 -1.081   0.884   0.067  -0.102   0.089   0.034  -0.038   0.028
 -0.034   0.067   1.153  -0.053   0.142   0.187  -0.021   0.051
  0.034  -0.102  -0.053   1.187  -0.010  -0.021   0.204   0.000
 -0.014   0.089   0.142  -0.010   0.986   0.051   0.000   0.116
 -0.017   0.034   0.187  -0.021   0.051   0.033  -0.006   0.012
  0.023  -0.038  -0.021   0.204   0.000  -0.006   0.037  -0.001
 -0.018   0.028   0.051   0.000   0.116   0.012  -0.001   0.016


------------------------ aborting loop because EDIFF is reached ----------------------------------------


    CHARGE:  cpu time      0.1988: real time      0.1996
    FORLOC:  cpu time      0.0320: real time      0.0321
    FORNL :  cpu time      1.0891: real time      1.0942
    STRESS:  cpu time      3.4412: real time      3.4574
    FORHAR:  cpu time      0.1114: real time      0.1119
    MIXING:  cpu time      0.0122: real time      0.0122
    OFIELD:  cpu time      0.0001: real time      0.0001

  FORCE on cell =-STRESS in cart. coord.  units (eV):
  Direction    XX          YY          ZZ          XY          YZ          ZX
  --------------------------------------------------------------------------------------
  Alpha Z     0.62641     0.62641     0.62641
  Ewald    -117.56911   292.06068   703.32247    36.34854   -19.69367  -102.48202
  Hartree   240.48726   432.12699   736.09500    17.83227   -14.10998   -75.89524
  E(xc)     -77.47514   -75.95743   -75.46713     0.10802    -0.02962    -0.04719
  Local    -342.14635  -914.78931 -1625.80818   -51.60302    33.79207   179.27746
  n-local   -28.66345   -31.02016   -30.07577    -0.26686    -0.05501    -0.18571
  augment    -0.56259    -0.70582    -0.70884    -0.01731    -0.00207    -0.00741
  Kinetic   325.11594   297.39353   288.71658    -1.37862    -0.06757    -0.69504
  Fock        0.00000     0.00000     0.00000     0.00000     0.00000     0.00000
  -------------------------------------------------------------------------------------
  Total      -0.18702    -0.26511    -3.29946     1.02302    -0.16585    -0.03515
  in kB      -0.08878    -0.12585    -1.56632     0.48565    -0.07873    -0.01669
  external pressure =       -0.59 kB  Pullay stress =        0.00 kB


 VOLUME and BASIS-vectors are now :
 -----------------------------------------------------------------------------
  energy-cutoff  :      520.00
  volume of cell :     3375.00
      direct lattice vectors                 reciprocal lattice vectors
    15.000000000  0.000000000  0.000000000     0.066666667  0.000000000  0.000000000
     0.000000000 15.000000000  0.000000000     0.000000000  0.066666667  0.000000000
     0.000000000  0.000000000 15.000000000     0.000000000  0.000000000  0.066666667

  length of vectors
    15.000000000 15.000000000 15.000000000     0.066666667  0.066666667  0.066666667


 FORCES acting on ions
    electron-ion (+dipol)            ewald-force                    non-local-force                 convergence-correction
 -----------------------------------------------------------------------------------------------
   -.563E+02 -.813E+02 0.116E+03   0.572E+02 0.823E+02 -.117E+03   -.133E+01 -.143E+00 0.842E+00   -.187E-04 -.271E-04 0.539E-04
   0.297E+02 0.702E+02 0.493E+02   -.305E+02 -.695E+02 -.503E+02   0.543E+00 -.975E+00 0.221E+00   -.287E-05 0.124E-05 0.400E-04
   -.187E+02 0.826E+02 -.462E+02   0.194E+02 -.825E+02 0.480E+02   -.439E+00 -.660E+00 -.251E-01   0.456E-05 0.125E-04 -.134E-04
   0.385E+02 -.697E+02 -.125E+03   -.388E+02 0.702E+02 0.126E+03   0.783E+00 -.494E+00 -.584E+00   0.204E-04 -.184E-04 -.663E-04
   0.562E+01 -.680E+01 0.653E+02   -.624E+01 0.670E+01 -.700E+02   0.103E+01 0.240E-01 0.532E+01   -.283E-05 -.133E-05 0.688E-05
   -.304E+02 -.569E+02 -.748E+01   0.328E+02 0.614E+02 0.960E+01   -.221E+01 -.453E+01 -.248E+01   -.274E-05 -.670E-06 0.746E-05
   0.272E+02 0.573E+02 0.355E+02   -.297E+02 -.624E+02 -.384E+02   0.225E+01 0.466E+01 0.270E+01   0.156E-05 0.409E-05 0.715E-05
   -.172E+02 0.635E+02 -.247E+02   0.184E+02 -.676E+02 0.263E+02   -.136E+01 0.483E+01 -.158E+01   -.203E-05 0.112E-04 -.871E-05
   0.236E+02 -.594E+02 -.379E+00   -.252E+02 0.639E+02 -.101E+01   0.170E+01 -.486E+01 0.177E+01   0.503E-05 -.821E-05 -.514E-05
   -.248E+01 0.203E+01 -.631E+02   0.268E+01 -.260E+01 0.661E+02   -.526E+00 0.673E+00 -.480E+01   0.117E-05 0.371E-06 -.140E-04
 -----------------------------------------------------------------------------------------------
   -.456E+00 0.150E+01 -.140E+01   -.151E-13 -.249E-13 -.142E-13   0.448E+00 -.149E+01 0.139E+01   0.348E-05 -.263E-04 0.786E-05
 
 
 POSITION                                       TOTAL-FORCE (eV/Angst)
 -----------------------------------------------------------------------------------
      7.95900      7.96500      5.93500        -0.439722      0.879056     -0.045788
      7.47100      7.02000      6.74300        -0.261834     -0.260811     -0.791248
      7.47300      6.90500      8.17600         0.268039     -0.551446      1.766871
      7.11900      7.81600      9.11800         0.479474      0.071376      0.415499
      7.75900      7.95500      4.84100         0.422186     -0.074020      0.694553
      8.39600      8.85600      6.40200         0.145649     -0.004305     -0.358044
      7.05300      6.15000      6.25300        -0.251143     -0.468484     -0.240234
      7.76100      5.87300      8.51000        -0.165934      0.695703     -0.001365
      6.77300      8.81100      8.77000         0.124707     -0.392080      0.382779
      7.23700      7.64800     10.25300        -0.321423      0.105010     -1.823022
 -----------------------------------------------------------------------------------
    total drift:                               -0.007890      0.008660     -0.009331


--------------------------------------------------------------------------------------------------------



  FREE ENERGIE OF THE ION-ELECTRON SYSTEM (eV)
  ---------------------------------------------------
  free  energy   TOTEN  =       -56.61912796 eV

  energy  without entropy=      -56.61912796  energy(sigma->0) =      -56.61912796
 


--------------------------------------------------------------------------------------------------------


    POTLOK:  cpu time      0.5145: real time      0.5170


--------------------------------------------------------------------------------------------------------


 stress matrix after NEB project (eV)
     -0.18702      1.02302     -0.03515
      1.02302     -0.26511     -0.16585
     -0.03515     -0.16585     -3.29946
  FORCES: max atom, RMS     1.870233    1.051530
  FORCE total and by dimension    3.325229    1.823022
  Stress total and by dimension    3.625233    3.299457
     LOOP+:  cpu time     30.8379: real time     30.9930
    4ORBIT:  cpu time      0.0000: real time      0.0000

 total amount of memory used by VASP MPI-rank0   224782. kBytes
=======================================================================

   base      :      30000. kBytes
   nonlr-proj:       1258. kBytes
   fftplans  :     123538. kBytes
   grid      :      67787. kBytes
   one-center:         15. kBytes
   wavefun   :       2184. kBytes
 
  
  
 General timing and accounting informations for this job:
 ========================================================
  
                  Total CPU time used (sec):       37.476
                            User time (sec):       34.323
                          System time (sec):        3.153
                         Elapsed time (sec):       38.638
  
                   Maximum memory used (kb):      559704.
                   Average memory used (kb):          N/A
  
                          Minor page faults:       171162
                          Major page faults:         5451
                 Voluntary context switches:         3120
