 vasp.6.4.2 20Jul23 (build Apr 10 2024 13:39:58) complex                        
  
 executed on             LinuxIFC date 2024.05.17  07:32:51
 running   16 mpi-ranks, on    1 nodes
 distrk:  each k-point on   16 cores,    1 groups
 distr:  one band on NCORE=   2 cores,    8 groups


--------------------------------------------------------------------------------------------------------


 INCAR:
   ISTART = 0
   ISPIN = 1
   LREAL = Auto
   ENCUT = 520
   NPAR = 8
   LPLANE = .TRUE.
   LSCALU = .FALSE.
   NSIM = 4
   LWAVE = .FALSE.
   LCHARG = .FALSE.
   ADDGRID = .TRUE.
   LASPH = .TRUE.
   PREC = Accurate
   ISMEAR = 0
   SIGMA = 0.05
   EDIFF = 1E-06
   NSW = 0
   TEBEG = 300
   TEEND = 700     	
   ISYM = 0
   NWRITE = 2

 POTCAR:   PAW_PBE C 08Apr2002                    
 POTCAR:   PAW_PBE H 15Jun2001                    
 POTCAR:   PAW_PBE C 08Apr2002                    
   VRHFIN =C: s2p2                                                                                  
   LEXCH  = PE                                                                                      
   EATOM  =   147.1560 eV,   10.8157 Ry                                                             
                                                                                                    
   TITEL  = PAW_PBE C 08Apr2002                                                                     
   LULTRA =        F    use ultrasoft PP ?                                                          
   IUNSCR =        0    unscreen: 0-lin 1-nonlin 2-no                                               
   RPACOR =     .000    partial core radius                                                         
   POMASS =   12.011; ZVAL   =    4.000    mass and valenz                                          
   RCORE  =    1.500    outmost cutoff radius                                                       
   RWIGS  =    1.630; RWIGS  =     .863    wigner-seitz radius (au A)                               
   ENMAX  =  400.000; ENMIN  =  300.000 eV                                                          
   ICORE  =        2    local potential                                                             
   LCOR   =        T    correct aug charges                                                         
   LPAW   =        T    paw PP                                                                      
   EAUG   =  644.873                                                                                
   DEXC   =     .000                                                                                
   RMAX   =    2.266    core radius for proj-oper                                                   
   RAUG   =    1.300    factor for augmentation sphere                                              
   RDEP   =    1.501    radius for radial grids                                                     
   RDEPT  =    1.300    core radius for aug-charge                                                  
   QCUT   =   -5.516; QGAM   =   11.032    optimization parameters                                  
                                                                                                    
   Description                                                                                      
     l     E      TYP  RCUT    TYP  RCUT                                                            
     0   .000     23  1.200                                                                         
     0   .000     23  1.200                                                                         
     1   .000     23  1.500                                                                         
     1  2.500     23  1.500                                                                         
     2   .000      7  1.500                                                                         
  local pseudopotential read in
  atomic valenz-charges read in
  non local Contribution for L=           0  read in
    real space projection operators read in
  non local Contribution for L=           0  read in
    real space projection operators read in
  non local Contribution for L=           1  read in
    real space projection operators read in
  non local Contribution for L=           1  read in
    real space projection operators read in
    PAW grid and wavefunctions read in
 
   number of l-projection  operators is LMAX  =           4
   number of lm-projection operators is LMMAX =           8
 
 POTCAR:   PAW_PBE H 15Jun2001                    
   VRHFIN =H: ultrasoft test                                                                        
   LEXCH  = PE                                                                                      
   EATOM  =    12.4884 eV,     .9179 Ry                                                             
                                                                                                    
   TITEL  = PAW_PBE H 15Jun2001                                                                     
   LULTRA =        F    use ultrasoft PP ?                                                          
   IUNSCR =        0    unscreen: 0-lin 1-nonlin 2-no                                               
   RPACOR =     .000    partial core radius                                                         
   POMASS =    1.000; ZVAL   =    1.000    mass and valenz                                          
   RCORE  =    1.100    outmost cutoff radius                                                       
   RWIGS  =     .700; RWIGS  =     .370    wigner-seitz radius (au A)                               
   ENMAX  =  250.000; ENMIN  =  200.000 eV                                                          
   RCLOC  =     .701    cutoff for local pot                                                        
   LCOR   =        T    correct aug charges                                                         
   LPAW   =        T    paw PP                                                                      
   EAUG   =  400.000                                                                                
   RMAX   =    2.174    core radius for proj-oper                                                   
   RAUG   =    1.200    factor for augmentation sphere                                              
   RDEP   =    1.112    radius for radial grids                                                     
   QCUT   =   -5.749; QGAM   =   11.498    optimization parameters                                  
                                                                                                    
   Description                                                                                      
     l     E      TYP  RCUT    TYP  RCUT                                                            
     0   .000     23  1.100                                                                         
     0   .500     23  1.100                                                                         
     1  -.300     23  1.100                                                                         
  local pseudopotential read in
  atomic valenz-charges read in
  non local Contribution for L=           0  read in
    real space projection operators read in
  non local Contribution for L=           0  read in
    real space projection operators read in
  non local Contribution for L=           1  read in
    real space projection operators read in
    PAW grid and wavefunctions read in
 
   number of l-projection  operators is LMAX  =           3
   number of lm-projection operators is LMMAX =           5
 
 Optimization of the real space projectors (new method)

 maximal supplied QI-value         = 25.13
 optimisation between [QCUT,QGAM] = [ 11.56, 23.12] = [ 37.43,149.72] Ry 
 Optimized for a Real-space Cutoff    1.04 Angstroem

   l    n(q)    QCUT    max X(q) W(low)/X(q) W(high)/X(q)  e(spline) 
   0      7    11.561     5.582    0.47E-04    0.94E-04    0.17E-07
   0      7    11.561    69.432    0.20E-03    0.59E-03    0.21E-06
   1      7    11.561     2.780    0.24E-04    0.70E-04    0.44E-07
   1      7    11.561     4.549    0.18E-03    0.25E-03    0.12E-06
 Optimization of the real space projectors (new method)

 maximal supplied QI-value         = 34.20
 optimisation between [QCUT,QGAM] = [ 11.63, 23.26] = [ 37.87,151.49] Ry 
 Optimized for a Real-space Cutoff    1.21 Angstroem

   l    n(q)    QCUT    max X(q) W(low)/X(q) W(high)/X(q)  e(spline) 
   0      8    11.629     4.436    0.19E-04    0.32E-04    0.47E-07
   0      8    11.629    16.131    0.16E-03    0.33E-03    0.21E-06
   1      8    11.629     4.654    0.18E-03    0.16E-03    0.26E-06
 PAW_PBE C 08Apr2002                    :
 energy of atom  1       EATOM= -147.1560
 kinetic energy error for atom=    0.0071 (will be added to EATOM!!)
 PAW_PBE H 15Jun2001                    :
 energy of atom  2       EATOM=  -12.4884
 kinetic energy error for atom=    0.0014 (will be added to EATOM!!)
 
 
 POSCAR:  C  H
  positions in cartesian coordinates
  No initial velocities read in
 exchange correlation table for  LEXCH =        8
   RHO(1)=    0.500       N(1)  =     2000
   RHO(2)=  100.500       N(2)  =     4000

 VTST: version 4.1, (05/19/21)

 CHAIN: initializing optimizer
 
 OPT: Using VASP Dynamics algorithm
 CHAIN: Read ICHAIN            0
 
 POSCAR:  C  H
  positions in cartesian coordinates
  No initial velocities read in
 


--------------------------------------------------------------------------------------------------------


 ion  position               nearest neighbor table
   1  0.529  0.535  0.403-   6 1.08   5 1.13   2 1.31
   2  0.499  0.465  0.446-   7 1.11   1 1.31   3 1.43
   3  0.492  0.458  0.541-   8 1.08   2 1.43   4 1.45
   4  0.479  0.526  0.607-   9 1.06  10 1.12   3 1.45
   5  0.525  0.529  0.329-   1 1.13
   6  0.558  0.596  0.431-   1 1.08
   7  0.479  0.405  0.408-   2 1.11
   8  0.492  0.390  0.567-   3 1.08
   9  0.469  0.594  0.590-   4 1.06
  10  0.477  0.502  0.678-   4 1.12
 

IMPORTANT INFORMATION: All symmetrisations will be switched off!
NOSYMM: (Re-)initialisation of all symmetry stuff for point group C_1.


----------------------------------------------------------------------------------------

                                     Primitive cell                                     

  volume of cell :    3375.0000

  direct lattice vectors                    reciprocal lattice vectors
    15.000000000  0.000000000  0.000000000     0.066666667  0.000000000  0.000000000
     0.000000000 15.000000000  0.000000000     0.000000000  0.066666667  0.000000000
     0.000000000  0.000000000 15.000000000     0.000000000  0.000000000  0.066666667

  length of vectors
    15.000000000 15.000000000 15.000000000     0.066666667  0.066666667  0.066666667

  position of ions in fractional coordinates (direct lattice)
     0.529266675  0.535333316  0.403466670
     0.498933347  0.465399996  0.446066666
     0.492000008  0.457533328  0.541066678
     0.478800011  0.526133347  0.607466698
     0.525466665  0.528599993  0.328599993
     0.557600021  0.595733325  0.430666669
     0.479066658  0.404999987  0.407800007
     0.492133331  0.390266673  0.567333349
     0.469466654  0.593866666  0.589733315
     0.477199999  0.502066676  0.677799988

  ion indices of the primitive-cell ions
   primitive index   ion index
                 1           1
                 2           2
                 3           3
                 4           4
                 5           5
                 6           6
                 7           7
                 8           8
                 9           9
                10          10

----------------------------------------------------------------------------------------

 
 
 KPOINTS: K-Spacing Value to Generate K-Mesh: 1.00

Automatic generation of k-mesh.
 Grid dimensions read from file:
 generate k-points for:    1    1    1

 Generating k-lattice:

  Cartesian coordinates                     Fractional coordinates (reciprocal lattice)
     0.066666667  0.000000000  0.000000000     1.000000000  0.000000000  0.000000000
     0.000000000  0.066666667  0.000000000     0.000000000  1.000000000  0.000000000
     0.000000000  0.000000000  0.066666667     0.000000000  0.000000000  1.000000000

  Length of vectors
     0.066666667  0.066666667  0.066666667

  Shift w.r.t. Gamma in fractional coordinates (k-lattice)
     0.000000000  0.000000000  0.000000000

 
 Subroutine IBZKPT returns following result:
 ===========================================
 
 Found      1 irreducible k-points:
 
 Following reciprocal coordinates:
            Coordinates               Weight
  0.000000  0.000000  0.000000      1.000000
 
 Following cartesian coordinates:
            Coordinates               Weight
  0.000000  0.000000  0.000000      1.000000
 


--------------------------------------------------------------------------------------------------------




 Dimension of arrays:
   k-points           NKPTS =      1   k-points in BZ     NKDIM =      1   number of bands    NBANDS=     24
   number of dos      NEDOS =    301   number of ions     NIONS =     10
   non local maximal  LDIM  =      4   non local SUM 2l+1 LMDIM =      8
   total plane-waves  NPLWV = ******
   max r-space proj   IRMAX =   3145   max aug-charges    IRDMAX=  39494
   dimension x,y,z NGX =   112 NGY =  112 NGZ =  112
   dimension x,y,z NGXF=   224 NGYF=  224 NGZF=  224
   support grid    NGXF=   448 NGYF=  448 NGZF=  448
   ions per type =               4   6
   NGX,Y,Z   is equivalent  to a cutoff of  12.41, 12.41, 12.41 a.u.
   NGXF,Y,Z  is equivalent  to a cutoff of  24.83, 24.83, 24.83 a.u.

 SYSTEM =  unknown system                          
 POSCAR =   C  H                                   

 Startparameter for this run:
   NWRITE =      2    write-flag & timer
   PREC   = accura    normal or accurate (medium, high low for compatibility)
   ISTART =      0    job   : 0-new  1-cont  2-samecut
   ICHARG =      2    charge: 1-file 2-atom 10-const
   ISPIN  =      1    spin polarized calculation?
   LNONCOLLINEAR =      F non collinear calculations
   LSORBIT =      F    spin-orbit coupling
   INIWAV =      1    electr: 0-lowe 1-rand  2-diag
   LASPH  =      T    aspherical Exc in radial PAW
 Electronic Relaxation 1
   ENCUT  =  520.0 eV  38.22 Ry    6.18 a.u.  27.89 27.89 27.89*2*pi/ulx,y,z
   ENINI  =  520.0     initial cutoff
   ENAUG  =  644.9 eV  augmentation charge cutoff
   NELM   =     60;   NELMIN=  2; NELMDL= -5     # of ELM steps 
   EDIFF  = 0.1E-05   stopping-criterion for ELM
   LREAL  =      T    real-space projection
   NLSPLINE    = F    spline interpolate recip. space projectors
   LCOMPAT=      F    compatible to vasp.4.4
   GGA_COMPAT  = T    GGA compatible to vasp.4.4-vasp.4.6
   LMAXPAW     = -100 max onsite density
   LMAXMIX     =    2 max onsite mixed and CHGCAR
   VOSKOWN=      0    Vosko Wilk Nusair interpolation
   ROPT   =   -0.00025  -0.00025
 Ionic relaxation
   EDIFFG = 0.1E-04   stopping-criterion for IOM
   NSW    =      0    number of steps for IOM
   NBLOCK =      1;   KBLOCK =      1    inner block; outer block 
   IBRION =     -1    ionic relax: 0-MD 1-quasi-New 2-CG
   NFREE  =      0    steps in history (QN), initial steepest desc. (CG)
   ISIF   =      2    stress and relaxation
   IWAVPR =     10    prediction:  0-non 1-charg 2-wave 3-comb
   ISYM   =      0    0-nonsym 1-usesym 2-fastsym
   LCORR  =      T    Harris-Foulkes like correction to forces

   POTIM  = 0.5000    time-step for ionic-motion
   TEIN   =    0.0    initial temperature
   TEBEG  =  300.0;   TEEND  = 700.0 temperature during run
   SMASS  =  -3.00    Nose mass-parameter (am)
   estimated Nose-frequenzy (Omega)   =  0.10E-29 period in steps = 0.13E+47 mass=  -0.514E-26a.u.
   SCALEE = 1.0000    scale energy and forces
   NPACO  =    256;   APACO  = 10.0  distance and # of slots for P.C.
   PSTRESS=    0.0 pullay stress

  Mass of Ions in am
   POMASS =  12.01  1.00
  Ionic Valenz
   ZVAL   =   4.00  1.00
  Atomic Wigner-Seitz radii
   RWIGS  =  -1.00 -1.00
  virtual crystal weights 
   VCA    =   1.00  1.00
   NELECT =      22.0000    total number of electrons
   NUPDOWN=      -1.0000    fix difference up-down

 DOS related values:
   EMIN   =  10.00;   EMAX   =-10.00  energy-range for DOS
   EFERMI =   0.00;   METHOD = LEGACY      
   ISMEAR =     0;   SIGMA  =   0.05  broadening in eV -4-tet -1-fermi 0-gaus

 Electronic relaxation 2 (details)
   IALGO  =     38    algorithm
   LDIAG  =      T    sub-space diagonalisation (order eigenvalues)
   LSUBROT=      F    optimize rotation matrix (better conditioning)
   TURBO    =      0    0=normal 1=particle mesh
   IRESTART =      0    0=no restart 2=restart with 2 vectors
   NREBOOT  =      0    no. of reboots
   NMIN     =      0    reboot dimension
   EREF     =   0.00    reference energy to select bands
   IMIX   =      4    mixing-type and parameters
     AMIX     =   0.40;   BMIX     =  1.00
     AMIX_MAG =   1.60;   BMIX_MAG =  1.00
     AMIN     =   0.10
     WC   =   100.;   INIMIX=   1;  MIXPRE=   1;  MAXMIX= -45

 Intra band minimization:
   WEIMIN = 0.0000     energy-eigenvalue tresh-hold
   EBREAK =  0.10E-07  absolut break condition
   DEPER  =   0.30     relativ break condition  

   TIME   =   0.40     timestep for ELM

  volume/ion in A,a.u.               =     337.50      2277.56
  Fermi-wavevector in a.u.,A,eV,Ry     =   0.305814  0.577905  1.272449  0.093522
  Thomas-Fermi vector in A             =   1.179187
 
 Write flags
   LWAVE        =      F    write WAVECAR
   LDOWNSAMPLE  =      F    k-point downsampling of WAVECAR
   LCHARG       =      F    write CHGCAR
   LVTOT        =      F    write LOCPOT, total local potential
   LVHAR        =      F    write LOCPOT, Hartree potential only
   LELF         =      F    write electronic localiz. function (ELF)
   LORBIT       =      0    0 simple, 1 ext, 2 COOP (PROOUT), +10 PAW based schemes


 Dipole corrections
   LMONO  =      F    monopole corrections only (constant potential shift)
   LDIPOL =      F    correct potential (dipole corrections)
   IDIPOL =      0    1-x, 2-y, 3-z, 4-all directions 
   EPSILON=  1.0000000 bulk dielectric constant

 Exchange correlation treatment:
   GGA     =    --    GGA type
   LEXCH   =     8    internal setting for exchange type
   LIBXC   =     F    Libxc                    
   VOSKOWN =     0    Vosko Wilk Nusair interpolation
   LHFCALC =     F    Hartree Fock is set to
   LHFONE  =     F    Hartree Fock one center treatment
   AEXX    =    0.0000 exact exchange contribution

 Linear response parameters
   LEPSILON=     F    determine dielectric tensor
   LRPA    =     F    only Hartree local field effects (RPA)
   LNABLA  =     F    use nabla operator in PAW spheres
   LVEL    =     F    velocity operator in full k-point grid
   CSHIFT  =0.1000    complex shift for real part using Kramers Kronig
   OMEGAMAX=  -1.0    maximum frequency
   DEG_THRESHOLD= 0.2000000E-02 threshold for treating states as degnerate
   RTIME   =   -0.100 relaxation time in fs
  (WPLASMAI=    0.000 imaginary part of plasma frequency in eV, 0.658/RTIME)
   DFIELD  = 0.0000000 0.0000000 0.0000000 field for delta impulse in time
 
  Optional k-point grid parameters
   LKPOINTS_OPT  =     F    use optional k-point grid
   KPOINTS_OPT_MODE=     1    mode for optional k-point grid
 
 Orbital magnetization related:
   ORBITALMAG=     F  switch on orbital magnetization
   LCHIMAG   =     F  perturbation theory with respect to B field
   DQ        =  0.001000  dq finite difference perturbation B field
   LLRAUG    =     F  two centre corrections for induced B field
   LBONE     =     F  B-component reconstruction in AE one-centre
   LVGVCALC  =     T  calculate vGv susceptibility
   LVGVAPPL  =     F  apply vGv susceptibility instead of pGv for G=0

 Random number generation:
   RANDOM_GENERATOR = DEFAULT
   PCG_SEED         = not used


--------------------------------------------------------------------------------------------------------


 Static calculation
 charge density and potential will be updated during run
 non-spin polarized calculation
 Variant of blocked Davidson
 Davidson routine will perform the subspace rotation
 perform sub-space diagonalisation
    after iterative eigenvector-optimisation
 modified Broyden-mixing scheme, WC =      100.0
 initial mixing is a Kerker type mixing with AMIX =  0.4000 and BMIX =      1.0000
 Hartree-type preconditioning will be used
 using additional bands           13
 real space projection scheme for non local part
 calculate Harris-corrections to forces 
   (improved forces if not selfconsistent)
 use gradient corrections 
 use of overlap-Matrix (Vanderbilt PP)
 Gauss-broadening in eV      SIGMA  =   0.05


--------------------------------------------------------------------------------------------------------


  energy-cutoff  :      520.00
  volume of cell :     3375.00
      direct lattice vectors                 reciprocal lattice vectors
    15.000000000  0.000000000  0.000000000     0.066666667  0.000000000  0.000000000
     0.000000000 15.000000000  0.000000000     0.000000000  0.066666667  0.000000000
     0.000000000  0.000000000 15.000000000     0.000000000  0.000000000  0.066666667

  length of vectors
    15.000000000 15.000000000 15.000000000     0.066666667  0.066666667  0.066666667


 
 k-points in units of 2pi/SCALE and weight: K-Spacing Value to Generate K-Mesh: 1.00
   0.00000000  0.00000000  0.00000000       1.000
 
 k-points in reciprocal lattice and weights: K-Spacing Value to Generate K-Mesh: 1.00
   0.00000000  0.00000000  0.00000000       1.000
 
 position of ions in fractional coordinates (direct lattice) 
   0.52926668  0.53533332  0.40346667
   0.49893335  0.46540000  0.44606667
   0.49200001  0.45753333  0.54106668
   0.47880001  0.52613335  0.60746670
   0.52546666  0.52859999  0.32859999
   0.55760002  0.59573332  0.43066667
   0.47906666  0.40499999  0.40780001
   0.49213333  0.39026667  0.56733335
   0.46946665  0.59386667  0.58973331
   0.47720000  0.50206668  0.67779999
 
 position of ions in cartesian coordinates  (Angst):
   7.93900013  8.02999973  6.05200005
   7.48400021  6.98099995  6.69099998
   7.38000011  6.86299992  8.11600018
   7.18200016  7.89200020  9.11200047
   7.88199997  7.92899990  4.92899990
   8.36400032  8.93599987  6.46000004
   7.18599987  6.07499981  6.11700010
   7.38199997  5.85400009  8.51000023
   7.04199982  8.90799999  8.84599972
   7.15799999  7.53100014 10.16699982
 


--------------------------------------------------------------------------------------------------------


 k-point   1 :   0.0000 0.0000 0.0000  plane waves:   90879

 maximum and minimum number of plane-waves per node :     45467    45412

 maximum number of plane-waves:     90879
 maximum index in each direction: 
   IXMAX=   27   IYMAX=   27   IZMAX=   27
   IXMIN=  -27   IYMIN=  -27   IZMIN=  -27


 real space projection operators:
  total allocation   :       1187.28 KBytes
  max/ min on nodes  :        593.98        593.30


 parallel 3D FFT for wavefunctions:
    minimum data exchange during FFTs selected (reduces bandwidth)
 parallel 3D FFT for charge:
    minimum data exchange during FFTs selected (reduces bandwidth)


 total amount of memory used by VASP MPI-rank0   224784. kBytes
=======================================================================

   base      :      30000. kBytes
   nonlr-proj:       1260. kBytes
   fftplans  :     123538. kBytes
   grid      :      67787. kBytes
   one-center:         15. kBytes
   wavefun   :       2184. kBytes
 
     INWAV:  cpu time      0.0000: real time      0.0000
 Broyden mixing: mesh for mixing (old mesh)
   NGX = 55   NGY = 55   NGZ = 55
  (NGX  =224   NGY  =224   NGZ  =224)
  gives a total of 166375 points

 initial charge density was supplied:
 charge density of overlapping atoms calculated
 number of electron      22.0000000 magnetization 
 keeping initial charge density in first step


--------------------------------------------------------------------------------------------------------


 Maximum index for non-local projection operator         1510
 Maximum index for augmentation-charges         2498 (set IRDMAX)


--------------------------------------------------------------------------------------------------------


 First call to EWALD:  gamma=   0.118
 Maximum number of real-space cells 3x 3x 3
 Maximum number of reciprocal cells 3x 3x 3

    FEWALD:  cpu time      0.0011: real time      0.0011


--------------------------------------- Ionic step        1  -------------------------------------------




--------------------------------------- Iteration      1(   1)  ---------------------------------------


    POTLOK:  cpu time      0.3339: real time      0.3358
    SETDIJ:  cpu time      0.1939: real time      0.1947
     EDDAV:  cpu time      0.4188: real time      0.4211
       DOS:  cpu time      0.0002: real time      0.0002
    --------------------------------------------
      LOOP:  cpu time      0.9468: real time      0.9519

 eigenvalue-minimisations  :    64
 total energy-change (2. order) : 0.1053529E+03  (-0.5264680E+03)
 number of electron      22.0000000 magnetization 
 augmentation part       22.0000000 magnetization 

 Free energy of the ion-electron system (eV)
  ---------------------------------------------------
  alpha Z        PSCENC =         0.62641250
  Ewald energy   TEWEN  =       879.32527386
  -Hartree energ DENC   =     -1304.53915346
  -exchange      EXHF   =         0.00000000
  -V(xc)+E(xc)   XCENC  =        67.15280756
  PAW double counting   =       156.01372664     -160.66969168
  entropy T*S    EENTRO =        -0.00000606
  eigenvalues    EBANDS =      -196.07389300
  atomic energy  EATOM  =       663.51739852
  Solvation  Ediel_sol  =         0.00000000
  ---------------------------------------------------
  free energy    TOTEN  =       105.35287488 eV

  energy without entropy =      105.35288095  energy(sigma->0) =      105.35287791


--------------------------------------------------------------------------------------------------------




--------------------------------------- Iteration      1(   2)  ---------------------------------------


     EDDAV:  cpu time      0.4858: real time      0.4885
       DOS:  cpu time      0.0001: real time      0.0001
    --------------------------------------------
      LOOP:  cpu time      0.4860: real time      0.4887

 eigenvalue-minimisations  :    80
 total energy-change (2. order) :-0.1251136E+03  (-0.1210638E+03)
 number of electron      22.0000000 magnetization 
 augmentation part       22.0000000 magnetization 

 Free energy of the ion-electron system (eV)
  ---------------------------------------------------
  alpha Z        PSCENC =         0.62641250
  Ewald energy   TEWEN  =       879.32527386
  -Hartree energ DENC   =     -1304.53915346
  -exchange      EXHF   =         0.00000000
  -V(xc)+E(xc)   XCENC  =        67.15280756
  PAW double counting   =       156.01372664     -160.66969168
  entropy T*S    EENTRO =        -0.00000000
  eigenvalues    EBANDS =      -321.18753507
  atomic energy  EATOM  =       663.51739852
  Solvation  Ediel_sol  =         0.00000000
  ---------------------------------------------------
  free energy    TOTEN  =       -19.76076112 eV

  energy without entropy =      -19.76076112  energy(sigma->0) =      -19.76076112


--------------------------------------------------------------------------------------------------------




--------------------------------------- Iteration      1(   3)  ---------------------------------------


     EDDAV:  cpu time      0.4465: real time      0.4492
       DOS:  cpu time      0.0001: real time      0.0001
    --------------------------------------------
      LOOP:  cpu time      0.4467: real time      0.4493

 eigenvalue-minimisations  :    72
 total energy-change (2. order) :-0.4093130E+02  (-0.4084442E+02)
 number of electron      22.0000000 magnetization 
 augmentation part       22.0000000 magnetization 

 Free energy of the ion-electron system (eV)
  ---------------------------------------------------
  alpha Z        PSCENC =         0.62641250
  Ewald energy   TEWEN  =       879.32527386
  -Hartree energ DENC   =     -1304.53915346
  -exchange      EXHF   =         0.00000000
  -V(xc)+E(xc)   XCENC  =        67.15280756
  PAW double counting   =       156.01372664     -160.66969168
  entropy T*S    EENTRO =        -0.00000000
  eigenvalues    EBANDS =      -362.11883924
  atomic energy  EATOM  =       663.51739852
  Solvation  Ediel_sol  =         0.00000000
  ---------------------------------------------------
  free energy    TOTEN  =       -60.69206529 eV

  energy without entropy =      -60.69206529  energy(sigma->0) =      -60.69206529


--------------------------------------------------------------------------------------------------------




--------------------------------------- Iteration      1(   4)  ---------------------------------------


     EDDAV:  cpu time      0.4046: real time      0.4070
       DOS:  cpu time      0.0001: real time      0.0001
    --------------------------------------------
      LOOP:  cpu time      0.4047: real time      0.4071

 eigenvalue-minimisations  :    64
 total energy-change (2. order) :-0.2204786E+01  (-0.2202213E+01)
 number of electron      22.0000000 magnetization 
 augmentation part       22.0000000 magnetization 

 Free energy of the ion-electron system (eV)
  ---------------------------------------------------
  alpha Z        PSCENC =         0.62641250
  Ewald energy   TEWEN  =       879.32527386
  -Hartree energ DENC   =     -1304.53915346
  -exchange      EXHF   =         0.00000000
  -V(xc)+E(xc)   XCENC  =        67.15280756
  PAW double counting   =       156.01372664     -160.66969168
  entropy T*S    EENTRO =        -0.00000000
  eigenvalues    EBANDS =      -364.32362568
  atomic energy  EATOM  =       663.51739852
  Solvation  Ediel_sol  =         0.00000000
  ---------------------------------------------------
  free energy    TOTEN  =       -62.89685173 eV

  energy without entropy =      -62.89685173  energy(sigma->0) =      -62.89685173


--------------------------------------------------------------------------------------------------------




--------------------------------------- Iteration      1(   5)  ---------------------------------------


     EDDAV:  cpu time      0.3267: real time      0.3286
       DOS:  cpu time      0.0001: real time      0.0001
    CHARGE:  cpu time      0.2026: real time      0.2034
    MIXING:  cpu time      0.0123: real time      0.0124
    --------------------------------------------
      LOOP:  cpu time      0.5417: real time      0.5445

 eigenvalue-minimisations  :    48
 total energy-change (2. order) :-0.3923296E-01  (-0.3922046E-01)
 number of electron      22.0000000 magnetization 
 augmentation part        0.5776862 magnetization 

 Broyden mixing:
  rms(total) = 0.11804E+01    rms(broyden)= 0.11802E+01
  rms(prec ) = 0.14142E+01
  weight for this iteration     100.00

 Free energy of the ion-electron system (eV)
  ---------------------------------------------------
  alpha Z        PSCENC =         0.62641250
  Ewald energy   TEWEN  =       879.32527386
  -Hartree energ DENC   =     -1304.53915346
  -exchange      EXHF   =         0.00000000
  -V(xc)+E(xc)   XCENC  =        67.15280756
  PAW double counting   =       156.01372664     -160.66969168
  entropy T*S    EENTRO =        -0.00000000
  eigenvalues    EBANDS =      -364.36285864
  atomic energy  EATOM  =       663.51739852
  Solvation  Ediel_sol  =         0.00000000
  ---------------------------------------------------
  free energy    TOTEN  =       -62.93608469 eV

  energy without entropy =      -62.93608469  energy(sigma->0) =      -62.93608469


--------------------------------------------------------------------------------------------------------




--------------------------------------- Iteration      1(   6)  ---------------------------------------


    POTLOK:  cpu time      0.3052: real time      0.3069
    SETDIJ:  cpu time      0.1920: real time      0.1928
     EDDAV:  cpu time      0.3701: real time      0.3721
       DOS:  cpu time      0.0001: real time      0.0001
    CHARGE:  cpu time      0.1937: real time      0.1945
    MIXING:  cpu time      0.0162: real time      0.0162
    --------------------------------------------
      LOOP:  cpu time      1.0772: real time      1.0826

 eigenvalue-minimisations  :    56
 total energy-change (2. order) : 0.5101483E+01  (-0.7305589E+00)
 number of electron      22.0000000 magnetization 
 augmentation part        0.5307684 magnetization 

 Broyden mixing:
  rms(total) = 0.57304E+00    rms(broyden)= 0.57302E+00
  rms(prec ) = 0.67863E+00
  weight for this iteration     100.00

 eigenvalues of (default mixing * dielectric matrix)
  average eigenvalue GAMMA=   1.6424
  1.6424

 Free energy of the ion-electron system (eV)
  ---------------------------------------------------
  alpha Z        PSCENC =         0.62641250
  Ewald energy   TEWEN  =       879.32527386
  -Hartree energ DENC   =     -1350.81205668
  -exchange      EXHF   =         0.00000000
  -V(xc)+E(xc)   XCENC  =        69.56563825
  PAW double counting   =       228.59231633     -233.79383198
  entropy T*S    EENTRO =        -0.00000000
  eigenvalues    EBANDS =      -314.85575217
  atomic energy  EATOM  =       663.51739852
  Solvation  Ediel_sol  =         0.00000000
  ---------------------------------------------------
  free energy    TOTEN  =       -57.83460136 eV

  energy without entropy =      -57.83460136  energy(sigma->0) =      -57.83460136


--------------------------------------------------------------------------------------------------------




--------------------------------------- Iteration      1(   7)  ---------------------------------------


    POTLOK:  cpu time      0.3068: real time      0.3085
    SETDIJ:  cpu time      0.1916: real time      0.1924
     EDDAV:  cpu time      0.4094: real time      0.4117
       DOS:  cpu time      0.0001: real time      0.0001
    CHARGE:  cpu time      0.1947: real time      0.1955
    MIXING:  cpu time      0.0155: real time      0.0156
    --------------------------------------------
      LOOP:  cpu time      1.1181: real time      1.1237

 eigenvalue-minimisations  :    64
 total energy-change (2. order) : 0.1238732E+01  (-0.4290928E+00)
 number of electron      22.0000000 magnetization 
 augmentation part        0.4977433 magnetization 

 Broyden mixing:
  rms(total) = 0.22086E+00    rms(broyden)= 0.22079E+00
  rms(prec ) = 0.25289E+00
  weight for this iteration     100.00

 eigenvalues of (default mixing * dielectric matrix)
  average eigenvalue GAMMA=   1.8771
  1.8771  1.8771

 Free energy of the ion-electron system (eV)
  ---------------------------------------------------
  alpha Z        PSCENC =         0.62641250
  Ewald energy   TEWEN  =       879.32527386
  -Hartree energ DENC   =     -1389.04887251
  -exchange      EXHF   =         0.00000000
  -V(xc)+E(xc)   XCENC  =        71.78198875
  PAW double counting   =       290.98371564     -296.44932580
  entropy T*S    EENTRO =        -0.00000000
  eigenvalues    EBANDS =      -277.33246027
  atomic energy  EATOM  =       663.51739852
  Solvation  Ediel_sol  =         0.00000000
  ---------------------------------------------------
  free energy    TOTEN  =       -56.59586932 eV

  energy without entropy =      -56.59586932  energy(sigma->0) =      -56.59586932


--------------------------------------------------------------------------------------------------------




--------------------------------------- Iteration      1(   8)  ---------------------------------------


    POTLOK:  cpu time      0.3109: real time      0.3126
    SETDIJ:  cpu time      0.1937: real time      0.1946
     EDDAV:  cpu time      0.4486: real time      0.4510
       DOS:  cpu time      0.0001: real time      0.0001
    CHARGE:  cpu time      0.2025: real time      0.2033
    MIXING:  cpu time      0.0080: real time      0.0080
    --------------------------------------------
      LOOP:  cpu time      1.1638: real time      1.1697

 eigenvalue-minimisations  :    72
 total energy-change (2. order) : 0.1545749E+00  (-0.2682302E-01)
 number of electron      22.0000000 magnetization 
 augmentation part        0.4987927 magnetization 

 Broyden mixing:
  rms(total) = 0.43468E-01    rms(broyden)= 0.43462E-01
  rms(prec ) = 0.73349E-01
  weight for this iteration     100.00

 eigenvalues of (default mixing * dielectric matrix)
  average eigenvalue GAMMA=   1.6228
  2.3651  0.9198  1.5834

 Free energy of the ion-electron system (eV)
  ---------------------------------------------------
  alpha Z        PSCENC =         0.62641250
  Ewald energy   TEWEN  =       879.32527386
  -Hartree energ DENC   =     -1395.54294313
  -exchange      EXHF   =         0.00000000
  -V(xc)+E(xc)   XCENC  =        72.29918996
  PAW double counting   =       296.22572906     -301.55198717
  entropy T*S    EENTRO =        -0.00000000
  eigenvalues    EBANDS =      -271.34036802
  atomic energy  EATOM  =       663.51739852
  Solvation  Ediel_sol  =         0.00000000
  ---------------------------------------------------
  free energy    TOTEN  =       -56.44129441 eV

  energy without entropy =      -56.44129441  energy(sigma->0) =      -56.44129441


--------------------------------------------------------------------------------------------------------




--------------------------------------- Iteration      1(   9)  ---------------------------------------


    POTLOK:  cpu time      0.3117: real time      0.3134
    SETDIJ:  cpu time      0.1937: real time      0.1946
     EDDAV:  cpu time      0.3689: real time      0.3709
       DOS:  cpu time      0.0001: real time      0.0001
    CHARGE:  cpu time      0.1948: real time      0.1956
    MIXING:  cpu time      0.0153: real time      0.0153
    --------------------------------------------
      LOOP:  cpu time      1.0846: real time      1.0899

 eigenvalue-minimisations  :    56
 total energy-change (2. order) : 0.2592446E-01  (-0.4404907E-02)
 number of electron      22.0000000 magnetization 
 augmentation part        0.4962212 magnetization 

 Broyden mixing:
  rms(total) = 0.22630E-01    rms(broyden)= 0.22627E-01
  rms(prec ) = 0.46122E-01
  weight for this iteration     100.00

 eigenvalues of (default mixing * dielectric matrix)
  average eigenvalue GAMMA=   1.4784
  2.2725  1.5937  1.0237  1.0237

 Free energy of the ion-electron system (eV)
  ---------------------------------------------------
  alpha Z        PSCENC =         0.62641250
  Ewald energy   TEWEN  =       879.32527386
  -Hartree energ DENC   =     -1400.62646333
  -exchange      EXHF   =         0.00000000
  -V(xc)+E(xc)   XCENC  =        72.55650225
  PAW double counting   =       300.74603622     -306.07390349
  entropy T*S    EENTRO =        -0.00000000
  eigenvalues    EBANDS =      -266.48662649
  atomic energy  EATOM  =       663.51739852
  Solvation  Ediel_sol  =         0.00000000
  ---------------------------------------------------
  free energy    TOTEN  =       -56.41536995 eV

  energy without entropy =      -56.41536995  energy(sigma->0) =      -56.41536995


--------------------------------------------------------------------------------------------------------




--------------------------------------- Iteration      1(  10)  ---------------------------------------


    POTLOK:  cpu time      0.3127: real time      0.3144
    SETDIJ:  cpu time      0.1928: real time      0.1936
     EDDAV:  cpu time      0.4095: real time      0.4118
       DOS:  cpu time      0.0001: real time      0.0001
    CHARGE:  cpu time      0.1936: real time      0.1944
    MIXING:  cpu time      0.0155: real time      0.0155
    --------------------------------------------
      LOOP:  cpu time      1.1241: real time      1.1298

 eigenvalue-minimisations  :    64
 total energy-change (2. order) : 0.6042065E-02  (-0.1850298E-02)
 number of electron      22.0000000 magnetization 
 augmentation part        0.4943591 magnetization 

 Broyden mixing:
  rms(total) = 0.17114E-01    rms(broyden)= 0.17111E-01
  rms(prec ) = 0.33076E-01
  weight for this iteration     100.00

 eigenvalues of (default mixing * dielectric matrix)
  average eigenvalue GAMMA=   1.6239
  2.4021  2.4021  1.0474  1.0474  1.2204

 Free energy of the ion-electron system (eV)
  ---------------------------------------------------
  alpha Z        PSCENC =         0.62641250
  Ewald energy   TEWEN  =       879.32527386
  -Hartree energ DENC   =     -1403.85515643
  -exchange      EXHF   =         0.00000000
  -V(xc)+E(xc)   XCENC  =        72.63163855
  PAW double counting   =       300.50496938     -305.84038535
  entropy T*S    EENTRO =        -0.00000000
  eigenvalues    EBANDS =      -263.31947891
  atomic energy  EATOM  =       663.51739852
  Solvation  Ediel_sol  =         0.00000000
  ---------------------------------------------------
  free energy    TOTEN  =       -56.40932788 eV

  energy without entropy =      -56.40932788  energy(sigma->0) =      -56.40932788


--------------------------------------------------------------------------------------------------------




--------------------------------------- Iteration      1(  11)  ---------------------------------------


    POTLOK:  cpu time      0.3125: real time      0.3142
    SETDIJ:  cpu time      0.1927: real time      0.1936
     EDDAV:  cpu time      0.4079: real time      0.4101
       DOS:  cpu time      0.0001: real time      0.0001
    CHARGE:  cpu time      0.1944: real time      0.1952
    MIXING:  cpu time      0.0159: real time      0.0160
    --------------------------------------------
      LOOP:  cpu time      1.1236: real time      1.1292

 eigenvalue-minimisations  :    64
 total energy-change (2. order) : 0.7347503E-02  (-0.4205347E-03)
 number of electron      22.0000000 magnetization 
 augmentation part        0.4941931 magnetization 

 Broyden mixing:
  rms(total) = 0.75005E-02    rms(broyden)= 0.75003E-02
  rms(prec ) = 0.18208E-01
  weight for this iteration     100.00

 eigenvalues of (default mixing * dielectric matrix)
  average eigenvalue GAMMA=   1.6616
  2.9859  2.4609  1.3176  0.9723  1.1166  1.1166

 Free energy of the ion-electron system (eV)
  ---------------------------------------------------
  alpha Z        PSCENC =         0.62641250
  Ewald energy   TEWEN  =       879.32527386
  -Hartree energ DENC   =     -1406.93358495
  -exchange      EXHF   =         0.00000000
  -V(xc)+E(xc)   XCENC  =        72.70834467
  PAW double counting   =       299.10410790     -304.42429597
  entropy T*S    EENTRO =        -0.00000000
  eigenvalues    EBANDS =      -260.32563692
  atomic energy  EATOM  =       663.51739852
  Solvation  Ediel_sol  =         0.00000000
  ---------------------------------------------------
  free energy    TOTEN  =       -56.40198038 eV

  energy without entropy =      -56.40198038  energy(sigma->0) =      -56.40198038


--------------------------------------------------------------------------------------------------------




--------------------------------------- Iteration      1(  12)  ---------------------------------------


    POTLOK:  cpu time      0.3130: real time      0.3147
    SETDIJ:  cpu time      0.1902: real time      0.1910
     EDDAV:  cpu time      0.4098: real time      0.4120
       DOS:  cpu time      0.0001: real time      0.0001
    CHARGE:  cpu time      0.2014: real time      0.2022
    MIXING:  cpu time      0.0090: real time      0.0091
    --------------------------------------------
      LOOP:  cpu time      1.1236: real time      1.1291

 eigenvalue-minimisations  :    64
 total energy-change (2. order) : 0.4940349E-03  (-0.1866043E-03)
 number of electron      22.0000000 magnetization 
 augmentation part        0.4940169 magnetization 

 Broyden mixing:
  rms(total) = 0.51603E-02    rms(broyden)= 0.51602E-02
  rms(prec ) = 0.11754E-01
  weight for this iteration     100.00

 eigenvalues of (default mixing * dielectric matrix)
  average eigenvalue GAMMA=   1.8114
  4.1766  2.4416  1.7689  1.3547  1.0353  1.0353  0.8674

 Free energy of the ion-electron system (eV)
  ---------------------------------------------------
  alpha Z        PSCENC =         0.62641250
  Ewald energy   TEWEN  =       879.32527386
  -Hartree energ DENC   =     -1408.78970744
  -exchange      EXHF   =         0.00000000
  -V(xc)+E(xc)   XCENC  =        72.74479771
  PAW double counting   =       298.69196274     -304.01085542
  entropy T*S    EENTRO =        -0.00000000
  eigenvalues    EBANDS =      -258.50676882
  atomic energy  EATOM  =       663.51739852
  Solvation  Ediel_sol  =         0.00000000
  ---------------------------------------------------
  free energy    TOTEN  =       -56.40148635 eV

  energy without entropy =      -56.40148635  energy(sigma->0) =      -56.40148635


--------------------------------------------------------------------------------------------------------




--------------------------------------- Iteration      1(  13)  ---------------------------------------


    POTLOK:  cpu time      0.3067: real time      0.3084
    SETDIJ:  cpu time      0.1907: real time      0.1916
     EDDAV:  cpu time      0.3254: real time      0.3272
       DOS:  cpu time      0.0001: real time      0.0001
    CHARGE:  cpu time      0.1944: real time      0.1951
    MIXING:  cpu time      0.0150: real time      0.0151
    --------------------------------------------
      LOOP:  cpu time      1.0324: real time      1.0375

 eigenvalue-minimisations  :    48
 total energy-change (2. order) :-0.6713872E-02  (-0.1044736E-03)
 number of electron      22.0000000 magnetization 
 augmentation part        0.4937813 magnetization 

 Broyden mixing:
  rms(total) = 0.33769E-02    rms(broyden)= 0.33766E-02
  rms(prec ) = 0.73734E-02
  weight for this iteration     100.00

 eigenvalues of (default mixing * dielectric matrix)
  average eigenvalue GAMMA=   1.9328
  4.7995  2.5142  2.3047  1.5134  1.3988  1.0271  1.0271  0.8777

 Free energy of the ion-electron system (eV)
  ---------------------------------------------------
  alpha Z        PSCENC =         0.62641250
  Ewald energy   TEWEN  =       879.32527386
  -Hartree energ DENC   =     -1409.90317833
  -exchange      EXHF   =         0.00000000
  -V(xc)+E(xc)   XCENC  =        72.75577723
  PAW double counting   =       298.61748593     -303.93855376
  entropy T*S    EENTRO =        -0.00000000
  eigenvalues    EBANDS =      -257.40881617
  atomic energy  EATOM  =       663.51739852
  Solvation  Ediel_sol  =         0.00000000
  ---------------------------------------------------
  free energy    TOTEN  =       -56.40820022 eV

  energy without entropy =      -56.40820022  energy(sigma->0) =      -56.40820022


--------------------------------------------------------------------------------------------------------




--------------------------------------- Iteration      1(  14)  ---------------------------------------


    POTLOK:  cpu time      0.3094: real time      0.3110
    SETDIJ:  cpu time      0.1907: real time      0.1914
     EDDAV:  cpu time      0.4095: real time      0.4117
       DOS:  cpu time      0.0001: real time      0.0001
    CHARGE:  cpu time      0.2013: real time      0.2021
    MIXING:  cpu time      0.0093: real time      0.0093
    --------------------------------------------
      LOOP:  cpu time      1.1203: real time      1.1257

 eigenvalue-minimisations  :    64
 total energy-change (2. order) :-0.8367317E-02  (-0.1283179E-03)
 number of electron      22.0000000 magnetization 
 augmentation part        0.4937576 magnetization 

 Broyden mixing:
  rms(total) = 0.17887E-02    rms(broyden)= 0.17885E-02
  rms(prec ) = 0.37967E-02
  weight for this iteration     100.00

 eigenvalues of (default mixing * dielectric matrix)
  average eigenvalue GAMMA=   2.0554
  5.8448  3.1725  2.3366  1.6071  1.3214  1.3214  0.8896  1.0028  1.0028

 Free energy of the ion-electron system (eV)
  ---------------------------------------------------
  alpha Z        PSCENC =         0.62641250
  Ewald energy   TEWEN  =       879.32527386
  -Hartree energ DENC   =     -1410.20263261
  -exchange      EXHF   =         0.00000000
  -V(xc)+E(xc)   XCENC  =        72.74484697
  PAW double counting   =       298.70051150     -304.02155032
  entropy T*S    EENTRO =        -0.00000000
  eigenvalues    EBANDS =      -257.10682797
  atomic energy  EATOM  =       663.51739852
  Solvation  Ediel_sol  =         0.00000000
  ---------------------------------------------------
  free energy    TOTEN  =       -56.41656753 eV

  energy without entropy =      -56.41656753  energy(sigma->0) =      -56.41656753


--------------------------------------------------------------------------------------------------------




--------------------------------------- Iteration      1(  15)  ---------------------------------------


    POTLOK:  cpu time      0.3027: real time      0.3045
    SETDIJ:  cpu time      0.1914: real time      0.1922
     EDDAV:  cpu time      0.4066: real time      0.4088
       DOS:  cpu time      0.0001: real time      0.0001
    CHARGE:  cpu time      0.2011: real time      0.2019
    MIXING:  cpu time      0.0090: real time      0.0090
    --------------------------------------------
      LOOP:  cpu time      1.1109: real time      1.1164

 eigenvalue-minimisations  :    64
 total energy-change (2. order) :-0.3466887E-02  (-0.4510958E-04)
 number of electron      22.0000000 magnetization 
 augmentation part        0.4937482 magnetization 

 Broyden mixing:
  rms(total) = 0.13176E-02    rms(broyden)= 0.13175E-02
  rms(prec ) = 0.23160E-02
  weight for this iteration     100.00

 eigenvalues of (default mixing * dielectric matrix)
  average eigenvalue GAMMA=   2.1401
  6.4167  3.7061  2.2042  2.2042  1.3945  1.3945  0.9034  1.1197  1.0291  1.0291

 Free energy of the ion-electron system (eV)
  ---------------------------------------------------
  alpha Z        PSCENC =         0.62641250
  Ewald energy   TEWEN  =       879.32527386
  -Hartree energ DENC   =     -1410.29709220
  -exchange      EXHF   =         0.00000000
  -V(xc)+E(xc)   XCENC  =        72.73709632
  PAW double counting   =       298.65576715     -303.97614354
  entropy T*S    EENTRO =        -0.00000000
  eigenvalues    EBANDS =      -257.00874703
  atomic energy  EATOM  =       663.51739852
  Solvation  Ediel_sol  =         0.00000000
  ---------------------------------------------------
  free energy    TOTEN  =       -56.42003442 eV

  energy without entropy =      -56.42003442  energy(sigma->0) =      -56.42003442


--------------------------------------------------------------------------------------------------------




--------------------------------------- Iteration      1(  16)  ---------------------------------------


    POTLOK:  cpu time      0.2999: real time      0.3016
    SETDIJ:  cpu time      0.1914: real time      0.1923
     EDDAV:  cpu time      0.3668: real time      0.3688
       DOS:  cpu time      0.0002: real time      0.0002
    CHARGE:  cpu time      0.1987: real time      0.1996
    MIXING:  cpu time      0.0132: real time      0.0133
    --------------------------------------------
      LOOP:  cpu time      1.0703: real time      1.0756

 eigenvalue-minimisations  :    56
 total energy-change (2. order) :-0.2036781E-02  (-0.2518079E-04)
 number of electron      22.0000000 magnetization 
 augmentation part        0.4936963 magnetization 

 Broyden mixing:
  rms(total) = 0.55911E-03    rms(broyden)= 0.55896E-03
  rms(prec ) = 0.10753E-02
  weight for this iteration     100.00

 eigenvalues of (default mixing * dielectric matrix)
  average eigenvalue GAMMA=   2.2219
  7.4789  4.3147  2.4588  2.2724  1.4112  1.2884  1.2884  1.0362  1.0362  0.9281
  0.9281

 Free energy of the ion-electron system (eV)
  ---------------------------------------------------
  alpha Z        PSCENC =         0.62641250
  Ewald energy   TEWEN  =       879.32527386
  -Hartree energ DENC   =     -1410.32733349
  -exchange      EXHF   =         0.00000000
  -V(xc)+E(xc)   XCENC  =        72.73371752
  PAW double counting   =       298.68718603     -304.00752424
  entropy T*S    EENTRO =        -0.00000000
  eigenvalues    EBANDS =      -256.97720190
  atomic energy  EATOM  =       663.51739852
  Solvation  Ediel_sol  =         0.00000000
  ---------------------------------------------------
  free energy    TOTEN  =       -56.42207120 eV

  energy without entropy =      -56.42207120  energy(sigma->0) =      -56.42207120


--------------------------------------------------------------------------------------------------------




--------------------------------------- Iteration      1(  17)  ---------------------------------------


    POTLOK:  cpu time      0.2982: real time      0.2999
    SETDIJ:  cpu time      0.1913: real time      0.1921
     EDDAV:  cpu time      0.4479: real time      0.4503
       DOS:  cpu time      0.0001: real time      0.0001
    CHARGE:  cpu time      0.2002: real time      0.2009
    MIXING:  cpu time      0.0117: real time      0.0118
    --------------------------------------------
      LOOP:  cpu time      1.1495: real time      1.1551

 eigenvalue-minimisations  :    72
 total energy-change (2. order) :-0.5005397E-03  (-0.3257154E-05)
 number of electron      22.0000000 magnetization 
 augmentation part        0.4936738 magnetization 

 Broyden mixing:
  rms(total) = 0.40036E-03    rms(broyden)= 0.40029E-03
  rms(prec ) = 0.73279E-03
  weight for this iteration     100.00

 eigenvalues of (default mixing * dielectric matrix)
  average eigenvalue GAMMA=   2.3204
  8.2285  4.7594  2.5847  2.5847  1.5814  1.5814  0.9077  1.1894  1.1707  1.1707
  1.0428  1.0428

 Free energy of the ion-electron system (eV)
  ---------------------------------------------------
  alpha Z        PSCENC =         0.62641250
  Ewald energy   TEWEN  =       879.32527386
  -Hartree energ DENC   =     -1410.34287838
  -exchange      EXHF   =         0.00000000
  -V(xc)+E(xc)   XCENC  =        72.73343976
  PAW double counting   =       298.69710285     -304.01735703
  entropy T*S    EENTRO =        -0.00000000
  eigenvalues    EBANDS =      -256.96196383
  atomic energy  EATOM  =       663.51739852
  Solvation  Ediel_sol  =         0.00000000
  ---------------------------------------------------
  free energy    TOTEN  =       -56.42257174 eV

  energy without entropy =      -56.42257174  energy(sigma->0) =      -56.42257174


--------------------------------------------------------------------------------------------------------




--------------------------------------- Iteration      1(  18)  ---------------------------------------


    POTLOK:  cpu time      0.2953: real time      0.2969
    SETDIJ:  cpu time      0.1907: real time      0.1915
     EDDAV:  cpu time      0.3681: real time      0.3702
       DOS:  cpu time      0.0001: real time      0.0001
    CHARGE:  cpu time      0.1980: real time      0.1988
    MIXING:  cpu time      0.0116: real time      0.0117
    --------------------------------------------
      LOOP:  cpu time      1.0639: real time      1.0691

 eigenvalue-minimisations  :    56
 total energy-change (2. order) :-0.4325421E-03  (-0.2994450E-05)
 number of electron      22.0000000 magnetization 
 augmentation part        0.4936770 magnetization 

 Broyden mixing:
  rms(total) = 0.23690E-03    rms(broyden)= 0.23682E-03
  rms(prec ) = 0.38627E-03
  weight for this iteration     100.00

 eigenvalues of (default mixing * dielectric matrix)
  average eigenvalue GAMMA=   2.2943
  8.3635  5.0722  3.0520  2.3965  2.0825  1.2100  1.2100  1.2646  1.2129  0.8963
  1.0598  1.0031  1.0031

 Free energy of the ion-electron system (eV)
  ---------------------------------------------------
  alpha Z        PSCENC =         0.62641250
  Ewald energy   TEWEN  =       879.32527386
  -Hartree energ DENC   =     -1410.34111424
  -exchange      EXHF   =         0.00000000
  -V(xc)+E(xc)   XCENC  =        72.73247860
  PAW double counting   =       298.66393078     -303.98420983
  entropy T*S    EENTRO =        -0.00000000
  eigenvalues    EBANDS =      -256.96317448
  atomic energy  EATOM  =       663.51739852
  Solvation  Ediel_sol  =         0.00000000
  ---------------------------------------------------
  free energy    TOTEN  =       -56.42300428 eV

  energy without entropy =      -56.42300428  energy(sigma->0) =      -56.42300428


--------------------------------------------------------------------------------------------------------




--------------------------------------- Iteration      1(  19)  ---------------------------------------


    POTLOK:  cpu time      0.2950: real time      0.2966
    SETDIJ:  cpu time      0.1901: real time      0.1909
     EDDAV:  cpu time      0.3675: real time      0.3695
       DOS:  cpu time      0.0001: real time      0.0001
    CHARGE:  cpu time      0.1996: real time      0.2004
    MIXING:  cpu time      0.0121: real time      0.0122
    --------------------------------------------
      LOOP:  cpu time      1.0643: real time      1.0696

 eigenvalue-minimisations  :    56
 total energy-change (2. order) :-0.8033209E-04  (-0.3007737E-06)
 number of electron      22.0000000 magnetization 
 augmentation part        0.4936695 magnetization 

 Broyden mixing:
  rms(total) = 0.13759E-03    rms(broyden)= 0.13753E-03
  rms(prec ) = 0.24092E-03
  weight for this iteration     100.00

 eigenvalues of (default mixing * dielectric matrix)
  average eigenvalue GAMMA=   2.3558
  8.7712  5.3347  3.4261  2.4489  2.4489  1.5456  1.4115  1.4115  1.1454  1.1454
  1.0252  1.0252  0.9553  0.8860

 Free energy of the ion-electron system (eV)
  ---------------------------------------------------
  alpha Z        PSCENC =         0.62641250
  Ewald energy   TEWEN  =       879.32527386
  -Hartree energ DENC   =     -1410.36049611
  -exchange      EXHF   =         0.00000000
  -V(xc)+E(xc)   XCENC  =        72.73323299
  PAW double counting   =       298.67393000     -303.99427595
  entropy T*S    EENTRO =        -0.00000000
  eigenvalues    EBANDS =      -256.94456043
  atomic energy  EATOM  =       663.51739852
  Solvation  Ediel_sol  =         0.00000000
  ---------------------------------------------------
  free energy    TOTEN  =       -56.42308462 eV

  energy without entropy =      -56.42308462  energy(sigma->0) =      -56.42308462


--------------------------------------------------------------------------------------------------------




--------------------------------------- Iteration      1(  20)  ---------------------------------------


    POTLOK:  cpu time      0.2977: real time      0.2993
    SETDIJ:  cpu time      0.1916: real time      0.1924
     EDDAV:  cpu time      0.3693: real time      0.3713
       DOS:  cpu time      0.0001: real time      0.0001
    CHARGE:  cpu time      0.1994: real time      0.2002
    MIXING:  cpu time      0.0139: real time      0.0139
    --------------------------------------------
      LOOP:  cpu time      1.0720: real time      1.0773

 eigenvalue-minimisations  :    56
 total energy-change (2. order) :-0.7173783E-04  (-0.2515628E-06)
 number of electron      22.0000000 magnetization 
 augmentation part        0.4936737 magnetization 

 Broyden mixing:
  rms(total) = 0.11607E-03    rms(broyden)= 0.11599E-03
  rms(prec ) = 0.16521E-03
  weight for this iteration     100.00

 eigenvalues of (default mixing * dielectric matrix)
  average eigenvalue GAMMA=   2.3120
  8.6826  5.5942  3.6128  2.5345  2.2972  2.0302  1.2572  1.2572  1.3682  1.0320
  1.0320  0.8954  0.9714  1.0573  1.0573

 Free energy of the ion-electron system (eV)
  ---------------------------------------------------
  alpha Z        PSCENC =         0.62641250
  Ewald energy   TEWEN  =       879.32527386
  -Hartree energ DENC   =     -1410.35579783
  -exchange      EXHF   =         0.00000000
  -V(xc)+E(xc)   XCENC  =        72.73284658
  PAW double counting   =       298.67300675     -303.99334814
  entropy T*S    EENTRO =        -0.00000000
  eigenvalues    EBANDS =      -256.94894860
  atomic energy  EATOM  =       663.51739852
  Solvation  Ediel_sol  =         0.00000000
  ---------------------------------------------------
  free energy    TOTEN  =       -56.42315635 eV

  energy without entropy =      -56.42315635  energy(sigma->0) =      -56.42315635


--------------------------------------------------------------------------------------------------------




--------------------------------------- Iteration      1(  21)  ---------------------------------------


    POTLOK:  cpu time      0.3029: real time      0.3044
    SETDIJ:  cpu time      0.1915: real time      0.1924
     EDDAV:  cpu time      0.4096: real time      0.4119
       DOS:  cpu time      0.0001: real time      0.0001
    CHARGE:  cpu time      0.1982: real time      0.1990
    MIXING:  cpu time      0.0133: real time      0.0134
    --------------------------------------------
      LOOP:  cpu time      1.1156: real time      1.1211

 eigenvalue-minimisations  :    64
 total energy-change (2. order) :-0.1623572E-04  (-0.3832692E-07)
 number of electron      22.0000000 magnetization 
 augmentation part        0.4936741 magnetization 

 Broyden mixing:
  rms(total) = 0.52924E-04    rms(broyden)= 0.52790E-04
  rms(prec ) = 0.83364E-04
  weight for this iteration     100.00

 eigenvalues of (default mixing * dielectric matrix)
  average eigenvalue GAMMA=   2.3595
  8.9339  5.9079  4.1019  2.8067  2.4070  2.1951  1.3391  1.3391  1.4559  1.3109
  1.0543  1.0543  1.0047  1.0047  0.9074  0.9289

 Free energy of the ion-electron system (eV)
  ---------------------------------------------------
  alpha Z        PSCENC =         0.62641250
  Ewald energy   TEWEN  =       879.32527386
  -Hartree energ DENC   =     -1410.35923644
  -exchange      EXHF   =         0.00000000
  -V(xc)+E(xc)   XCENC  =        72.73282953
  PAW double counting   =       298.67040096     -303.99070794
  entropy T*S    EENTRO =        -0.00000000
  eigenvalues    EBANDS =      -256.94554358
  atomic energy  EATOM  =       663.51739852
  Solvation  Ediel_sol  =         0.00000000
  ---------------------------------------------------
  free energy    TOTEN  =       -56.42317259 eV

  energy without entropy =      -56.42317259  energy(sigma->0) =      -56.42317259


--------------------------------------------------------------------------------------------------------




--------------------------------------- Iteration      1(  22)  ---------------------------------------


    POTLOK:  cpu time      0.3077: real time      0.3093
    SETDIJ:  cpu time      0.1905: real time      0.1914
     EDDAV:  cpu time      0.3716: real time      0.3736
       DOS:  cpu time      0.0001: real time      0.0001
    CHARGE:  cpu time      0.2008: real time      0.2016
    MIXING:  cpu time      0.0124: real time      0.0125
    --------------------------------------------
      LOOP:  cpu time      1.0831: real time      1.0885

 eigenvalue-minimisations  :    56
 total energy-change (2. order) :-0.1216869E-04  (-0.2781152E-07)
 number of electron      22.0000000 magnetization 
 augmentation part        0.4936740 magnetization 

 Broyden mixing:
  rms(total) = 0.41750E-04    rms(broyden)= 0.41581E-04
  rms(prec ) = 0.57843E-04
  weight for this iteration     100.00

 eigenvalues of (default mixing * dielectric matrix)
  average eigenvalue GAMMA=   2.3524
  8.9916  6.1152  4.3963  2.9196  2.4337  2.0359  2.0359  1.2993  1.2993  1.4221
  1.0792  1.0792  1.0120  1.0120  1.0401  0.9099  0.9099

 Free energy of the ion-electron system (eV)
  ---------------------------------------------------
  alpha Z        PSCENC =         0.62641250
  Ewald energy   TEWEN  =       879.32527386
  -Hartree energ DENC   =     -1410.36054127
  -exchange      EXHF   =         0.00000000
  -V(xc)+E(xc)   XCENC  =        72.73279083
  PAW double counting   =       298.67242663     -303.99274213
  entropy T*S    EENTRO =        -0.00000000
  eigenvalues    EBANDS =      -256.94420369
  atomic energy  EATOM  =       663.51739852
  Solvation  Ediel_sol  =         0.00000000
  ---------------------------------------------------
  free energy    TOTEN  =       -56.42318476 eV

  energy without entropy =      -56.42318476  energy(sigma->0) =      -56.42318476


--------------------------------------------------------------------------------------------------------




--------------------------------------- Iteration      1(  23)  ---------------------------------------


    POTLOK:  cpu time      0.3092: real time      0.3109
    SETDIJ:  cpu time      0.1908: real time      0.1916
     EDDAV:  cpu time      0.4106: real time      0.4128
       DOS:  cpu time      0.0001: real time      0.0001
    CHARGE:  cpu time      0.1994: real time      0.2002
    MIXING:  cpu time      0.0132: real time      0.0133
    --------------------------------------------
      LOOP:  cpu time      1.1233: real time      1.1289

 eigenvalue-minimisations  :    64
 total energy-change (2. order) :-0.3851659E-05  (-0.6806790E-08)
 number of electron      22.0000000 magnetization 
 augmentation part        0.4936737 magnetization 

 Broyden mixing:
  rms(total) = 0.12908E-04    rms(broyden)= 0.12371E-04
  rms(prec ) = 0.22977E-04
  weight for this iteration     100.00

 eigenvalues of (default mixing * dielectric matrix)
  average eigenvalue GAMMA=   2.3922
  9.0881  6.5281  4.8204  3.2657  2.5243  2.4156  1.8983  1.3065  1.3065  1.4600
  1.4600  1.0726  1.0726  1.0084  1.0084  0.8971  0.9307  0.9967

 Free energy of the ion-electron system (eV)
  ---------------------------------------------------
  alpha Z        PSCENC =         0.62641250
  Ewald energy   TEWEN  =       879.32527386
  -Hartree energ DENC   =     -1410.36209814
  -exchange      EXHF   =         0.00000000
  -V(xc)+E(xc)   XCENC  =        72.73285333
  PAW double counting   =       298.67315197     -303.99348045
  entropy T*S    EENTRO =        -0.00000000
  eigenvalues    EBANDS =      -256.94270021
  atomic energy  EATOM  =       663.51739852
  Solvation  Ediel_sol  =         0.00000000
  ---------------------------------------------------
  free energy    TOTEN  =       -56.42318861 eV

  energy without entropy =      -56.42318861  energy(sigma->0) =      -56.42318861


--------------------------------------------------------------------------------------------------------




--------------------------------------- Iteration      1(  24)  ---------------------------------------


    POTLOK:  cpu time      0.3095: real time      0.3112
    SETDIJ:  cpu time      0.1915: real time      0.1924
     EDDAV:  cpu time      0.3691: real time      0.3712
       DOS:  cpu time      0.0001: real time      0.0001
    CHARGE:  cpu time      0.1973: real time      0.1981
    MIXING:  cpu time      0.0142: real time      0.0142
    --------------------------------------------
      LOOP:  cpu time      1.0818: real time      1.0872

 eigenvalue-minimisations  :    56
 total energy-change (2. order) :-0.2059496E-05  (-0.4928820E-08)
 number of electron      22.0000000 magnetization 
 augmentation part        0.4936734 magnetization 

 Broyden mixing:
  rms(total) = 0.10143E-04    rms(broyden)= 0.94517E-05
  rms(prec ) = 0.15382E-04
  weight for this iteration     100.00

 eigenvalues of (default mixing * dielectric matrix)
  average eigenvalue GAMMA=   2.4105
  9.1205  6.7417  5.0582  3.5432  2.6541  2.4853  1.9432  1.9432  1.2965  1.2965
  1.3452  1.3452  1.0753  1.0753  1.0160  1.0160  0.8959  0.9404  1.0086

 Free energy of the ion-electron system (eV)
  ---------------------------------------------------
  alpha Z        PSCENC =         0.62641250
  Ewald energy   TEWEN  =       879.32527386
  -Hartree energ DENC   =     -1410.36210352
  -exchange      EXHF   =         0.00000000
  -V(xc)+E(xc)   XCENC  =        72.73283946
  PAW double counting   =       298.67296105     -303.99328656
  entropy T*S    EENTRO =        -0.00000000
  eigenvalues    EBANDS =      -256.94268598
  atomic energy  EATOM  =       663.51739852
  Solvation  Ediel_sol  =         0.00000000
  ---------------------------------------------------
  free energy    TOTEN  =       -56.42319067 eV

  energy without entropy =      -56.42319067  energy(sigma->0) =      -56.42319067


--------------------------------------------------------------------------------------------------------




--------------------------------------- Iteration      1(  25)  ---------------------------------------


    POTLOK:  cpu time      0.3121: real time      0.3138
    SETDIJ:  cpu time      0.1910: real time      0.1918
     EDDAV:  cpu time      0.4123: real time      0.4146
       DOS:  cpu time      0.0001: real time      0.0001
    --------------------------------------------
      LOOP:  cpu time      0.9155: real time      0.9202

 eigenvalue-minimisations  :    64
 total energy-change (2. order) :-0.9764601E-06  (-0.2166651E-08)
 number of electron      22.0000000 magnetization 
 augmentation part        0.4936734 magnetization 

 Free energy of the ion-electron system (eV)
  ---------------------------------------------------
  alpha Z        PSCENC =         0.62641250
  Ewald energy   TEWEN  =       879.32527386
  -Hartree energ DENC   =     -1410.36209172
  -exchange      EXHF   =         0.00000000
  -V(xc)+E(xc)   XCENC  =        72.73283259
  PAW double counting   =       298.67234057     -303.99266053
  entropy T*S    EENTRO =        -0.00000000
  eigenvalues    EBANDS =      -256.94269745
  atomic energy  EATOM  =       663.51739852
  Solvation  Ediel_sol  =         0.00000000
  ---------------------------------------------------
  free energy    TOTEN  =       -56.42319165 eV

  energy without entropy =      -56.42319165  energy(sigma->0) =      -56.42319165


--------------------------------------------------------------------------------------------------------




 average (electrostatic) potential at core
  the test charge radii are     0.6991  0.5201
  (the norm of the test charge is              1.0000)
       1 -58.5628       2 -58.8005       3 -58.8289       4 -58.6433       5 -41.5713
       6 -42.2260       7 -41.9327       8 -41.9915       9 -42.3316      10 -41.7914
 
 
 
 E-fermi :  -5.2943     XC(G=0):  -0.4433     alpha+bet : -0.1681

 Fermi energy:        -5.2943453948

 k-point     1 :       0.0000    0.0000    0.0000
  band No.  band energies     occupation 
      1     -19.8750      2.00000
      2     -17.6862      2.00000
      3     -15.2786      2.00000
      4     -12.8421      2.00000
      5     -11.8928      2.00000
      6     -10.6205      2.00000
      7      -9.9407      2.00000
      8      -8.8382      2.00000
      9      -8.2634      2.00000
     10      -7.6512      2.00000
     11      -5.5826      2.00000
     12      -2.1728      0.00000
     13      -0.4406      0.00000
     14       0.0596      0.00000
     15       0.2174      0.00000
     16       0.3345      0.00000
     17       0.4427      0.00000
     18       0.4726      0.00000
     19       0.5447      0.00000
     20       0.7280      0.00000
     21       0.8753      0.00000
     22       0.9416      0.00000
     23       1.0077      0.00000
     24       1.1176      0.00000


--------------------------------------------------------------------------------------------------------


 soft charge-density along one line, spin component           1
         0         1         2         3         4         5         6         7         8         9
 total charge-density along one line
 
 pseudopotential strength for first ion, spin component:           1
 10.255   0.020   0.002  -0.002   0.000   0.002  -0.002   0.001
  0.020  -0.001  -0.000   0.000  -0.000   0.000  -0.000   0.000
  0.002  -0.000  -4.369   0.004  -0.010  -0.019   0.001  -0.003
 -0.002   0.000   0.004  -4.361   0.002   0.001  -0.018   0.000
  0.000  -0.000  -0.010   0.002  -4.350  -0.003   0.000  -0.015
  0.002   0.000  -0.019   0.001  -0.003  -0.773   0.000  -0.000
 -0.002  -0.000   0.001  -0.018   0.000   0.000  -0.773   0.000
  0.001   0.000  -0.003   0.000  -0.015  -0.000   0.000  -0.772
 total augmentation occupancy for first ion, spin component:           1
  1.498  -1.117  -0.049   0.058  -0.017  -0.028   0.021  -0.012
 -1.117   0.933   0.122  -0.073   0.054   0.051  -0.029   0.021
 -0.049   0.122   1.212  -0.055   0.146   0.210  -0.016   0.055
  0.058  -0.073  -0.055   1.180  -0.025  -0.016   0.193  -0.006
 -0.017   0.054   0.146  -0.025   0.978   0.055  -0.006   0.115
 -0.028   0.051   0.210  -0.016   0.055   0.040  -0.005   0.014
  0.021  -0.029  -0.016   0.193  -0.006  -0.005   0.034  -0.002
 -0.012   0.021   0.055  -0.006   0.115   0.014  -0.002   0.016


------------------------ aborting loop because EDIFF is reached ----------------------------------------


    CHARGE:  cpu time      0.1916: real time      0.1924
    FORLOC:  cpu time      0.0360: real time      0.0361
    FORNL :  cpu time      1.0761: real time      1.0811
    STRESS:  cpu time      3.4064: real time      3.4224
    FORHAR:  cpu time      0.1088: real time      0.1094
    MIXING:  cpu time      0.0119: real time      0.0120
    OFIELD:  cpu time      0.0001: real time      0.0001

  FORCE on cell =-STRESS in cart. coord.  units (eV):
  Direction    XX          YY          ZZ          XY          YZ          ZX
  --------------------------------------------------------------------------------------
  Alpha Z     0.62641     0.62641     0.62641
  Ewald    -151.70958   360.27289   670.76162    90.16123   -19.65669  -120.25080
  Hartree   225.48839   462.08949   722.78446    41.39027    -7.12660   -82.33310
  E(xc)     -77.66774   -75.78609   -75.62825     0.31566    -0.01658    -0.15956
  Local    -295.19722 -1006.82953 -1583.35434  -124.55356    23.08903   201.43543
  n-local   -28.40251   -31.30249   -30.68180    -0.39948     0.34456     0.07573
  augment    -0.52941    -0.72397    -0.65629    -0.04250     0.03034     0.00075
  Kinetic   327.42242   291.09384   293.79792    -5.91956    -1.72392     0.90046
  Fock        0.00000     0.00000     0.00000     0.00000     0.00000     0.00000
  -------------------------------------------------------------------------------------
  Total       0.03076    -0.55946    -2.35025     0.95205    -5.05986    -0.33110
  in kB       0.01460    -0.26559    -1.11571     0.45196    -2.40201    -0.15718
  external pressure =       -0.46 kB  Pullay stress =        0.00 kB


 VOLUME and BASIS-vectors are now :
 -----------------------------------------------------------------------------
  energy-cutoff  :      520.00
  volume of cell :     3375.00
      direct lattice vectors                 reciprocal lattice vectors
    15.000000000  0.000000000  0.000000000     0.066666667  0.000000000  0.000000000
     0.000000000 15.000000000  0.000000000     0.000000000  0.066666667  0.000000000
     0.000000000  0.000000000 15.000000000     0.000000000  0.000000000  0.066666667

  length of vectors
    15.000000000 15.000000000 15.000000000     0.066666667  0.066666667  0.066666667


 FORCES acting on ions
    electron-ion (+dipol)            ewald-force                    non-local-force                 convergence-correction
 -----------------------------------------------------------------------------------------------
   -.506E+02 -.102E+03 0.103E+03   0.514E+02 0.103E+03 -.105E+03   -.501E+00 -.817E+00 -.137E+01   -.130E-04 -.535E-05 0.326E-04
   0.271E+02 0.868E+02 0.588E+02   -.278E+02 -.878E+02 -.590E+02   0.677E-01 -.392E+00 0.106E+01   0.354E-05 0.315E-04 -.238E-04
   0.772E+00 0.787E+02 -.517E+02   -.912E+00 -.768E+02 0.543E+02   -.604E+00 0.679E+00 0.874E+00   0.462E-05 0.529E-04 -.345E-05
   0.205E+02 -.688E+02 -.113E+03   -.204E+02 0.669E+02 0.112E+03   0.655E+00 -.247E+01 -.131E+01   0.851E-05 0.444E-04 -.259E-05
   -.169E+01 -.412E+01 0.661E+02   0.171E+01 0.411E+01 -.702E+02   0.323E+00 0.560E+00 0.511E+01   -.967E-06 0.829E-06 0.551E-05
   -.296E+02 -.588E+02 -.625E+01   0.320E+02 0.639E+02 0.873E+01   -.237E+01 -.495E+01 -.216E+01   -.195E-05 0.358E-05 0.647E-05
   0.183E+02 0.569E+02 0.385E+02   -.197E+02 -.607E+02 -.411E+02   0.143E+01 0.440E+01 0.281E+01   -.384E-06 -.250E-06 -.139E-05
   -.800E-02 0.661E+02 -.277E+02   0.101E+00 -.719E+02 0.301E+02   0.133E-01 0.544E+01 -.219E+01   0.121E-05 -.138E-04 0.444E-05
   0.119E+02 -.641E+02 -.342E+01   -.128E+02 0.711E+02 0.168E+01   0.856E+00 -.598E+01 0.162E+01   0.317E-05 -.256E-05 -.848E-06
   0.335E+01 0.107E+02 -.640E+02   -.351E+01 -.120E+02 0.684E+02   0.956E-01 0.183E+01 -.507E+01   0.104E-05 0.691E-05 -.105E-04
 -----------------------------------------------------------------------------------------------
   0.296E-01 0.170E+01 0.632E+00   -.266E-14 0.355E-13 -.284E-13   -.298E-01 -.169E+01 -.625E+00   0.580E-05 0.118E-03 0.647E-05
 
 
 POSITION                                       TOTAL-FORCE (eV/Angst)
 -----------------------------------------------------------------------------------
      7.93900      8.03000      6.05200         0.290628      0.700786     -3.148768
      7.48400      6.98100      6.69100        -0.649771     -1.419749      0.860256
      7.38000      6.86300      8.11600        -0.743568      2.568600      3.454799
      7.18200      7.89200      9.11200         0.732521     -4.395009     -2.000504
      7.88200      7.92900      4.92900         0.344048      0.554180      0.955700
      8.36400      8.93600      6.46000        -0.010388      0.162465      0.314503
      7.18600      6.07500      6.11700         0.083726      0.535691      0.229982
      7.38200      5.85400      8.51000         0.105878     -0.353750      0.175786
      7.04200      8.90800      8.84600        -0.092126      1.055607     -0.121983
      7.15800      7.53100     10.16700        -0.060948      0.591180     -0.719770
 -----------------------------------------------------------------------------------
    total drift:                               -0.000217      0.004558      0.006920


--------------------------------------------------------------------------------------------------------



  FREE ENERGIE OF THE ION-ELECTRON SYSTEM (eV)
  ---------------------------------------------------
  free  energy   TOTEN  =       -56.42319165 eV

  energy  without entropy=      -56.42319165  energy(sigma->0) =      -56.42319165
 


--------------------------------------------------------------------------------------------------------


    POTLOK:  cpu time      0.5040: real time      0.5065


--------------------------------------------------------------------------------------------------------


 stress matrix after NEB project (eV)
      0.03076      0.95205     -0.33110
      0.95205     -0.55946     -5.05986
     -0.33110     -5.05986     -2.35025
  FORCES: max atom, RMS     4.884128    2.461636
  FORCE total and by dimension    7.784376    4.395009
  Stress total and by dimension    7.685964    5.059861
     LOOP+:  cpu time     30.1731: real time     30.3232
    4ORBIT:  cpu time      0.0000: real time      0.0000

 total amount of memory used by VASP MPI-rank0   224784. kBytes
=======================================================================

   base      :      30000. kBytes
   nonlr-proj:       1260. kBytes
   fftplans  :     123538. kBytes
   grid      :      67787. kBytes
   one-center:         15. kBytes
   wavefun   :       2184. kBytes
 
  
  
 General timing and accounting informations for this job:
 ========================================================
  
                  Total CPU time used (sec):       36.733
                            User time (sec):       33.551
                          System time (sec):        3.183
                         Elapsed time (sec):       37.797
  
                   Maximum memory used (kb):      561404.
                   Average memory used (kb):          N/A
  
                          Minor page faults:       160621
                          Major page faults:         5465
                 Voluntary context switches:         3138
