 vasp.6.4.2 20Jul23 (build Apr 10 2024 13:39:58) complex                        
  
 executed on             LinuxIFC date 2024.05.16  23:39:23
 running   16 mpi-ranks, on    1 nodes
 distrk:  each k-point on   16 cores,    1 groups
 distr:  one band on NCORE=   2 cores,    8 groups


--------------------------------------------------------------------------------------------------------


 INCAR:
   ISTART = 0
   ISPIN = 1
   LREAL = Auto
   ENCUT = 520
   NPAR = 8
   LPLANE = .TRUE.
   LSCALU = .FALSE.
   NSIM = 4
   LWAVE = .FALSE.
   LCHARG = .FALSE.
   ADDGRID = .TRUE.
   LASPH = .TRUE.
   PREC = Accurate
   ISMEAR = 0
   SIGMA = 0.05
   EDIFF = 1E-06
   NSW = 0
   TEBEG = 300
   TEEND = 700     	
   ISYM = 0
   NWRITE = 2

 POTCAR:   PAW_PBE C 08Apr2002                    
 POTCAR:   PAW_PBE H 15Jun2001                    
 POTCAR:   PAW_PBE C 08Apr2002                    
   VRHFIN =C: s2p2                                                                                  
   LEXCH  = PE                                                                                      
   EATOM  =   147.1560 eV,   10.8157 Ry                                                             
                                                                                                    
   TITEL  = PAW_PBE C 08Apr2002                                                                     
   LULTRA =        F    use ultrasoft PP ?                                                          
   IUNSCR =        0    unscreen: 0-lin 1-nonlin 2-no                                               
   RPACOR =     .000    partial core radius                                                         
   POMASS =   12.011; ZVAL   =    4.000    mass and valenz                                          
   RCORE  =    1.500    outmost cutoff radius                                                       
   RWIGS  =    1.630; RWIGS  =     .863    wigner-seitz radius (au A)                               
   ENMAX  =  400.000; ENMIN  =  300.000 eV                                                          
   ICORE  =        2    local potential                                                             
   LCOR   =        T    correct aug charges                                                         
   LPAW   =        T    paw PP                                                                      
   EAUG   =  644.873                                                                                
   DEXC   =     .000                                                                                
   RMAX   =    2.266    core radius for proj-oper                                                   
   RAUG   =    1.300    factor for augmentation sphere                                              
   RDEP   =    1.501    radius for radial grids                                                     
   RDEPT  =    1.300    core radius for aug-charge                                                  
   QCUT   =   -5.516; QGAM   =   11.032    optimization parameters                                  
                                                                                                    
   Description                                                                                      
     l     E      TYP  RCUT    TYP  RCUT                                                            
     0   .000     23  1.200                                                                         
     0   .000     23  1.200                                                                         
     1   .000     23  1.500                                                                         
     1  2.500     23  1.500                                                                         
     2   .000      7  1.500                                                                         
  local pseudopotential read in
  atomic valenz-charges read in
  non local Contribution for L=           0  read in
    real space projection operators read in
  non local Contribution for L=           0  read in
    real space projection operators read in
  non local Contribution for L=           1  read in
    real space projection operators read in
  non local Contribution for L=           1  read in
    real space projection operators read in
    PAW grid and wavefunctions read in
 
   number of l-projection  operators is LMAX  =           4
   number of lm-projection operators is LMMAX =           8
 
 POTCAR:   PAW_PBE H 15Jun2001                    
   VRHFIN =H: ultrasoft test                                                                        
   LEXCH  = PE                                                                                      
   EATOM  =    12.4884 eV,     .9179 Ry                                                             
                                                                                                    
   TITEL  = PAW_PBE H 15Jun2001                                                                     
   LULTRA =        F    use ultrasoft PP ?                                                          
   IUNSCR =        0    unscreen: 0-lin 1-nonlin 2-no                                               
   RPACOR =     .000    partial core radius                                                         
   POMASS =    1.000; ZVAL   =    1.000    mass and valenz                                          
   RCORE  =    1.100    outmost cutoff radius                                                       
   RWIGS  =     .700; RWIGS  =     .370    wigner-seitz radius (au A)                               
   ENMAX  =  250.000; ENMIN  =  200.000 eV                                                          
   RCLOC  =     .701    cutoff for local pot                                                        
   LCOR   =        T    correct aug charges                                                         
   LPAW   =        T    paw PP                                                                      
   EAUG   =  400.000                                                                                
   RMAX   =    2.174    core radius for proj-oper                                                   
   RAUG   =    1.200    factor for augmentation sphere                                              
   RDEP   =    1.112    radius for radial grids                                                     
   QCUT   =   -5.749; QGAM   =   11.498    optimization parameters                                  
                                                                                                    
   Description                                                                                      
     l     E      TYP  RCUT    TYP  RCUT                                                            
     0   .000     23  1.100                                                                         
     0   .500     23  1.100                                                                         
     1  -.300     23  1.100                                                                         
  local pseudopotential read in
  atomic valenz-charges read in
  non local Contribution for L=           0  read in
    real space projection operators read in
  non local Contribution for L=           0  read in
    real space projection operators read in
  non local Contribution for L=           1  read in
    real space projection operators read in
    PAW grid and wavefunctions read in
 
   number of l-projection  operators is LMAX  =           3
   number of lm-projection operators is LMMAX =           5
 
 Optimization of the real space projectors (new method)

 maximal supplied QI-value         = 25.13
 optimisation between [QCUT,QGAM] = [ 11.56, 23.12] = [ 37.43,149.72] Ry 
 Optimized for a Real-space Cutoff    1.04 Angstroem

   l    n(q)    QCUT    max X(q) W(low)/X(q) W(high)/X(q)  e(spline) 
   0      7    11.561     5.582    0.47E-04    0.94E-04    0.17E-07
   0      7    11.561    69.432    0.20E-03    0.59E-03    0.21E-06
   1      7    11.561     2.780    0.24E-04    0.70E-04    0.44E-07
   1      7    11.561     4.549    0.18E-03    0.25E-03    0.12E-06
 Optimization of the real space projectors (new method)

 maximal supplied QI-value         = 34.20
 optimisation between [QCUT,QGAM] = [ 11.63, 23.26] = [ 37.87,151.49] Ry 
 Optimized for a Real-space Cutoff    1.21 Angstroem

   l    n(q)    QCUT    max X(q) W(low)/X(q) W(high)/X(q)  e(spline) 
   0      8    11.629     4.436    0.19E-04    0.32E-04    0.47E-07
   0      8    11.629    16.131    0.16E-03    0.33E-03    0.21E-06
   1      8    11.629     4.654    0.18E-03    0.16E-03    0.26E-06
 PAW_PBE C 08Apr2002                    :
 energy of atom  1       EATOM= -147.1560
 kinetic energy error for atom=    0.0071 (will be added to EATOM!!)
 PAW_PBE H 15Jun2001                    :
 energy of atom  2       EATOM=  -12.4884
 kinetic energy error for atom=    0.0014 (will be added to EATOM!!)
 
 
 POSCAR:  C  H
  positions in cartesian coordinates
  No initial velocities read in
 exchange correlation table for  LEXCH =        8
   RHO(1)=    0.500       N(1)  =     2000
   RHO(2)=  100.500       N(2)  =     4000

 VTST: version 4.1, (05/19/21)

 CHAIN: initializing optimizer
 
 OPT: Using VASP Dynamics algorithm
 CHAIN: Read ICHAIN            0
 
 POSCAR:  C  H
  positions in cartesian coordinates
  No initial velocities read in
 


--------------------------------------------------------------------------------------------------------


 ion  position               nearest neighbor table
   1  0.538  0.506  0.385-   6 1.08   5 1.11   2 1.35
   2  0.480  0.503  0.454-   7 1.09   1 1.35   3 1.43
   3  0.509  0.501  0.546-   8 1.06   4 1.33   2 1.43
   4  0.463  0.493  0.621-   9 1.10  10 1.11   3 1.33
   5  0.511  0.509  0.317-   1 1.11
   6  0.610  0.510  0.387-   1 1.08
   7  0.410  0.497  0.440-   2 1.09
   8  0.580  0.500  0.545-   3 1.06
   9  0.390  0.489  0.625-   4 1.10
  10  0.507  0.493  0.680-   4 1.11
 

IMPORTANT INFORMATION: All symmetrisations will be switched off!
NOSYMM: (Re-)initialisation of all symmetry stuff for point group C_1.


----------------------------------------------------------------------------------------

                                     Primitive cell                                     

  volume of cell :    3375.0000

  direct lattice vectors                    reciprocal lattice vectors
    15.000000000  0.000000000  0.000000000     0.066666667  0.000000000  0.000000000
     0.000000000 15.000000000  0.000000000     0.000000000  0.066666667  0.000000000
     0.000000000  0.000000000 15.000000000     0.000000000  0.000000000  0.066666667

  length of vectors
    15.000000000 15.000000000 15.000000000     0.066666667  0.066666667  0.066666667

  position of ions in fractional coordinates (direct lattice)
     0.538400014  0.505933348  0.385333347
     0.480466652  0.503266652  0.454399999
     0.509466680  0.501333332  0.545533307
     0.463266659  0.492599996  0.620866648
     0.510933336  0.509266663  0.316799990
     0.609999975  0.509799989  0.387466653
     0.409799989  0.496866671  0.439533329
     0.580133311  0.499666659  0.545000013
     0.390466658  0.488600000  0.624533335
     0.507000001  0.492599996  0.680466652

  ion indices of the primitive-cell ions
   primitive index   ion index
                 1           1
                 2           2
                 3           3
                 4           4
                 5           5
                 6           6
                 7           7
                 8           8
                 9           9
                10          10

----------------------------------------------------------------------------------------

 
 
 KPOINTS: K-Spacing Value to Generate K-Mesh: 1.00

Automatic generation of k-mesh.
 Grid dimensions read from file:
 generate k-points for:    1    1    1

 Generating k-lattice:

  Cartesian coordinates                     Fractional coordinates (reciprocal lattice)
     0.066666667  0.000000000  0.000000000     1.000000000  0.000000000  0.000000000
     0.000000000  0.066666667  0.000000000     0.000000000  1.000000000  0.000000000
     0.000000000  0.000000000  0.066666667     0.000000000  0.000000000  1.000000000

  Length of vectors
     0.066666667  0.066666667  0.066666667

  Shift w.r.t. Gamma in fractional coordinates (k-lattice)
     0.000000000  0.000000000  0.000000000

 
 Subroutine IBZKPT returns following result:
 ===========================================
 
 Found      1 irreducible k-points:
 
 Following reciprocal coordinates:
            Coordinates               Weight
  0.000000  0.000000  0.000000      1.000000
 
 Following cartesian coordinates:
            Coordinates               Weight
  0.000000  0.000000  0.000000      1.000000
 


--------------------------------------------------------------------------------------------------------




 Dimension of arrays:
   k-points           NKPTS =      1   k-points in BZ     NKDIM =      1   number of bands    NBANDS=     24
   number of dos      NEDOS =    301   number of ions     NIONS =     10
   non local maximal  LDIM  =      4   non local SUM 2l+1 LMDIM =      8
   total plane-waves  NPLWV = ******
   max r-space proj   IRMAX =   3145   max aug-charges    IRDMAX=  39494
   dimension x,y,z NGX =   112 NGY =  112 NGZ =  112
   dimension x,y,z NGXF=   224 NGYF=  224 NGZF=  224
   support grid    NGXF=   448 NGYF=  448 NGZF=  448
   ions per type =               4   6
   NGX,Y,Z   is equivalent  to a cutoff of  12.41, 12.41, 12.41 a.u.
   NGXF,Y,Z  is equivalent  to a cutoff of  24.83, 24.83, 24.83 a.u.

 SYSTEM =  unknown system                          
 POSCAR =   C  H                                   

 Startparameter for this run:
   NWRITE =      2    write-flag & timer
   PREC   = accura    normal or accurate (medium, high low for compatibility)
   ISTART =      0    job   : 0-new  1-cont  2-samecut
   ICHARG =      2    charge: 1-file 2-atom 10-const
   ISPIN  =      1    spin polarized calculation?
   LNONCOLLINEAR =      F non collinear calculations
   LSORBIT =      F    spin-orbit coupling
   INIWAV =      1    electr: 0-lowe 1-rand  2-diag
   LASPH  =      T    aspherical Exc in radial PAW
 Electronic Relaxation 1
   ENCUT  =  520.0 eV  38.22 Ry    6.18 a.u.  27.89 27.89 27.89*2*pi/ulx,y,z
   ENINI  =  520.0     initial cutoff
   ENAUG  =  644.9 eV  augmentation charge cutoff
   NELM   =     60;   NELMIN=  2; NELMDL= -5     # of ELM steps 
   EDIFF  = 0.1E-05   stopping-criterion for ELM
   LREAL  =      T    real-space projection
   NLSPLINE    = F    spline interpolate recip. space projectors
   LCOMPAT=      F    compatible to vasp.4.4
   GGA_COMPAT  = T    GGA compatible to vasp.4.4-vasp.4.6
   LMAXPAW     = -100 max onsite density
   LMAXMIX     =    2 max onsite mixed and CHGCAR
   VOSKOWN=      0    Vosko Wilk Nusair interpolation
   ROPT   =   -0.00025  -0.00025
 Ionic relaxation
   EDIFFG = 0.1E-04   stopping-criterion for IOM
   NSW    =      0    number of steps for IOM
   NBLOCK =      1;   KBLOCK =      1    inner block; outer block 
   IBRION =     -1    ionic relax: 0-MD 1-quasi-New 2-CG
   NFREE  =      0    steps in history (QN), initial steepest desc. (CG)
   ISIF   =      2    stress and relaxation
   IWAVPR =     10    prediction:  0-non 1-charg 2-wave 3-comb
   ISYM   =      0    0-nonsym 1-usesym 2-fastsym
   LCORR  =      T    Harris-Foulkes like correction to forces

   POTIM  = 0.5000    time-step for ionic-motion
   TEIN   =    0.0    initial temperature
   TEBEG  =  300.0;   TEEND  = 700.0 temperature during run
   SMASS  =  -3.00    Nose mass-parameter (am)
   estimated Nose-frequenzy (Omega)   =  0.10E-29 period in steps = 0.13E+47 mass=  -0.514E-26a.u.
   SCALEE = 1.0000    scale energy and forces
   NPACO  =    256;   APACO  = 10.0  distance and # of slots for P.C.
   PSTRESS=    0.0 pullay stress

  Mass of Ions in am
   POMASS =  12.01  1.00
  Ionic Valenz
   ZVAL   =   4.00  1.00
  Atomic Wigner-Seitz radii
   RWIGS  =  -1.00 -1.00
  virtual crystal weights 
   VCA    =   1.00  1.00
   NELECT =      22.0000    total number of electrons
   NUPDOWN=      -1.0000    fix difference up-down

 DOS related values:
   EMIN   =  10.00;   EMAX   =-10.00  energy-range for DOS
   EFERMI =   0.00;   METHOD = LEGACY      
   ISMEAR =     0;   SIGMA  =   0.05  broadening in eV -4-tet -1-fermi 0-gaus

 Electronic relaxation 2 (details)
   IALGO  =     38    algorithm
   LDIAG  =      T    sub-space diagonalisation (order eigenvalues)
   LSUBROT=      F    optimize rotation matrix (better conditioning)
   TURBO    =      0    0=normal 1=particle mesh
   IRESTART =      0    0=no restart 2=restart with 2 vectors
   NREBOOT  =      0    no. of reboots
   NMIN     =      0    reboot dimension
   EREF     =   0.00    reference energy to select bands
   IMIX   =      4    mixing-type and parameters
     AMIX     =   0.40;   BMIX     =  1.00
     AMIX_MAG =   1.60;   BMIX_MAG =  1.00
     AMIN     =   0.10
     WC   =   100.;   INIMIX=   1;  MIXPRE=   1;  MAXMIX= -45

 Intra band minimization:
   WEIMIN = 0.0000     energy-eigenvalue tresh-hold
   EBREAK =  0.10E-07  absolut break condition
   DEPER  =   0.30     relativ break condition  

   TIME   =   0.40     timestep for ELM

  volume/ion in A,a.u.               =     337.50      2277.56
  Fermi-wavevector in a.u.,A,eV,Ry     =   0.305814  0.577905  1.272449  0.093522
  Thomas-Fermi vector in A             =   1.179187
 
 Write flags
   LWAVE        =      F    write WAVECAR
   LDOWNSAMPLE  =      F    k-point downsampling of WAVECAR
   LCHARG       =      F    write CHGCAR
   LVTOT        =      F    write LOCPOT, total local potential
   LVHAR        =      F    write LOCPOT, Hartree potential only
   LELF         =      F    write electronic localiz. function (ELF)
   LORBIT       =      0    0 simple, 1 ext, 2 COOP (PROOUT), +10 PAW based schemes


 Dipole corrections
   LMONO  =      F    monopole corrections only (constant potential shift)
   LDIPOL =      F    correct potential (dipole corrections)
   IDIPOL =      0    1-x, 2-y, 3-z, 4-all directions 
   EPSILON=  1.0000000 bulk dielectric constant

 Exchange correlation treatment:
   GGA     =    --    GGA type
   LEXCH   =     8    internal setting for exchange type
   LIBXC   =     F    Libxc                    
   VOSKOWN =     0    Vosko Wilk Nusair interpolation
   LHFCALC =     F    Hartree Fock is set to
   LHFONE  =     F    Hartree Fock one center treatment
   AEXX    =    0.0000 exact exchange contribution

 Linear response parameters
   LEPSILON=     F    determine dielectric tensor
   LRPA    =     F    only Hartree local field effects (RPA)
   LNABLA  =     F    use nabla operator in PAW spheres
   LVEL    =     F    velocity operator in full k-point grid
   CSHIFT  =0.1000    complex shift for real part using Kramers Kronig
   OMEGAMAX=  -1.0    maximum frequency
   DEG_THRESHOLD= 0.2000000E-02 threshold for treating states as degnerate
   RTIME   =   -0.100 relaxation time in fs
  (WPLASMAI=    0.000 imaginary part of plasma frequency in eV, 0.658/RTIME)
   DFIELD  = 0.0000000 0.0000000 0.0000000 field for delta impulse in time
 
  Optional k-point grid parameters
   LKPOINTS_OPT  =     F    use optional k-point grid
   KPOINTS_OPT_MODE=     1    mode for optional k-point grid
 
 Orbital magnetization related:
   ORBITALMAG=     F  switch on orbital magnetization
   LCHIMAG   =     F  perturbation theory with respect to B field
   DQ        =  0.001000  dq finite difference perturbation B field
   LLRAUG    =     F  two centre corrections for induced B field
   LBONE     =     F  B-component reconstruction in AE one-centre
   LVGVCALC  =     T  calculate vGv susceptibility
   LVGVAPPL  =     F  apply vGv susceptibility instead of pGv for G=0

 Random number generation:
   RANDOM_GENERATOR = DEFAULT
   PCG_SEED         = not used


--------------------------------------------------------------------------------------------------------


 Static calculation
 charge density and potential will be updated during run
 non-spin polarized calculation
 Variant of blocked Davidson
 Davidson routine will perform the subspace rotation
 perform sub-space diagonalisation
    after iterative eigenvector-optimisation
 modified Broyden-mixing scheme, WC =      100.0
 initial mixing is a Kerker type mixing with AMIX =  0.4000 and BMIX =      1.0000
 Hartree-type preconditioning will be used
 using additional bands           13
 real space projection scheme for non local part
 calculate Harris-corrections to forces 
   (improved forces if not selfconsistent)
 use gradient corrections 
 use of overlap-Matrix (Vanderbilt PP)
 Gauss-broadening in eV      SIGMA  =   0.05


--------------------------------------------------------------------------------------------------------


  energy-cutoff  :      520.00
  volume of cell :     3375.00
      direct lattice vectors                 reciprocal lattice vectors
    15.000000000  0.000000000  0.000000000     0.066666667  0.000000000  0.000000000
     0.000000000 15.000000000  0.000000000     0.000000000  0.066666667  0.000000000
     0.000000000  0.000000000 15.000000000     0.000000000  0.000000000  0.066666667

  length of vectors
    15.000000000 15.000000000 15.000000000     0.066666667  0.066666667  0.066666667


 
 k-points in units of 2pi/SCALE and weight: K-Spacing Value to Generate K-Mesh: 1.00
   0.00000000  0.00000000  0.00000000       1.000
 
 k-points in reciprocal lattice and weights: K-Spacing Value to Generate K-Mesh: 1.00
   0.00000000  0.00000000  0.00000000       1.000
 
 position of ions in fractional coordinates (direct lattice) 
   0.53840001  0.50593335  0.38533335
   0.48046665  0.50326665  0.45440000
   0.50946668  0.50133333  0.54553331
   0.46326666  0.49260000  0.62086665
   0.51093334  0.50926666  0.31679999
   0.60999997  0.50979999  0.38746665
   0.40979999  0.49686667  0.43953333
   0.58013331  0.49966666  0.54500001
   0.39046666  0.48860000  0.62453334
   0.50700000  0.49260000  0.68046665
 
 position of ions in cartesian coordinates  (Angst):
   8.07600021  7.58900023  5.78000021
   7.20699978  7.54899979  6.81599998
   7.64200020  7.51999998  8.18299961
   6.94899988  7.38899994  9.31299973
   7.66400003  7.63899994  4.75199986
   9.14999962  7.64699984  5.81199980
   6.14699984  7.45300007  6.59299994
   8.70199966  7.49499989  8.17500019
   5.85699987  7.32900000  9.36800003
   7.60500002  7.38899994 10.20699978
 


--------------------------------------------------------------------------------------------------------


 k-point   1 :   0.0000 0.0000 0.0000  plane waves:   90879

 maximum and minimum number of plane-waves per node :     45467    45412

 maximum number of plane-waves:     90879
 maximum index in each direction: 
   IXMAX=   27   IYMAX=   27   IZMAX=   27
   IXMIN=  -27   IYMIN=  -27   IZMIN=  -27


 real space projection operators:
  total allocation   :       1184.38 KBytes
  max/ min on nodes  :        592.95        591.43


 parallel 3D FFT for wavefunctions:
    minimum data exchange during FFTs selected (reduces bandwidth)
 parallel 3D FFT for charge:
    minimum data exchange during FFTs selected (reduces bandwidth)


 total amount of memory used by VASP MPI-rank0   224780. kBytes
=======================================================================

   base      :      30000. kBytes
   nonlr-proj:       1256. kBytes
   fftplans  :     123538. kBytes
   grid      :      67787. kBytes
   one-center:         15. kBytes
   wavefun   :       2184. kBytes
 
     INWAV:  cpu time      0.0000: real time      0.0000
 Broyden mixing: mesh for mixing (old mesh)
   NGX = 55   NGY = 55   NGZ = 55
  (NGX  =224   NGY  =224   NGZ  =224)
  gives a total of 166375 points

 initial charge density was supplied:
 charge density of overlapping atoms calculated
 number of electron      22.0000000 magnetization 
 keeping initial charge density in first step


--------------------------------------------------------------------------------------------------------


 Maximum index for non-local projection operator         1513
 Maximum index for augmentation-charges         2495 (set IRDMAX)


--------------------------------------------------------------------------------------------------------


 First call to EWALD:  gamma=   0.118
 Maximum number of real-space cells 3x 3x 3
 Maximum number of reciprocal cells 3x 3x 3

    FEWALD:  cpu time      0.0010: real time      0.0010


--------------------------------------- Ionic step        1  -------------------------------------------




--------------------------------------- Iteration      1(   1)  ---------------------------------------


    POTLOK:  cpu time      0.3394: real time      0.3415
    SETDIJ:  cpu time      0.1926: real time      0.1934
     EDDAV:  cpu time      0.4233: real time      0.4256
       DOS:  cpu time      0.0002: real time      0.0002
    --------------------------------------------
      LOOP:  cpu time      0.9555: real time      0.9607

 eigenvalue-minimisations  :    64
 total energy-change (2. order) : 0.1061441E+03  (-0.5309545E+03)
 number of electron      22.0000000 magnetization 
 augmentation part       22.0000000 magnetization 

 Free energy of the ion-electron system (eV)
  ---------------------------------------------------
  alpha Z        PSCENC =         0.62641250
  Ewald energy   TEWEN  =       884.00953973
  -Hartree energ DENC   =     -1304.82300753
  -exchange      EXHF   =         0.00000000
  -V(xc)+E(xc)   XCENC  =        67.42876327
  PAW double counting   =       156.01372664     -160.66969168
  entropy T*S    EENTRO =        -0.00272496
  eigenvalues    EBANDS =      -199.95628657
  atomic energy  EATOM  =       663.51739852
  Solvation  Ediel_sol  =         0.00000000
  ---------------------------------------------------
  free energy    TOTEN  =       106.14412993 eV

  energy without entropy =      106.14685489  energy(sigma->0) =      106.14549241


--------------------------------------------------------------------------------------------------------




--------------------------------------- Iteration      1(   2)  ---------------------------------------


     EDDAV:  cpu time      0.4901: real time      0.4928
       DOS:  cpu time      0.0001: real time      0.0001
    --------------------------------------------
      LOOP:  cpu time      0.4902: real time      0.4929

 eigenvalue-minimisations  :    80
 total energy-change (2. order) :-0.1283293E+03  (-0.1262817E+03)
 number of electron      22.0000000 magnetization 
 augmentation part       22.0000000 magnetization 

 Free energy of the ion-electron system (eV)
  ---------------------------------------------------
  alpha Z        PSCENC =         0.62641250
  Ewald energy   TEWEN  =       884.00953973
  -Hartree energ DENC   =     -1304.82300753
  -exchange      EXHF   =         0.00000000
  -V(xc)+E(xc)   XCENC  =        67.42876327
  PAW double counting   =       156.01372664     -160.66969168
  entropy T*S    EENTRO =        -0.00000000
  eigenvalues    EBANDS =      -328.28834265
  atomic energy  EATOM  =       663.51739852
  Solvation  Ediel_sol  =         0.00000000
  ---------------------------------------------------
  free energy    TOTEN  =       -22.18520119 eV

  energy without entropy =      -22.18520119  energy(sigma->0) =      -22.18520119


--------------------------------------------------------------------------------------------------------




--------------------------------------- Iteration      1(   3)  ---------------------------------------


     EDDAV:  cpu time      0.4493: real time      0.4518
       DOS:  cpu time      0.0001: real time      0.0001
    --------------------------------------------
      LOOP:  cpu time      0.4494: real time      0.4520

 eigenvalue-minimisations  :    72
 total energy-change (2. order) :-0.3962070E+02  (-0.3954955E+02)
 number of electron      22.0000000 magnetization 
 augmentation part       22.0000000 magnetization 

 Free energy of the ion-electron system (eV)
  ---------------------------------------------------
  alpha Z        PSCENC =         0.62641250
  Ewald energy   TEWEN  =       884.00953973
  -Hartree energ DENC   =     -1304.82300753
  -exchange      EXHF   =         0.00000000
  -V(xc)+E(xc)   XCENC  =        67.42876327
  PAW double counting   =       156.01372664     -160.66969168
  entropy T*S    EENTRO =        -0.00000000
  eigenvalues    EBANDS =      -367.90904038
  atomic energy  EATOM  =       663.51739852
  Solvation  Ediel_sol  =         0.00000000
  ---------------------------------------------------
  free energy    TOTEN  =       -61.80589891 eV

  energy without entropy =      -61.80589891  energy(sigma->0) =      -61.80589891


--------------------------------------------------------------------------------------------------------




--------------------------------------- Iteration      1(   4)  ---------------------------------------


     EDDAV:  cpu time      0.4493: real time      0.4519
       DOS:  cpu time      0.0001: real time      0.0001
    --------------------------------------------
      LOOP:  cpu time      0.4494: real time      0.4520

 eigenvalue-minimisations  :    72
 total energy-change (2. order) :-0.1840535E+01  (-0.1839308E+01)
 number of electron      22.0000000 magnetization 
 augmentation part       22.0000000 magnetization 

 Free energy of the ion-electron system (eV)
  ---------------------------------------------------
  alpha Z        PSCENC =         0.62641250
  Ewald energy   TEWEN  =       884.00953973
  -Hartree energ DENC   =     -1304.82300753
  -exchange      EXHF   =         0.00000000
  -V(xc)+E(xc)   XCENC  =        67.42876327
  PAW double counting   =       156.01372664     -160.66969168
  entropy T*S    EENTRO =        -0.00000000
  eigenvalues    EBANDS =      -369.74957585
  atomic energy  EATOM  =       663.51739852
  Solvation  Ediel_sol  =         0.00000000
  ---------------------------------------------------
  free energy    TOTEN  =       -63.64643439 eV

  energy without entropy =      -63.64643439  energy(sigma->0) =      -63.64643439


--------------------------------------------------------------------------------------------------------




--------------------------------------- Iteration      1(   5)  ---------------------------------------


     EDDAV:  cpu time      0.4505: real time      0.4529
       DOS:  cpu time      0.0001: real time      0.0001
    CHARGE:  cpu time      0.1968: real time      0.1976
    MIXING:  cpu time      0.0154: real time      0.0155
    --------------------------------------------
      LOOP:  cpu time      0.6628: real time      0.6661

 eigenvalue-minimisations  :    72
 total energy-change (2. order) :-0.1570137E-01  (-0.1569764E-01)
 number of electron      22.0000000 magnetization 
 augmentation part        0.5926460 magnetization 

 Broyden mixing:
  rms(total) = 0.12125E+01    rms(broyden)= 0.12123E+01
  rms(prec ) = 0.14522E+01
  weight for this iteration     100.00

 Free energy of the ion-electron system (eV)
  ---------------------------------------------------
  alpha Z        PSCENC =         0.62641250
  Ewald energy   TEWEN  =       884.00953973
  -Hartree energ DENC   =     -1304.82300753
  -exchange      EXHF   =         0.00000000
  -V(xc)+E(xc)   XCENC  =        67.42876327
  PAW double counting   =       156.01372664     -160.66969168
  entropy T*S    EENTRO =        -0.00000000
  eigenvalues    EBANDS =      -369.76527722
  atomic energy  EATOM  =       663.51739852
  Solvation  Ediel_sol  =         0.00000000
  ---------------------------------------------------
  free energy    TOTEN  =       -63.66213576 eV

  energy without entropy =      -63.66213576  energy(sigma->0) =      -63.66213576


--------------------------------------------------------------------------------------------------------




--------------------------------------- Iteration      1(   6)  ---------------------------------------


    POTLOK:  cpu time      0.3113: real time      0.3129
    SETDIJ:  cpu time      0.1936: real time      0.1944
     EDDAV:  cpu time      0.3699: real time      0.3719
       DOS:  cpu time      0.0001: real time      0.0001
    CHARGE:  cpu time      0.1941: real time      0.1949
    MIXING:  cpu time      0.0137: real time      0.0138
    --------------------------------------------
      LOOP:  cpu time      1.0828: real time      1.0881

 eigenvalue-minimisations  :    56
 total energy-change (2. order) : 0.5424949E+01  (-0.7742206E+00)
 number of electron      22.0000000 magnetization 
 augmentation part        0.5427718 magnetization 

 Broyden mixing:
  rms(total) = 0.58239E+00    rms(broyden)= 0.58236E+00
  rms(prec ) = 0.69058E+00
  weight for this iteration     100.00

 eigenvalues of (default mixing * dielectric matrix)
  average eigenvalue GAMMA=   1.6445
  1.6445

 Free energy of the ion-electron system (eV)
  ---------------------------------------------------
  alpha Z        PSCENC =         0.62641250
  Ewald energy   TEWEN  =       884.00953973
  -Hartree energ DENC   =     -1352.82803762
  -exchange      EXHF   =         0.00000000
  -V(xc)+E(xc)   XCENC  =        69.91407577
  PAW double counting   =       232.33162386     -237.56105657
  entropy T*S    EENTRO =        -0.00000000
  eigenvalues    EBANDS =      -318.24714319
  atomic energy  EATOM  =       663.51739852
  Solvation  Ediel_sol  =         0.00000000
  ---------------------------------------------------
  free energy    TOTEN  =       -58.23718699 eV

  energy without entropy =      -58.23718699  energy(sigma->0) =      -58.23718699


--------------------------------------------------------------------------------------------------------




--------------------------------------- Iteration      1(   7)  ---------------------------------------


    POTLOK:  cpu time      0.3131: real time      0.3147
    SETDIJ:  cpu time      0.1888: real time      0.1896
     EDDAV:  cpu time      0.4177: real time      0.4199
       DOS:  cpu time      0.0001: real time      0.0001
    CHARGE:  cpu time      0.1931: real time      0.1939
    MIXING:  cpu time      0.0162: real time      0.0162
    --------------------------------------------
      LOOP:  cpu time      1.1289: real time      1.1344

 eigenvalue-minimisations  :    64
 total energy-change (2. order) : 0.1294397E+01  (-0.4654069E+00)
 number of electron      22.0000000 magnetization 
 augmentation part        0.5080007 magnetization 

 Broyden mixing:
  rms(total) = 0.22525E+00    rms(broyden)= 0.22517E+00
  rms(prec ) = 0.25739E+00
  weight for this iteration     100.00

 eigenvalues of (default mixing * dielectric matrix)
  average eigenvalue GAMMA=   2.0151
  1.8258  2.2043

 Free energy of the ion-electron system (eV)
  ---------------------------------------------------
  alpha Z        PSCENC =         0.62641250
  Ewald energy   TEWEN  =       884.00953973
  -Hartree energ DENC   =     -1392.59253768
  -exchange      EXHF   =         0.00000000
  -V(xc)+E(xc)   XCENC  =        72.19555714
  PAW double counting   =       298.79270184     -304.30167577
  entropy T*S    EENTRO =        -0.00000000
  eigenvalues    EBANDS =      -279.19018662
  atomic energy  EATOM  =       663.51739852
  Solvation  Ediel_sol  =         0.00000000
  ---------------------------------------------------
  free energy    TOTEN  =       -56.94279034 eV

  energy without entropy =      -56.94279034  energy(sigma->0) =      -56.94279034


--------------------------------------------------------------------------------------------------------




--------------------------------------- Iteration      1(   8)  ---------------------------------------


    POTLOK:  cpu time      0.3176: real time      0.3194
    SETDIJ:  cpu time      0.1891: real time      0.1899
     EDDAV:  cpu time      0.4537: real time      0.4561
       DOS:  cpu time      0.0001: real time      0.0001
    CHARGE:  cpu time      0.1929: real time      0.1937
    MIXING:  cpu time      0.0159: real time      0.0159
    --------------------------------------------
      LOOP:  cpu time      1.1694: real time      1.1751

 eigenvalue-minimisations  :    72
 total energy-change (2. order) : 0.1616887E+00  (-0.3887181E-01)
 number of electron      22.0000000 magnetization 
 augmentation part        0.5097563 magnetization 

 Broyden mixing:
  rms(total) = 0.47616E-01    rms(broyden)= 0.47610E-01
  rms(prec ) = 0.77446E-01
  weight for this iteration     100.00

 eigenvalues of (default mixing * dielectric matrix)
  average eigenvalue GAMMA=   1.6227
  2.3692  0.9104  1.5886

 Free energy of the ion-electron system (eV)
  ---------------------------------------------------
  alpha Z        PSCENC =         0.62641250
  Ewald energy   TEWEN  =       884.00953973
  -Hartree energ DENC   =     -1399.63039048
  -exchange      EXHF   =         0.00000000
  -V(xc)+E(xc)   XCENC  =        72.78113545
  PAW double counting   =       304.68727274     -310.02399371
  entropy T*S    EENTRO =        -0.00000000
  eigenvalues    EBANDS =      -272.74847638
  atomic energy  EATOM  =       663.51739852
  Solvation  Ediel_sol  =         0.00000000
  ---------------------------------------------------
  free energy    TOTEN  =       -56.78110162 eV

  energy without entropy =      -56.78110162  energy(sigma->0) =      -56.78110162


--------------------------------------------------------------------------------------------------------




--------------------------------------- Iteration      1(   9)  ---------------------------------------


    POTLOK:  cpu time      0.3179: real time      0.3197
    SETDIJ:  cpu time      0.1895: real time      0.1904
     EDDAV:  cpu time      0.4498: real time      0.4522
       DOS:  cpu time      0.0001: real time      0.0001
    CHARGE:  cpu time      0.1941: real time      0.1949
    MIXING:  cpu time      0.0166: real time      0.0167
    --------------------------------------------
      LOOP:  cpu time      1.1681: real time      1.1739

 eigenvalue-minimisations  :    72
 total energy-change (2. order) : 0.2232134E-01  (-0.5907300E-02)
 number of electron      22.0000000 magnetization 
 augmentation part        0.5066494 magnetization 

 Broyden mixing:
  rms(total) = 0.23816E-01    rms(broyden)= 0.23811E-01
  rms(prec ) = 0.47342E-01
  weight for this iteration     100.00

 eigenvalues of (default mixing * dielectric matrix)
  average eigenvalue GAMMA=   1.4541
  2.3185  1.6052  0.9464  0.9464

 Free energy of the ion-electron system (eV)
  ---------------------------------------------------
  alpha Z        PSCENC =         0.62641250
  Ewald energy   TEWEN  =       884.00953973
  -Hartree energ DENC   =     -1403.82833742
  -exchange      EXHF   =         0.00000000
  -V(xc)+E(xc)   XCENC  =        72.96240517
  PAW double counting   =       308.87998374     -314.24275544
  entropy T*S    EENTRO =        -0.00000000
  eigenvalues    EBANDS =      -268.68342708
  atomic energy  EATOM  =       663.51739852
  Solvation  Ediel_sol  =         0.00000000
  ---------------------------------------------------
  free energy    TOTEN  =       -56.75878027 eV

  energy without entropy =      -56.75878027  energy(sigma->0) =      -56.75878027


--------------------------------------------------------------------------------------------------------




--------------------------------------- Iteration      1(  10)  ---------------------------------------


    POTLOK:  cpu time      0.3188: real time      0.3205
    SETDIJ:  cpu time      0.1892: real time      0.1900
     EDDAV:  cpu time      0.3702: real time      0.3723
       DOS:  cpu time      0.0001: real time      0.0001
    CHARGE:  cpu time      0.1946: real time      0.1954
    MIXING:  cpu time      0.0154: real time      0.0154
    --------------------------------------------
      LOOP:  cpu time      1.0884: real time      1.0938

 eigenvalue-minimisations  :    56
 total energy-change (2. order) : 0.5897315E-02  (-0.2228786E-02)
 number of electron      22.0000000 magnetization 
 augmentation part        0.5046074 magnetization 

 Broyden mixing:
  rms(total) = 0.16001E-01    rms(broyden)= 0.15994E-01
  rms(prec ) = 0.32500E-01
  weight for this iteration     100.00

 eigenvalues of (default mixing * dielectric matrix)
  average eigenvalue GAMMA=   1.7024
  2.6623  2.4652  0.9767  0.9767  1.4313

 Free energy of the ion-electron system (eV)
  ---------------------------------------------------
  alpha Z        PSCENC =         0.62641250
  Ewald energy   TEWEN  =       884.00953973
  -Hartree energ DENC   =     -1407.16084793
  -exchange      EXHF   =         0.00000000
  -V(xc)+E(xc)   XCENC  =        73.04623335
  PAW double counting   =       308.92757392     -314.30025418
  entropy T*S    EENTRO =        -0.00000000
  eigenvalues    EBANDS =      -265.41893887
  atomic energy  EATOM  =       663.51739852
  Solvation  Ediel_sol  =         0.00000000
  ---------------------------------------------------
  free energy    TOTEN  =       -56.75288296 eV

  energy without entropy =      -56.75288296  energy(sigma->0) =      -56.75288296


--------------------------------------------------------------------------------------------------------




--------------------------------------- Iteration      1(  11)  ---------------------------------------


    POTLOK:  cpu time      0.3177: real time      0.3194
    SETDIJ:  cpu time      0.1921: real time      0.1929
     EDDAV:  cpu time      0.3717: real time      0.3737
       DOS:  cpu time      0.0001: real time      0.0001
    CHARGE:  cpu time      0.1947: real time      0.1954
    MIXING:  cpu time      0.0161: real time      0.0162
    --------------------------------------------
      LOOP:  cpu time      1.0924: real time      1.0977

 eigenvalue-minimisations  :    56
 total energy-change (2. order) : 0.1065806E-01  (-0.6817543E-03)
 number of electron      22.0000000 magnetization 
 augmentation part        0.5040947 magnetization 

 Broyden mixing:
  rms(total) = 0.78004E-02    rms(broyden)= 0.77998E-02
  rms(prec ) = 0.16530E-01
  weight for this iteration     100.00

 eigenvalues of (default mixing * dielectric matrix)
  average eigenvalue GAMMA=   1.7709
  3.5357  2.4399  1.5164  1.0474  1.0429  1.0429

 Free energy of the ion-electron system (eV)
  ---------------------------------------------------
  alpha Z        PSCENC =         0.62641250
  Ewald energy   TEWEN  =       884.00953973
  -Hartree energ DENC   =     -1411.28556131
  -exchange      EXHF   =         0.00000000
  -V(xc)+E(xc)   XCENC  =        73.15258399
  PAW double counting   =       307.53364728     -312.89365350
  entropy T*S    EENTRO =        -0.00000000
  eigenvalues    EBANDS =      -261.40259212
  atomic energy  EATOM  =       663.51739852
  Solvation  Ediel_sol  =         0.00000000
  ---------------------------------------------------
  free energy    TOTEN  =       -56.74222490 eV

  energy without entropy =      -56.74222490  energy(sigma->0) =      -56.74222490


--------------------------------------------------------------------------------------------------------




--------------------------------------- Iteration      1(  12)  ---------------------------------------


    POTLOK:  cpu time      0.3156: real time      0.3172
    SETDIJ:  cpu time      0.1910: real time      0.1918
     EDDAV:  cpu time      0.3278: real time      0.3297
       DOS:  cpu time      0.0001: real time      0.0001
    CHARGE:  cpu time      0.1933: real time      0.1940
    MIXING:  cpu time      0.0156: real time      0.0157
    --------------------------------------------
      LOOP:  cpu time      1.0435: real time      1.0486

 eigenvalue-minimisations  :    48
 total energy-change (2. order) :-0.3400108E-02  (-0.1108973E-03)
 number of electron      22.0000000 magnetization 
 augmentation part        0.5038514 magnetization 

 Broyden mixing:
  rms(total) = 0.54204E-02    rms(broyden)= 0.54203E-02
  rms(prec ) = 0.10860E-01
  weight for this iteration     100.00

 eigenvalues of (default mixing * dielectric matrix)
  average eigenvalue GAMMA=   2.0097
  4.6999  2.5687  2.3537  1.4819  1.0053  0.9793  0.9793

 Free energy of the ion-electron system (eV)
  ---------------------------------------------------
  alpha Z        PSCENC =         0.62641250
  Ewald energy   TEWEN  =       884.00953973
  -Hartree energ DENC   =     -1412.80305729
  -exchange      EXHF   =         0.00000000
  -V(xc)+E(xc)   XCENC  =        73.17480055
  PAW double counting   =       307.10989166     -312.46891478
  entropy T*S    EENTRO =        -0.00000000
  eigenvalues    EBANDS =      -259.91169591
  atomic energy  EATOM  =       663.51739852
  Solvation  Ediel_sol  =         0.00000000
  ---------------------------------------------------
  free energy    TOTEN  =       -56.74562500 eV

  energy without entropy =      -56.74562500  energy(sigma->0) =      -56.74562500


--------------------------------------------------------------------------------------------------------




--------------------------------------- Iteration      1(  13)  ---------------------------------------


    POTLOK:  cpu time      0.3119: real time      0.3135
    SETDIJ:  cpu time      0.1918: real time      0.1926
     EDDAV:  cpu time      0.4108: real time      0.4130
       DOS:  cpu time      0.0001: real time      0.0001
    CHARGE:  cpu time      0.1927: real time      0.1935
    MIXING:  cpu time      0.0178: real time      0.0179
    --------------------------------------------
      LOOP:  cpu time      1.1251: real time      1.1306

 eigenvalue-minimisations  :    64
 total energy-change (2. order) :-0.1137763E-01  (-0.2312344E-03)
 number of electron      22.0000000 magnetization 
 augmentation part        0.5039525 magnetization 

 Broyden mixing:
  rms(total) = 0.33408E-02    rms(broyden)= 0.33403E-02
  rms(prec ) = 0.58678E-02
  weight for this iteration     100.00

 eigenvalues of (default mixing * dielectric matrix)
  average eigenvalue GAMMA=   2.0978
  5.2617  2.9803  2.2339  1.8580  1.5026  0.9889  0.9889  0.9683

 Free energy of the ion-electron system (eV)
  ---------------------------------------------------
  alpha Z        PSCENC =         0.62641250
  Ewald energy   TEWEN  =       884.00953973
  -Hartree energ DENC   =     -1413.42696421
  -exchange      EXHF   =         0.00000000
  -V(xc)+E(xc)   XCENC  =        73.16472235
  PAW double counting   =       307.00587523     -312.36333750
  entropy T*S    EENTRO =        -0.00000000
  eigenvalues    EBANDS =      -259.29064927
  atomic energy  EATOM  =       663.51739852
  Solvation  Ediel_sol  =         0.00000000
  ---------------------------------------------------
  free energy    TOTEN  =       -56.75700264 eV

  energy without entropy =      -56.75700264  energy(sigma->0) =      -56.75700264


--------------------------------------------------------------------------------------------------------




--------------------------------------- Iteration      1(  14)  ---------------------------------------


    POTLOK:  cpu time      0.3116: real time      0.3133
    SETDIJ:  cpu time      0.1914: real time      0.1922
     EDDAV:  cpu time      0.3312: real time      0.3330
       DOS:  cpu time      0.0001: real time      0.0001
    CHARGE:  cpu time      0.1946: real time      0.1954
    MIXING:  cpu time      0.0155: real time      0.0156
    --------------------------------------------
      LOOP:  cpu time      1.0445: real time      1.0496

 eigenvalue-minimisations  :    48
 total energy-change (2. order) :-0.5849186E-02  (-0.1054948E-03)
 number of electron      22.0000000 magnetization 
 augmentation part        0.5038187 magnetization 

 Broyden mixing:
  rms(total) = 0.15076E-02    rms(broyden)= 0.15074E-02
  rms(prec ) = 0.28297E-02
  weight for this iteration     100.00

 eigenvalues of (default mixing * dielectric matrix)
  average eigenvalue GAMMA=   2.2166
  6.3823  3.6081  2.2846  2.2846  1.4003  0.9654  0.9654  1.1398  0.9191

 Free energy of the ion-electron system (eV)
  ---------------------------------------------------
  alpha Z        PSCENC =         0.62641250
  Ewald energy   TEWEN  =       884.00953973
  -Hartree energ DENC   =     -1413.68463689
  -exchange      EXHF   =         0.00000000
  -V(xc)+E(xc)   XCENC  =        73.15673087
  PAW double counting   =       307.11487169     -312.47343848
  entropy T*S    EENTRO =        -0.00000000
  eigenvalues    EBANDS =      -259.02972977
  atomic energy  EATOM  =       663.51739852
  Solvation  Ediel_sol  =         0.00000000
  ---------------------------------------------------
  free energy    TOTEN  =       -56.76285182 eV

  energy without entropy =      -56.76285182  energy(sigma->0) =      -56.76285182


--------------------------------------------------------------------------------------------------------




--------------------------------------- Iteration      1(  15)  ---------------------------------------


    POTLOK:  cpu time      0.3060: real time      0.3077
    SETDIJ:  cpu time      0.1914: real time      0.1923
     EDDAV:  cpu time      0.4117: real time      0.4139
       DOS:  cpu time      0.0001: real time      0.0001
    CHARGE:  cpu time      0.1930: real time      0.1937
    MIXING:  cpu time      0.0169: real time      0.0169
    --------------------------------------------
      LOOP:  cpu time      1.1190: real time      1.1246

 eigenvalue-minimisations  :    64
 total energy-change (2. order) :-0.2457001E-02  (-0.3145939E-04)
 number of electron      22.0000000 magnetization 
 augmentation part        0.5038217 magnetization 

 Broyden mixing:
  rms(total) = 0.10074E-02    rms(broyden)= 0.10074E-02
  rms(prec ) = 0.16965E-02
  weight for this iteration     100.00

 eigenvalues of (default mixing * dielectric matrix)
  average eigenvalue GAMMA=   2.2785
  6.9039  4.0786  2.4699  2.0306  1.9494  1.4238  0.9744  0.9744  1.0548  0.9255

 Free energy of the ion-electron system (eV)
  ---------------------------------------------------
  alpha Z        PSCENC =         0.62641250
  Ewald energy   TEWEN  =       884.00953973
  -Hartree energ DENC   =     -1413.65304213
  -exchange      EXHF   =         0.00000000
  -V(xc)+E(xc)   XCENC  =        73.14926521
  PAW double counting   =       307.08693057     -312.44465211
  entropy T*S    EENTRO =        -0.00000000
  eigenvalues    EBANDS =      -259.05716114
  atomic energy  EATOM  =       663.51739852
  Solvation  Ediel_sol  =         0.00000000
  ---------------------------------------------------
  free energy    TOTEN  =       -56.76530883 eV

  energy without entropy =      -56.76530883  energy(sigma->0) =      -56.76530883


--------------------------------------------------------------------------------------------------------




--------------------------------------- Iteration      1(  16)  ---------------------------------------


    POTLOK:  cpu time      0.3048: real time      0.3065
    SETDIJ:  cpu time      0.1928: real time      0.1936
     EDDAV:  cpu time      0.4123: real time      0.4145
       DOS:  cpu time      0.0001: real time      0.0001
    CHARGE:  cpu time      0.1934: real time      0.1942
    MIXING:  cpu time      0.0181: real time      0.0182
    --------------------------------------------
      LOOP:  cpu time      1.1216: real time      1.1271

 eigenvalue-minimisations  :    64
 total energy-change (2. order) :-0.9985270E-03  (-0.8650462E-05)
 number of electron      22.0000000 magnetization 
 augmentation part        0.5037339 magnetization 

 Broyden mixing:
  rms(total) = 0.52876E-03    rms(broyden)= 0.52860E-03
  rms(prec ) = 0.93361E-03
  weight for this iteration     100.00

 eigenvalues of (default mixing * dielectric matrix)
  average eigenvalue GAMMA=   2.2988
  7.5857  4.4936  2.5050  2.5050  1.8736  1.3996  1.1855  0.9738  0.9738  0.8954
  0.8954

 Free energy of the ion-electron system (eV)
  ---------------------------------------------------
  alpha Z        PSCENC =         0.62641250
  Ewald energy   TEWEN  =       884.00953973
  -Hartree energ DENC   =     -1413.77116629
  -exchange      EXHF   =         0.00000000
  -V(xc)+E(xc)   XCENC  =        73.15196384
  PAW double counting   =       307.14311149     -312.50146341
  entropy T*S    EENTRO =        -0.00000000
  eigenvalues    EBANDS =      -258.94210375
  atomic energy  EATOM  =       663.51739852
  Solvation  Ediel_sol  =         0.00000000
  ---------------------------------------------------
  free energy    TOTEN  =       -56.76630735 eV

  energy without entropy =      -56.76630735  energy(sigma->0) =      -56.76630735


--------------------------------------------------------------------------------------------------------




--------------------------------------- Iteration      1(  17)  ---------------------------------------


    POTLOK:  cpu time      0.3037: real time      0.3054
    SETDIJ:  cpu time      0.1901: real time      0.1909
     EDDAV:  cpu time      0.4111: real time      0.4133
       DOS:  cpu time      0.0001: real time      0.0001
    CHARGE:  cpu time      0.1932: real time      0.1940
    MIXING:  cpu time      0.0171: real time      0.0172
    --------------------------------------------
      LOOP:  cpu time      1.1154: real time      1.1210

 eigenvalue-minimisations  :    64
 total energy-change (2. order) :-0.4056191E-03  (-0.2245935E-05)
 number of electron      22.0000000 magnetization 
 augmentation part        0.5037360 magnetization 

 Broyden mixing:
  rms(total) = 0.41542E-03    rms(broyden)= 0.41538E-03
  rms(prec ) = 0.64755E-03
  weight for this iteration     100.00

 eigenvalues of (default mixing * dielectric matrix)
  average eigenvalue GAMMA=   2.3531
  8.1447  4.9133  2.8929  2.3338  1.7394  1.7126  1.5274  0.9839  0.9839  1.0719
  1.0133  0.9198

 Free energy of the ion-electron system (eV)
  ---------------------------------------------------
  alpha Z        PSCENC =         0.62641250
  Ewald energy   TEWEN  =       884.00953973
  -Hartree energ DENC   =     -1413.74628203
  -exchange      EXHF   =         0.00000000
  -V(xc)+E(xc)   XCENC  =        73.15002721
  PAW double counting   =       307.11142860     -312.46975210
  entropy T*S    EENTRO =        -0.00000000
  eigenvalues    EBANDS =      -258.96548541
  atomic energy  EATOM  =       663.51739852
  Solvation  Ediel_sol  =         0.00000000
  ---------------------------------------------------
  free energy    TOTEN  =       -56.76671297 eV

  energy without entropy =      -56.76671297  energy(sigma->0) =      -56.76671297


--------------------------------------------------------------------------------------------------------




--------------------------------------- Iteration      1(  18)  ---------------------------------------


    POTLOK:  cpu time      0.3018: real time      0.3034
    SETDIJ:  cpu time      0.1915: real time      0.1923
     EDDAV:  cpu time      0.3713: real time      0.3733
       DOS:  cpu time      0.0001: real time      0.0001
    CHARGE:  cpu time      0.1937: real time      0.1945
    MIXING:  cpu time      0.0162: real time      0.0163
    --------------------------------------------
      LOOP:  cpu time      1.0746: real time      1.0800

 eigenvalue-minimisations  :    56
 total energy-change (2. order) :-0.2474948E-03  (-0.1419913E-05)
 number of electron      22.0000000 magnetization 
 augmentation part        0.5037474 magnetization 

 Broyden mixing:
  rms(total) = 0.16582E-03    rms(broyden)= 0.16572E-03
  rms(prec ) = 0.30237E-03
  weight for this iteration     100.00

 eigenvalues of (default mixing * dielectric matrix)
  average eigenvalue GAMMA=   2.3424
  8.5073  5.1838  3.1803  2.4949  2.1727  1.4346  1.2083  1.2083  1.2360  0.9787
  0.9787  0.9339  0.9339

 Free energy of the ion-electron system (eV)
  ---------------------------------------------------
  alpha Z        PSCENC =         0.62641250
  Ewald energy   TEWEN  =       884.00953973
  -Hartree energ DENC   =     -1413.74383471
  -exchange      EXHF   =         0.00000000
  -V(xc)+E(xc)   XCENC  =        73.14966218
  PAW double counting   =       307.10034958     -312.45846839
  entropy T*S    EENTRO =        -0.00000000
  eigenvalues    EBANDS =      -258.96801987
  atomic energy  EATOM  =       663.51739852
  Solvation  Ediel_sol  =         0.00000000
  ---------------------------------------------------
  free energy    TOTEN  =       -56.76696047 eV

  energy without entropy =      -56.76696047  energy(sigma->0) =      -56.76696047


--------------------------------------------------------------------------------------------------------




--------------------------------------- Iteration      1(  19)  ---------------------------------------


    POTLOK:  cpu time      0.3036: real time      0.3053
    SETDIJ:  cpu time      0.1906: real time      0.1914
     EDDAV:  cpu time      0.3298: real time      0.3316
       DOS:  cpu time      0.0001: real time      0.0001
    CHARGE:  cpu time      0.1928: real time      0.1936
    MIXING:  cpu time      0.0178: real time      0.0178
    --------------------------------------------
      LOOP:  cpu time      1.0347: real time      1.0398

 eigenvalue-minimisations  :    48
 total energy-change (2. order) :-0.7629213E-04  (-0.2179309E-06)
 number of electron      22.0000000 magnetization 
 augmentation part        0.5037489 magnetization 

 Broyden mixing:
  rms(total) = 0.10782E-03    rms(broyden)= 0.10774E-03
  rms(prec ) = 0.19380E-03
  weight for this iteration     100.00

 eigenvalues of (default mixing * dielectric matrix)
  average eigenvalue GAMMA=   2.3661
  8.6457  5.3805  3.3497  2.3820  2.2633  2.0922  1.4458  1.3625  1.3625  0.9814
  0.9814  1.0245  0.9269  0.9269

 Free energy of the ion-electron system (eV)
  ---------------------------------------------------
  alpha Z        PSCENC =         0.62641250
  Ewald energy   TEWEN  =       884.00953973
  -Hartree energ DENC   =     -1413.74353520
  -exchange      EXHF   =         0.00000000
  -V(xc)+E(xc)   XCENC  =        73.14934958
  PAW double counting   =       307.09048687     -312.44862377
  entropy T*S    EENTRO =        -0.00000000
  eigenvalues    EBANDS =      -258.96806499
  atomic energy  EATOM  =       663.51739852
  Solvation  Ediel_sol  =         0.00000000
  ---------------------------------------------------
  free energy    TOTEN  =       -56.76703676 eV

  energy without entropy =      -56.76703676  energy(sigma->0) =      -56.76703676


--------------------------------------------------------------------------------------------------------




--------------------------------------- Iteration      1(  20)  ---------------------------------------


    POTLOK:  cpu time      0.3090: real time      0.3106
    SETDIJ:  cpu time      0.1904: real time      0.1913
     EDDAV:  cpu time      0.3697: real time      0.3716
       DOS:  cpu time      0.0001: real time      0.0001
    CHARGE:  cpu time      0.1921: real time      0.1929
    MIXING:  cpu time      0.0192: real time      0.0193
    --------------------------------------------
      LOOP:  cpu time      1.0805: real time      1.0858

 eigenvalue-minimisations  :    56
 total energy-change (2. order) :-0.5242289E-04  (-0.1001714E-06)
 number of electron      22.0000000 magnetization 
 augmentation part        0.5037510 magnetization 

 Broyden mixing:
  rms(total) = 0.71526E-04    rms(broyden)= 0.71422E-04
  rms(prec ) = 0.11244E-03
  weight for this iteration     100.00

 eigenvalues of (default mixing * dielectric matrix)
  average eigenvalue GAMMA=   2.3984
  8.8833  5.8052  4.0713  2.7873  2.4321  2.0345  1.4530  1.2212  1.2212  1.2470
  0.9781  0.9781  0.9796  0.9423  0.9423

 Free energy of the ion-electron system (eV)
  ---------------------------------------------------
  alpha Z        PSCENC =         0.62641250
  Ewald energy   TEWEN  =       884.00953973
  -Hartree energ DENC   =     -1413.74766678
  -exchange      EXHF   =         0.00000000
  -V(xc)+E(xc)   XCENC  =        73.14931950
  PAW double counting   =       307.09575105     -312.45387480
  entropy T*S    EENTRO =        -0.00000000
  eigenvalues    EBANDS =      -258.96396891
  atomic energy  EATOM  =       663.51739852
  Solvation  Ediel_sol  =         0.00000000
  ---------------------------------------------------
  free energy    TOTEN  =       -56.76708918 eV

  energy without entropy =      -56.76708918  energy(sigma->0) =      -56.76708918


--------------------------------------------------------------------------------------------------------




--------------------------------------- Iteration      1(  21)  ---------------------------------------


    POTLOK:  cpu time      0.3111: real time      0.3127
    SETDIJ:  cpu time      0.1910: real time      0.1918
     EDDAV:  cpu time      0.3694: real time      0.3715
       DOS:  cpu time      0.0001: real time      0.0001
    CHARGE:  cpu time      0.1931: real time      0.1939
    MIXING:  cpu time      0.0181: real time      0.0182
    --------------------------------------------
      LOOP:  cpu time      1.0828: real time      1.0882

 eigenvalue-minimisations  :    56
 total energy-change (2. order) :-0.1274296E-04  (-0.1907279E-07)
 number of electron      22.0000000 magnetization 
 augmentation part        0.5037502 magnetization 

 Broyden mixing:
  rms(total) = 0.50337E-04    rms(broyden)= 0.50198E-04
  rms(prec ) = 0.73005E-04
  weight for this iteration     100.00

 eigenvalues of (default mixing * dielectric matrix)
  average eigenvalue GAMMA=   2.4148
  8.9692  5.9894  4.2371  2.8785  2.4891  1.9877  1.9877  1.4908  1.3726  1.3726
  0.9818  0.9818  0.9654  0.9654  0.9835  0.9835

 Free energy of the ion-electron system (eV)
  ---------------------------------------------------
  alpha Z        PSCENC =         0.62641250
  Ewald energy   TEWEN  =       884.00953973
  -Hartree energ DENC   =     -1413.75260574
  -exchange      EXHF   =         0.00000000
  -V(xc)+E(xc)   XCENC  =        73.14942240
  PAW double counting   =       307.09711601     -312.45525326
  entropy T*S    EENTRO =        -0.00000000
  eigenvalues    EBANDS =      -258.95913210
  atomic energy  EATOM  =       663.51739852
  Solvation  Ediel_sol  =         0.00000000
  ---------------------------------------------------
  free energy    TOTEN  =       -56.76710192 eV

  energy without entropy =      -56.76710192  energy(sigma->0) =      -56.76710192


--------------------------------------------------------------------------------------------------------




--------------------------------------- Iteration      1(  22)  ---------------------------------------


    POTLOK:  cpu time      0.3137: real time      0.3154
    SETDIJ:  cpu time      0.1900: real time      0.1908
     EDDAV:  cpu time      0.3759: real time      0.3780
       DOS:  cpu time      0.0001: real time      0.0001
    CHARGE:  cpu time      0.1945: real time      0.1953
    MIXING:  cpu time      0.0188: real time      0.0188
    --------------------------------------------
      LOOP:  cpu time      1.0930: real time      1.0984

 eigenvalue-minimisations  :    56
 total energy-change (2. order) :-0.1074902E-04  (-0.2589235E-07)
 number of electron      22.0000000 magnetization 
 augmentation part        0.5037497 magnetization 

 Broyden mixing:
  rms(total) = 0.38130E-04    rms(broyden)= 0.37944E-04
  rms(prec ) = 0.49978E-04
  weight for this iteration     100.00

 eigenvalues of (default mixing * dielectric matrix)
  average eigenvalue GAMMA=   2.4237
  9.0816  6.3019  4.6902  3.1730  2.5693  2.4100  2.0010  1.4610  1.2860  1.2860
  0.9806  0.9806  1.1648  1.0212  0.9430  0.9268  0.9268

 Free energy of the ion-electron system (eV)
  ---------------------------------------------------
  alpha Z        PSCENC =         0.62641250
  Ewald energy   TEWEN  =       884.00953973
  -Hartree energ DENC   =     -1413.75292882
  -exchange      EXHF   =         0.00000000
  -V(xc)+E(xc)   XCENC  =        73.14940856
  PAW double counting   =       307.09806413     -312.45621152
  entropy T*S    EENTRO =        -0.00000000
  eigenvalues    EBANDS =      -258.95879578
  atomic energy  EATOM  =       663.51739852
  Solvation  Ediel_sol  =         0.00000000
  ---------------------------------------------------
  free energy    TOTEN  =       -56.76711267 eV

  energy without entropy =      -56.76711267  energy(sigma->0) =      -56.76711267


--------------------------------------------------------------------------------------------------------




--------------------------------------- Iteration      1(  23)  ---------------------------------------


    POTLOK:  cpu time      0.3131: real time      0.3148
    SETDIJ:  cpu time      0.1900: real time      0.1908
     EDDAV:  cpu time      0.3715: real time      0.3736
       DOS:  cpu time      0.0001: real time      0.0001
    CHARGE:  cpu time      0.1942: real time      0.1949
    MIXING:  cpu time      0.0198: real time      0.0199
    --------------------------------------------
      LOOP:  cpu time      1.0887: real time      1.0941

 eigenvalue-minimisations  :    56
 total energy-change (2. order) :-0.1780902E-05  (-0.5231493E-08)
 number of electron      22.0000000 magnetization 
 augmentation part        0.5037492 magnetization 

 Broyden mixing:
  rms(total) = 0.24616E-04    rms(broyden)= 0.24335E-04
  rms(prec ) = 0.31501E-04
  weight for this iteration     100.00

 eigenvalues of (default mixing * dielectric matrix)
  average eigenvalue GAMMA=   2.4243
  9.1005  6.5169  4.8891  3.4420  2.6509  2.4108  1.7854  1.7854  1.3600  1.3600
  1.4946  0.9821  0.9821  1.0061  1.0061  0.9299  0.9680  0.9680

 Free energy of the ion-electron system (eV)
  ---------------------------------------------------
  alpha Z        PSCENC =         0.62641250
  Ewald energy   TEWEN  =       884.00953973
  -Hartree energ DENC   =     -1413.75407651
  -exchange      EXHF   =         0.00000000
  -V(xc)+E(xc)   XCENC  =        73.14941964
  PAW double counting   =       307.09765895     -312.45581586
  entropy T*S    EENTRO =        -0.00000000
  eigenvalues    EBANDS =      -258.95765144
  atomic energy  EATOM  =       663.51739852
  Solvation  Ediel_sol  =         0.00000000
  ---------------------------------------------------
  free energy    TOTEN  =       -56.76711445 eV

  energy without entropy =      -56.76711445  energy(sigma->0) =      -56.76711445


--------------------------------------------------------------------------------------------------------




--------------------------------------- Iteration      1(  24)  ---------------------------------------


    POTLOK:  cpu time      0.3166: real time      0.3182
    SETDIJ:  cpu time      0.1909: real time      0.1917
     EDDAV:  cpu time      0.3698: real time      0.3718
       DOS:  cpu time      0.0001: real time      0.0001
    CHARGE:  cpu time      0.1927: real time      0.1935
    MIXING:  cpu time      0.0189: real time      0.0190
    --------------------------------------------
      LOOP:  cpu time      1.0889: real time      1.0943

 eigenvalue-minimisations  :    56
 total energy-change (2. order) :-0.1385315E-05  (-0.4551985E-08)
 number of electron      22.0000000 magnetization 
 augmentation part        0.5037486 magnetization 

 Broyden mixing:
  rms(total) = 0.16025E-04    rms(broyden)= 0.15590E-04
  rms(prec ) = 0.20598E-04
  weight for this iteration     100.00

 eigenvalues of (default mixing * dielectric matrix)
  average eigenvalue GAMMA=   2.4210
  9.1491  6.7544  5.0950  3.6747  2.7627  2.4108  2.1723  1.8936  1.3331  1.3331
  1.4359  0.9814  0.9814  1.1406  1.0055  1.0055  1.0135  0.9280  0.9280

 Free energy of the ion-electron system (eV)
  ---------------------------------------------------
  alpha Z        PSCENC =         0.62641250
  Ewald energy   TEWEN  =       884.00953973
  -Hartree energ DENC   =     -1413.75417757
  -exchange      EXHF   =         0.00000000
  -V(xc)+E(xc)   XCENC  =        73.14942154
  PAW double counting   =       307.09774675     -312.45590443
  entropy T*S    EENTRO =        -0.00000000
  eigenvalues    EBANDS =      -258.95755289
  atomic energy  EATOM  =       663.51739852
  Solvation  Ediel_sol  =         0.00000000
  ---------------------------------------------------
  free energy    TOTEN  =       -56.76711584 eV

  energy without entropy =      -56.76711584  energy(sigma->0) =      -56.76711584


--------------------------------------------------------------------------------------------------------




--------------------------------------- Iteration      1(  25)  ---------------------------------------


    POTLOK:  cpu time      0.3179: real time      0.3196
    SETDIJ:  cpu time      0.1913: real time      0.1921
     EDDAV:  cpu time      0.3293: real time      0.3311
       DOS:  cpu time      0.0001: real time      0.0001
    --------------------------------------------
      LOOP:  cpu time      0.8387: real time      0.8430

 eigenvalue-minimisations  :    48
 total energy-change (2. order) :-0.6549863E-06  (-0.1549370E-08)
 number of electron      22.0000000 magnetization 
 augmentation part        0.5037486 magnetization 

 Free energy of the ion-electron system (eV)
  ---------------------------------------------------
  alpha Z        PSCENC =         0.62641250
  Ewald energy   TEWEN  =       884.00953973
  -Hartree energ DENC   =     -1413.75378353
  -exchange      EXHF   =         0.00000000
  -V(xc)+E(xc)   XCENC  =        73.14940937
  PAW double counting   =       307.09697516     -312.45512114
  entropy T*S    EENTRO =        -0.00000000
  eigenvalues    EBANDS =      -258.95794711
  atomic energy  EATOM  =       663.51739852
  Solvation  Ediel_sol  =         0.00000000
  ---------------------------------------------------
  free energy    TOTEN  =       -56.76711650 eV

  energy without entropy =      -56.76711650  energy(sigma->0) =      -56.76711650


--------------------------------------------------------------------------------------------------------




 average (electrostatic) potential at core
  the test charge radii are     0.6991  0.5201
  (the norm of the test charge is              1.0000)
       1 -58.5892       2 -58.7795       3 -58.6573       4 -58.5459       5 -41.7446
       6 -42.2495       7 -42.0497       8 -42.1933       9 -42.0947      10 -41.7888
 
 
 
 E-fermi :  -5.4733     XC(G=0):  -0.4409     alpha+bet : -0.1681

 Fermi energy:        -5.4732920749

 k-point     1 :       0.0000    0.0000    0.0000
  band No.  band energies     occupation 
      1     -19.9847      2.00000
      2     -18.0547      2.00000
      3     -14.9309      2.00000
      4     -13.5094      2.00000
      5     -11.3413      2.00000
      6     -11.1581      2.00000
      7      -9.4416      2.00000
      8      -9.2422      2.00000
      9      -8.1785      2.00000
     10      -7.8903      2.00000
     11      -5.7474      2.00000
     12      -1.8932      0.00000
     13      -0.3250      0.00000
     14       0.0814      0.00000
     15       0.1286      0.00000
     16       0.3490      0.00000
     17       0.3908      0.00000
     18       0.5071      0.00000
     19       0.5342      0.00000
     20       0.6403      0.00000
     21       0.8461      0.00000
     22       0.9385      0.00000
     23       0.9831      0.00000
     24       1.1311      0.00000


--------------------------------------------------------------------------------------------------------


 soft charge-density along one line, spin component           1
         0         1         2         3         4         5         6         7         8         9
 total charge-density along one line
 
 pseudopotential strength for first ion, spin component:           1
 10.254   0.020   0.000  -0.002   0.001  -0.000  -0.001   0.000
  0.020  -0.001  -0.000   0.000  -0.000   0.000  -0.000   0.000
  0.000  -0.000  -4.349   0.001  -0.001  -0.012   0.000  -0.000
 -0.002   0.000   0.001  -4.368   0.005   0.000  -0.018   0.001
  0.001  -0.000  -0.001   0.005  -4.370  -0.000   0.001  -0.018
 -0.000   0.000  -0.012   0.000  -0.000  -0.772   0.000  -0.000
 -0.001  -0.000   0.000  -0.018   0.001   0.000  -0.773   0.000
  0.000   0.000  -0.000   0.001  -0.018  -0.000   0.000  -0.773
 total augmentation occupancy for first ion, spin component:           1
  1.491  -1.085  -0.004   0.044  -0.015   0.002   0.019  -0.013
 -1.085   0.876  -0.017  -0.073   0.061  -0.003  -0.033   0.029
 -0.004  -0.017   0.895  -0.013   0.016   0.086  -0.005   0.005
  0.044  -0.073  -0.013   1.219  -0.048  -0.005   0.208  -0.022
 -0.015   0.061   0.016  -0.048   1.213   0.005  -0.022   0.211
  0.002  -0.003   0.086  -0.005   0.005   0.009  -0.001   0.001
  0.019  -0.033  -0.005   0.208  -0.022  -0.001   0.038  -0.007
 -0.013   0.029   0.005  -0.022   0.211   0.001  -0.007   0.039


------------------------ aborting loop because EDIFF is reached ----------------------------------------


    CHARGE:  cpu time      0.1948: real time      0.1955
    FORLOC:  cpu time      0.0337: real time      0.0338
    FORNL :  cpu time      1.0676: real time      1.0727
    STRESS:  cpu time      3.3824: real time      3.3984
    FORHAR:  cpu time      0.1114: real time      0.1119
    MIXING:  cpu time      0.0122: real time      0.0123
    OFIELD:  cpu time      0.0001: real time      0.0001

  FORCE on cell =-STRESS in cart. coord.  units (eV):
  Direction    XX          YY          ZZ          XY          YZ          ZX
  --------------------------------------------------------------------------------------
  Alpha Z     0.62641     0.62641     0.62641
  Ewald     320.13044  -220.47330   784.35207    30.27025   -48.30940  -145.74647
  Hartree   425.94137   191.23341   796.57941    14.31334   -28.28969   -94.39637
  E(xc)     -76.09741   -78.30312   -75.94635     0.10749    -0.11167    -0.16626
  Local    -926.38972  -196.91403 -1769.24741   -42.45809    74.73901   237.87741
  n-local   -32.35764   -28.55114   -31.28863    -0.15548     0.12120    -0.24920
  augment    -0.79566    -0.53885    -0.70858    -0.01172     0.00892     0.01545
  Kinetic   289.99098   332.77506   296.97732    -2.08380     1.74232     3.31347
  Fock        0.00000     0.00000     0.00000     0.00000     0.00000     0.00000
  -------------------------------------------------------------------------------------
  Total       1.04878    -0.14556     1.34423    -0.01800    -0.09932     0.64804
  in kB       0.49787    -0.06910     0.63813    -0.00855    -0.04715     0.30764
  external pressure =        0.36 kB  Pullay stress =        0.00 kB


 VOLUME and BASIS-vectors are now :
 -----------------------------------------------------------------------------
  energy-cutoff  :      520.00
  volume of cell :     3375.00
      direct lattice vectors                 reciprocal lattice vectors
    15.000000000  0.000000000  0.000000000     0.066666667  0.000000000  0.000000000
     0.000000000 15.000000000  0.000000000     0.000000000  0.066666667  0.000000000
     0.000000000  0.000000000 15.000000000     0.000000000  0.000000000  0.066666667

  length of vectors
    15.000000000 15.000000000 15.000000000     0.066666667  0.066666667  0.066666667


 FORCES acting on ions
    electron-ion (+dipol)            ewald-force                    non-local-force                 convergence-correction
 -----------------------------------------------------------------------------------------------
   -.717E+02 -.262E+01 0.125E+03   0.714E+02 0.235E+01 -.125E+03   -.101E+01 0.530E+00 -.503E+00   0.112E-04 0.574E-05 0.302E-04
   0.837E+02 -.497E+01 0.374E+02   -.844E+02 0.514E+01 -.375E+02   0.792E+00 -.396E+00 -.413E+00   -.234E-04 0.146E-05 -.573E-04
   -.583E+02 -.123E+02 -.323E+02   0.581E+02 0.125E+02 0.327E+02   -.200E+00 -.518E+00 -.130E+01   0.401E-04 0.117E-04 -.117E-03
   0.660E+02 0.139E+02 -.137E+03   -.667E+02 -.144E+02 0.138E+03   0.128E+01 0.716E+00 -.657E+00   -.469E-04 -.352E-05 0.232E-04
   0.144E+02 -.311E+01 0.642E+02   -.163E+02 0.322E+01 -.688E+02   0.204E+01 -.278E+00 0.505E+01   0.578E-05 0.449E-06 0.149E-04
   -.650E+02 -.372E+01 0.142E+02   0.714E+02 0.406E+01 -.137E+02   -.594E+01 -.324E+00 -.345E-01   -.902E-05 -.374E-07 0.384E-05
   0.679E+02 0.516E+01 0.202E+02   -.738E+02 -.555E+01 -.214E+02   0.563E+01 0.557E+00 0.122E+01   0.100E-04 0.116E-05 0.356E-05
   -.709E+02 0.124E+01 -.116E+02   0.784E+02 -.125E+01 0.121E+02   -.621E+01 0.212E+00 0.173E+00   0.245E-04 0.476E-06 -.845E-05
   0.628E+02 0.449E+01 -.187E+02   -.682E+02 -.476E+01 0.190E+02   0.565E+01 0.322E+00 -.271E+00   -.264E-04 -.987E-06 -.499E-05
   -.275E+02 0.119E+01 -.600E+02   0.300E+02 -.131E+01 0.643E+02   -.336E+01 -.353E-01 -.429E+01   0.152E-04 0.513E-07 0.159E-04
 -----------------------------------------------------------------------------------------------
   0.133E+01 -.780E+00 0.102E+01   0.568E-13 -.222E-14 0.000E+00   -.134E+01 0.785E+00 -.102E+01   0.114E-05 0.165E-04 -.965E-04
 
 
 POSITION                                       TOTAL-FORCE (eV/Angst)
 -----------------------------------------------------------------------------------
      8.07600      7.58900      5.78000        -1.332746      0.262606     -0.957355
      7.20700      7.54900      6.81600         0.110710     -0.223420     -0.584748
      7.64200      7.52000      8.18300        -0.425455     -0.360153     -0.930278
      6.94900      7.38900      9.31300         0.579884      0.198410      0.781915
      7.66400      7.63900      4.75200         0.199948     -0.165561      0.437398
      9.15000      7.64700      5.81200         0.500163      0.014473      0.501543
      6.14700      7.45300      6.59300        -0.269374      0.168366     -0.034807
      8.70200      7.49500      8.17500         1.343923      0.210806      0.690912
      5.85700      7.32900      9.36800         0.225886      0.050380      0.110006
      7.60500      7.38900     10.20700        -0.932938     -0.155907     -0.014586
 -----------------------------------------------------------------------------------
    total drift:                               -0.003314      0.005279     -0.002875


--------------------------------------------------------------------------------------------------------



  FREE ENERGIE OF THE ION-ELECTRON SYSTEM (eV)
  ---------------------------------------------------
  free  energy   TOTEN  =       -56.76711650 eV

  energy  without entropy=      -56.76711650  energy(sigma->0) =      -56.76711650
 


--------------------------------------------------------------------------------------------------------


    POTLOK:  cpu time      0.5090: real time      0.5115


--------------------------------------------------------------------------------------------------------


 stress matrix after NEB project (eV)
      1.04878     -0.01800      0.64804
     -0.01800     -0.14556     -0.09932
      0.64804     -0.09932      1.34423
  FORCES: max atom, RMS     1.661837    0.973663
  FORCE total and by dimension    3.078994    1.343923
  Stress total and by dimension    1.946374    1.344235
     LOOP+:  cpu time     30.1929: real time     30.3669
    4ORBIT:  cpu time      0.0000: real time      0.0000

 total amount of memory used by VASP MPI-rank0   224780. kBytes
=======================================================================

   base      :      30000. kBytes
   nonlr-proj:       1256. kBytes
   fftplans  :     123538. kBytes
   grid      :      67787. kBytes
   one-center:         15. kBytes
   wavefun   :       2184. kBytes
 
  
  
 General timing and accounting informations for this job:
 ========================================================
  
                  Total CPU time used (sec):       36.767
                            User time (sec):       33.569
                          System time (sec):        3.197
                         Elapsed time (sec):       37.704
  
                   Maximum memory used (kb):      560180.
                   Average memory used (kb):          N/A
  
                          Minor page faults:       196746
                          Major page faults:         5457
                 Voluntary context switches:         3127
