 vasp.6.4.2 20Jul23 (build Apr 10 2024 13:39:58) complex                        
  
 executed on             LinuxIFC date 2024.05.18  12:04:09
 running   16 mpi-ranks, on    1 nodes
 distrk:  each k-point on   16 cores,    1 groups
 distr:  one band on NCORE=   2 cores,    8 groups


--------------------------------------------------------------------------------------------------------


 INCAR:
   ISTART = 0
   ISPIN = 1
   LREAL = Auto
   ENCUT = 520
   NPAR = 8
   LPLANE = .TRUE.
   LSCALU = .FALSE.
   NSIM = 4
   LWAVE = .FALSE.
   LCHARG = .FALSE.
   ADDGRID = .TRUE.
   LASPH = .TRUE.
   PREC = Accurate
   ISMEAR = 0
   SIGMA = 0.05
   EDIFF = 1E-06
   NSW = 0
   TEBEG = 300
   TEEND = 700     	
   ISYM = 0
   NWRITE = 2

 POTCAR:   PAW_PBE C 08Apr2002                    
 POTCAR:   PAW_PBE H 15Jun2001                    
 POTCAR:   PAW_PBE C 08Apr2002                    
   VRHFIN =C: s2p2                                                                                  
   LEXCH  = PE                                                                                      
   EATOM  =   147.1560 eV,   10.8157 Ry                                                             
                                                                                                    
   TITEL  = PAW_PBE C 08Apr2002                                                                     
   LULTRA =        F    use ultrasoft PP ?                                                          
   IUNSCR =        0    unscreen: 0-lin 1-nonlin 2-no                                               
   RPACOR =     .000    partial core radius                                                         
   POMASS =   12.011; ZVAL   =    4.000    mass and valenz                                          
   RCORE  =    1.500    outmost cutoff radius                                                       
   RWIGS  =    1.630; RWIGS  =     .863    wigner-seitz radius (au A)                               
   ENMAX  =  400.000; ENMIN  =  300.000 eV                                                          
   ICORE  =        2    local potential                                                             
   LCOR   =        T    correct aug charges                                                         
   LPAW   =        T    paw PP                                                                      
   EAUG   =  644.873                                                                                
   DEXC   =     .000                                                                                
   RMAX   =    2.266    core radius for proj-oper                                                   
   RAUG   =    1.300    factor for augmentation sphere                                              
   RDEP   =    1.501    radius for radial grids                                                     
   RDEPT  =    1.300    core radius for aug-charge                                                  
   QCUT   =   -5.516; QGAM   =   11.032    optimization parameters                                  
                                                                                                    
   Description                                                                                      
     l     E      TYP  RCUT    TYP  RCUT                                                            
     0   .000     23  1.200                                                                         
     0   .000     23  1.200                                                                         
     1   .000     23  1.500                                                                         
     1  2.500     23  1.500                                                                         
     2   .000      7  1.500                                                                         
  local pseudopotential read in
  atomic valenz-charges read in
  non local Contribution for L=           0  read in
    real space projection operators read in
  non local Contribution for L=           0  read in
    real space projection operators read in
  non local Contribution for L=           1  read in
    real space projection operators read in
  non local Contribution for L=           1  read in
    real space projection operators read in
    PAW grid and wavefunctions read in
 
   number of l-projection  operators is LMAX  =           4
   number of lm-projection operators is LMMAX =           8
 
 POTCAR:   PAW_PBE H 15Jun2001                    
   VRHFIN =H: ultrasoft test                                                                        
   LEXCH  = PE                                                                                      
   EATOM  =    12.4884 eV,     .9179 Ry                                                             
                                                                                                    
   TITEL  = PAW_PBE H 15Jun2001                                                                     
   LULTRA =        F    use ultrasoft PP ?                                                          
   IUNSCR =        0    unscreen: 0-lin 1-nonlin 2-no                                               
   RPACOR =     .000    partial core radius                                                         
   POMASS =    1.000; ZVAL   =    1.000    mass and valenz                                          
   RCORE  =    1.100    outmost cutoff radius                                                       
   RWIGS  =     .700; RWIGS  =     .370    wigner-seitz radius (au A)                               
   ENMAX  =  250.000; ENMIN  =  200.000 eV                                                          
   RCLOC  =     .701    cutoff for local pot                                                        
   LCOR   =        T    correct aug charges                                                         
   LPAW   =        T    paw PP                                                                      
   EAUG   =  400.000                                                                                
   RMAX   =    2.174    core radius for proj-oper                                                   
   RAUG   =    1.200    factor for augmentation sphere                                              
   RDEP   =    1.112    radius for radial grids                                                     
   QCUT   =   -5.749; QGAM   =   11.498    optimization parameters                                  
                                                                                                    
   Description                                                                                      
     l     E      TYP  RCUT    TYP  RCUT                                                            
     0   .000     23  1.100                                                                         
     0   .500     23  1.100                                                                         
     1  -.300     23  1.100                                                                         
  local pseudopotential read in
  atomic valenz-charges read in
  non local Contribution for L=           0  read in
    real space projection operators read in
  non local Contribution for L=           0  read in
    real space projection operators read in
  non local Contribution for L=           1  read in
    real space projection operators read in
    PAW grid and wavefunctions read in
 
   number of l-projection  operators is LMAX  =           3
   number of lm-projection operators is LMMAX =           5
 
 Optimization of the real space projectors (new method)

 maximal supplied QI-value         = 25.13
 optimisation between [QCUT,QGAM] = [ 11.56, 23.12] = [ 37.43,149.72] Ry 
 Optimized for a Real-space Cutoff    1.04 Angstroem

   l    n(q)    QCUT    max X(q) W(low)/X(q) W(high)/X(q)  e(spline) 
   0      7    11.561     5.582    0.47E-04    0.94E-04    0.17E-07
   0      7    11.561    69.432    0.20E-03    0.59E-03    0.21E-06
   1      7    11.561     2.780    0.24E-04    0.70E-04    0.44E-07
   1      7    11.561     4.549    0.18E-03    0.25E-03    0.12E-06
 Optimization of the real space projectors (new method)

 maximal supplied QI-value         = 34.20
 optimisation between [QCUT,QGAM] = [ 11.63, 23.26] = [ 37.87,151.49] Ry 
 Optimized for a Real-space Cutoff    1.21 Angstroem

   l    n(q)    QCUT    max X(q) W(low)/X(q) W(high)/X(q)  e(spline) 
   0      8    11.629     4.436    0.19E-04    0.32E-04    0.47E-07
   0      8    11.629    16.131    0.16E-03    0.33E-03    0.21E-06
   1      8    11.629     4.654    0.18E-03    0.16E-03    0.26E-06
 PAW_PBE C 08Apr2002                    :
 energy of atom  1       EATOM= -147.1560
 kinetic energy error for atom=    0.0071 (will be added to EATOM!!)
 PAW_PBE H 15Jun2001                    :
 energy of atom  2       EATOM=  -12.4884
 kinetic energy error for atom=    0.0014 (will be added to EATOM!!)
 
 
 POSCAR:  C  H
  positions in cartesian coordinates
  No initial velocities read in
 exchange correlation table for  LEXCH =        8
   RHO(1)=    0.500       N(1)  =     2000
   RHO(2)=  100.500       N(2)  =     4000

 VTST: version 4.1, (05/19/21)

 CHAIN: initializing optimizer
 
 OPT: Using VASP Dynamics algorithm
 CHAIN: Read ICHAIN            0
 
 POSCAR:  C  H
  positions in cartesian coordinates
  No initial velocities read in
 


--------------------------------------------------------------------------------------------------------


 ion  position               nearest neighbor table
   1  0.528  0.477  0.429-   6 1.08   5 1.12   2 1.35
   2  0.480  0.551  0.446-   7 1.06   1 1.35   3 1.58
   3  0.482  0.555  0.551-   8 1.07   4 1.39   2 1.58
   4  0.494  0.466  0.576-   9 1.10  10 1.11   3 1.39
   5  0.523  0.441  0.364-   1 1.12
   6  0.585  0.451  0.466-   1 1.08
   7  0.438  0.586  0.401-   2 1.06
   8  0.497  0.613  0.590-   3 1.07
   9  0.462  0.416  0.533-   4 1.10
  10  0.512  0.444  0.644-   4 1.11
 

IMPORTANT INFORMATION: All symmetrisations will be switched off!
NOSYMM: (Re-)initialisation of all symmetry stuff for point group C_1.


----------------------------------------------------------------------------------------

                                     Primitive cell                                     

  volume of cell :    3375.0000

  direct lattice vectors                    reciprocal lattice vectors
    15.000000000  0.000000000  0.000000000     0.066666667  0.000000000  0.000000000
     0.000000000 15.000000000  0.000000000     0.000000000  0.066666667  0.000000000
     0.000000000  0.000000000 15.000000000     0.000000000  0.000000000  0.066666667

  length of vectors
    15.000000000 15.000000000 15.000000000     0.066666667  0.066666667  0.066666667

  position of ions in fractional coordinates (direct lattice)
     0.527933343  0.476600011  0.429399999
     0.480133343  0.551333364  0.445866680
     0.481666660  0.554733340  0.551399994
     0.493666681  0.466066678  0.575599988
     0.523066680  0.441466681  0.363866679
     0.584533310  0.451200008  0.465933323
     0.438066673  0.586266645  0.400733344
     0.497066657  0.612999980  0.590000025
     0.461533324  0.415733337  0.533333333
     0.512466653  0.443666681  0.643866666

  ion indices of the primitive-cell ions
   primitive index   ion index
                 1           1
                 2           2
                 3           3
                 4           4
                 5           5
                 6           6
                 7           7
                 8           8
                 9           9
                10          10

----------------------------------------------------------------------------------------

 
 
 KPOINTS: K-Spacing Value to Generate K-Mesh: 1.00

Automatic generation of k-mesh.
 Grid dimensions read from file:
 generate k-points for:    1    1    1

 Generating k-lattice:

  Cartesian coordinates                     Fractional coordinates (reciprocal lattice)
     0.066666667  0.000000000  0.000000000     1.000000000  0.000000000  0.000000000
     0.000000000  0.066666667  0.000000000     0.000000000  1.000000000  0.000000000
     0.000000000  0.000000000  0.066666667     0.000000000  0.000000000  1.000000000

  Length of vectors
     0.066666667  0.066666667  0.066666667

  Shift w.r.t. Gamma in fractional coordinates (k-lattice)
     0.000000000  0.000000000  0.000000000

 
 Subroutine IBZKPT returns following result:
 ===========================================
 
 Found      1 irreducible k-points:
 
 Following reciprocal coordinates:
            Coordinates               Weight
  0.000000  0.000000  0.000000      1.000000
 
 Following cartesian coordinates:
            Coordinates               Weight
  0.000000  0.000000  0.000000      1.000000
 


--------------------------------------------------------------------------------------------------------




 Dimension of arrays:
   k-points           NKPTS =      1   k-points in BZ     NKDIM =      1   number of bands    NBANDS=     24
   number of dos      NEDOS =    301   number of ions     NIONS =     10
   non local maximal  LDIM  =      4   non local SUM 2l+1 LMDIM =      8
   total plane-waves  NPLWV = ******
   max r-space proj   IRMAX =   3145   max aug-charges    IRDMAX=  39494
   dimension x,y,z NGX =   112 NGY =  112 NGZ =  112
   dimension x,y,z NGXF=   224 NGYF=  224 NGZF=  224
   support grid    NGXF=   448 NGYF=  448 NGZF=  448
   ions per type =               4   6
   NGX,Y,Z   is equivalent  to a cutoff of  12.41, 12.41, 12.41 a.u.
   NGXF,Y,Z  is equivalent  to a cutoff of  24.83, 24.83, 24.83 a.u.

 SYSTEM =  unknown system                          
 POSCAR =   C  H                                   

 Startparameter for this run:
   NWRITE =      2    write-flag & timer
   PREC   = accura    normal or accurate (medium, high low for compatibility)
   ISTART =      0    job   : 0-new  1-cont  2-samecut
   ICHARG =      2    charge: 1-file 2-atom 10-const
   ISPIN  =      1    spin polarized calculation?
   LNONCOLLINEAR =      F non collinear calculations
   LSORBIT =      F    spin-orbit coupling
   INIWAV =      1    electr: 0-lowe 1-rand  2-diag
   LASPH  =      T    aspherical Exc in radial PAW
 Electronic Relaxation 1
   ENCUT  =  520.0 eV  38.22 Ry    6.18 a.u.  27.89 27.89 27.89*2*pi/ulx,y,z
   ENINI  =  520.0     initial cutoff
   ENAUG  =  644.9 eV  augmentation charge cutoff
   NELM   =     60;   NELMIN=  2; NELMDL= -5     # of ELM steps 
   EDIFF  = 0.1E-05   stopping-criterion for ELM
   LREAL  =      T    real-space projection
   NLSPLINE    = F    spline interpolate recip. space projectors
   LCOMPAT=      F    compatible to vasp.4.4
   GGA_COMPAT  = T    GGA compatible to vasp.4.4-vasp.4.6
   LMAXPAW     = -100 max onsite density
   LMAXMIX     =    2 max onsite mixed and CHGCAR
   VOSKOWN=      0    Vosko Wilk Nusair interpolation
   ROPT   =   -0.00025  -0.00025
 Ionic relaxation
   EDIFFG = 0.1E-04   stopping-criterion for IOM
   NSW    =      0    number of steps for IOM
   NBLOCK =      1;   KBLOCK =      1    inner block; outer block 
   IBRION =     -1    ionic relax: 0-MD 1-quasi-New 2-CG
   NFREE  =      0    steps in history (QN), initial steepest desc. (CG)
   ISIF   =      2    stress and relaxation
   IWAVPR =     10    prediction:  0-non 1-charg 2-wave 3-comb
   ISYM   =      0    0-nonsym 1-usesym 2-fastsym
   LCORR  =      T    Harris-Foulkes like correction to forces

   POTIM  = 0.5000    time-step for ionic-motion
   TEIN   =    0.0    initial temperature
   TEBEG  =  300.0;   TEEND  = 700.0 temperature during run
   SMASS  =  -3.00    Nose mass-parameter (am)
   estimated Nose-frequenzy (Omega)   =  0.10E-29 period in steps = 0.13E+47 mass=  -0.514E-26a.u.
   SCALEE = 1.0000    scale energy and forces
   NPACO  =    256;   APACO  = 10.0  distance and # of slots for P.C.
   PSTRESS=    0.0 pullay stress

  Mass of Ions in am
   POMASS =  12.01  1.00
  Ionic Valenz
   ZVAL   =   4.00  1.00
  Atomic Wigner-Seitz radii
   RWIGS  =  -1.00 -1.00
  virtual crystal weights 
   VCA    =   1.00  1.00
   NELECT =      22.0000    total number of electrons
   NUPDOWN=      -1.0000    fix difference up-down

 DOS related values:
   EMIN   =  10.00;   EMAX   =-10.00  energy-range for DOS
   EFERMI =   0.00;   METHOD = LEGACY      
   ISMEAR =     0;   SIGMA  =   0.05  broadening in eV -4-tet -1-fermi 0-gaus

 Electronic relaxation 2 (details)
   IALGO  =     38    algorithm
   LDIAG  =      T    sub-space diagonalisation (order eigenvalues)
   LSUBROT=      F    optimize rotation matrix (better conditioning)
   TURBO    =      0    0=normal 1=particle mesh
   IRESTART =      0    0=no restart 2=restart with 2 vectors
   NREBOOT  =      0    no. of reboots
   NMIN     =      0    reboot dimension
   EREF     =   0.00    reference energy to select bands
   IMIX   =      4    mixing-type and parameters
     AMIX     =   0.40;   BMIX     =  1.00
     AMIX_MAG =   1.60;   BMIX_MAG =  1.00
     AMIN     =   0.10
     WC   =   100.;   INIMIX=   1;  MIXPRE=   1;  MAXMIX= -45

 Intra band minimization:
   WEIMIN = 0.0000     energy-eigenvalue tresh-hold
   EBREAK =  0.10E-07  absolut break condition
   DEPER  =   0.30     relativ break condition  

   TIME   =   0.40     timestep for ELM

  volume/ion in A,a.u.               =     337.50      2277.56
  Fermi-wavevector in a.u.,A,eV,Ry     =   0.305814  0.577905  1.272449  0.093522
  Thomas-Fermi vector in A             =   1.179187
 
 Write flags
   LWAVE        =      F    write WAVECAR
   LDOWNSAMPLE  =      F    k-point downsampling of WAVECAR
   LCHARG       =      F    write CHGCAR
   LVTOT        =      F    write LOCPOT, total local potential
   LVHAR        =      F    write LOCPOT, Hartree potential only
   LELF         =      F    write electronic localiz. function (ELF)
   LORBIT       =      0    0 simple, 1 ext, 2 COOP (PROOUT), +10 PAW based schemes


 Dipole corrections
   LMONO  =      F    monopole corrections only (constant potential shift)
   LDIPOL =      F    correct potential (dipole corrections)
   IDIPOL =      0    1-x, 2-y, 3-z, 4-all directions 
   EPSILON=  1.0000000 bulk dielectric constant

 Exchange correlation treatment:
   GGA     =    --    GGA type
   LEXCH   =     8    internal setting for exchange type
   LIBXC   =     F    Libxc                    
   VOSKOWN =     0    Vosko Wilk Nusair interpolation
   LHFCALC =     F    Hartree Fock is set to
   LHFONE  =     F    Hartree Fock one center treatment
   AEXX    =    0.0000 exact exchange contribution

 Linear response parameters
   LEPSILON=     F    determine dielectric tensor
   LRPA    =     F    only Hartree local field effects (RPA)
   LNABLA  =     F    use nabla operator in PAW spheres
   LVEL    =     F    velocity operator in full k-point grid
   CSHIFT  =0.1000    complex shift for real part using Kramers Kronig
   OMEGAMAX=  -1.0    maximum frequency
   DEG_THRESHOLD= 0.2000000E-02 threshold for treating states as degnerate
   RTIME   =   -0.100 relaxation time in fs
  (WPLASMAI=    0.000 imaginary part of plasma frequency in eV, 0.658/RTIME)
   DFIELD  = 0.0000000 0.0000000 0.0000000 field for delta impulse in time
 
  Optional k-point grid parameters
   LKPOINTS_OPT  =     F    use optional k-point grid
   KPOINTS_OPT_MODE=     1    mode for optional k-point grid
 
 Orbital magnetization related:
   ORBITALMAG=     F  switch on orbital magnetization
   LCHIMAG   =     F  perturbation theory with respect to B field
   DQ        =  0.001000  dq finite difference perturbation B field
   LLRAUG    =     F  two centre corrections for induced B field
   LBONE     =     F  B-component reconstruction in AE one-centre
   LVGVCALC  =     T  calculate vGv susceptibility
   LVGVAPPL  =     F  apply vGv susceptibility instead of pGv for G=0

 Random number generation:
   RANDOM_GENERATOR = DEFAULT
   PCG_SEED         = not used


--------------------------------------------------------------------------------------------------------


 Static calculation
 charge density and potential will be updated during run
 non-spin polarized calculation
 Variant of blocked Davidson
 Davidson routine will perform the subspace rotation
 perform sub-space diagonalisation
    after iterative eigenvector-optimisation
 modified Broyden-mixing scheme, WC =      100.0
 initial mixing is a Kerker type mixing with AMIX =  0.4000 and BMIX =      1.0000
 Hartree-type preconditioning will be used
 using additional bands           13
 real space projection scheme for non local part
 calculate Harris-corrections to forces 
   (improved forces if not selfconsistent)
 use gradient corrections 
 use of overlap-Matrix (Vanderbilt PP)
 Gauss-broadening in eV      SIGMA  =   0.05


--------------------------------------------------------------------------------------------------------


  energy-cutoff  :      520.00
  volume of cell :     3375.00
      direct lattice vectors                 reciprocal lattice vectors
    15.000000000  0.000000000  0.000000000     0.066666667  0.000000000  0.000000000
     0.000000000 15.000000000  0.000000000     0.000000000  0.066666667  0.000000000
     0.000000000  0.000000000 15.000000000     0.000000000  0.000000000  0.066666667

  length of vectors
    15.000000000 15.000000000 15.000000000     0.066666667  0.066666667  0.066666667


 
 k-points in units of 2pi/SCALE and weight: K-Spacing Value to Generate K-Mesh: 1.00
   0.00000000  0.00000000  0.00000000       1.000
 
 k-points in reciprocal lattice and weights: K-Spacing Value to Generate K-Mesh: 1.00
   0.00000000  0.00000000  0.00000000       1.000
 
 position of ions in fractional coordinates (direct lattice) 
   0.52793334  0.47660001  0.42940000
   0.48013334  0.55133336  0.44586668
   0.48166666  0.55473334  0.55139999
   0.49366668  0.46606668  0.57559999
   0.52306668  0.44146668  0.36386668
   0.58453331  0.45120001  0.46593332
   0.43806667  0.58626664  0.40073334
   0.49706666  0.61299998  0.59000003
   0.46153332  0.41573334  0.53333333
   0.51246665  0.44366668  0.64386667
 
 position of ions in cartesian coordinates  (Angst):
   7.91900015  7.14900017  6.44099998
   7.20200014  8.27000046  6.68800020
   7.22499990  8.32100010  8.27099991
   7.40500021  6.99100018  8.63399982
   7.84600019  6.62200022  5.45800018
   8.76799965  6.76800013  6.98899984
   6.57100010  8.79399967  6.01100016
   7.45599985  9.19499969  8.85000038
   6.92299986  6.23600006  8.00000000
   7.68699980  6.65500021  9.65799999
 


--------------------------------------------------------------------------------------------------------


 k-point   1 :   0.0000 0.0000 0.0000  plane waves:   90879

 maximum and minimum number of plane-waves per node :     45467    45412

 maximum number of plane-waves:     90879
 maximum index in each direction: 
   IXMAX=   27   IYMAX=   27   IZMAX=   27
   IXMIN=  -27   IYMIN=  -27   IZMIN=  -27


 real space projection operators:
  total allocation   :       1187.12 KBytes
  max/ min on nodes  :        593.80        593.32


 parallel 3D FFT for wavefunctions:
    minimum data exchange during FFTs selected (reduces bandwidth)
 parallel 3D FFT for charge:
    minimum data exchange during FFTs selected (reduces bandwidth)


 total amount of memory used by VASP MPI-rank0   224784. kBytes
=======================================================================

   base      :      30000. kBytes
   nonlr-proj:       1260. kBytes
   fftplans  :     123538. kBytes
   grid      :      67787. kBytes
   one-center:         15. kBytes
   wavefun   :       2184. kBytes
 
     INWAV:  cpu time      0.0000: real time      0.0000
 Broyden mixing: mesh for mixing (old mesh)
   NGX = 55   NGY = 55   NGZ = 55
  (NGX  =224   NGY  =224   NGZ  =224)
  gives a total of 166375 points

 initial charge density was supplied:
 charge density of overlapping atoms calculated
 number of electron      22.0000000 magnetization 
 keeping initial charge density in first step


--------------------------------------------------------------------------------------------------------


 Maximum index for non-local projection operator         1516
 Maximum index for augmentation-charges         2421 (set IRDMAX)


--------------------------------------------------------------------------------------------------------


 First call to EWALD:  gamma=   0.118
 Maximum number of real-space cells 3x 3x 3
 Maximum number of reciprocal cells 3x 3x 3

    FEWALD:  cpu time      0.0014: real time      0.0014


--------------------------------------- Ionic step        1  -------------------------------------------




--------------------------------------- Iteration      1(   1)  ---------------------------------------


    POTLOK:  cpu time      0.3369: real time      0.3389
    SETDIJ:  cpu time      0.1944: real time      0.1952
     EDDAV:  cpu time      0.4183: real time      0.4206
       DOS:  cpu time      0.0003: real time      0.0003
    --------------------------------------------
      LOOP:  cpu time      0.9499: real time      0.9550

 eigenvalue-minimisations  :    64
 total energy-change (2. order) : 0.1060754E+03  (-0.5253193E+03)
 number of electron      22.0000000 magnetization 
 augmentation part       22.0000000 magnetization 

 Free energy of the ion-electron system (eV)
  ---------------------------------------------------
  alpha Z        PSCENC =         0.62641250
  Ewald energy   TEWEN  =       939.63400566
  -Hartree energ DENC   =     -1366.26666738
  -exchange      EXHF   =         0.00000000
  -V(xc)+E(xc)   XCENC  =        67.34085839
  PAW double counting   =       156.01372664     -160.66969168
  entropy T*S    EENTRO =        -0.02446089
  eigenvalues    EBANDS =      -194.09620181
  atomic energy  EATOM  =       663.51739852
  Solvation  Ediel_sol  =         0.00000000
  ---------------------------------------------------
  free energy    TOTEN  =       106.07537996 eV

  energy without entropy =      106.09984085  energy(sigma->0) =      106.08761041


--------------------------------------------------------------------------------------------------------




--------------------------------------- Iteration      1(   2)  ---------------------------------------


     EDDAV:  cpu time      0.4855: real time      0.4882
       DOS:  cpu time      0.0001: real time      0.0001
    --------------------------------------------
      LOOP:  cpu time      0.4856: real time      0.4883

 eigenvalue-minimisations  :    80
 total energy-change (2. order) :-0.1217439E+03  (-0.1178575E+03)
 number of electron      22.0000000 magnetization 
 augmentation part       22.0000000 magnetization 

 Free energy of the ion-electron system (eV)
  ---------------------------------------------------
  alpha Z        PSCENC =         0.62641250
  Ewald energy   TEWEN  =       939.63400566
  -Hartree energ DENC   =     -1366.26666738
  -exchange      EXHF   =         0.00000000
  -V(xc)+E(xc)   XCENC  =        67.34085839
  PAW double counting   =       156.01372664     -160.66969168
  entropy T*S    EENTRO =        -0.00000000
  eigenvalues    EBANDS =      -315.86452250
  atomic energy  EATOM  =       663.51739852
  Solvation  Ediel_sol  =         0.00000000
  ---------------------------------------------------
  free energy    TOTEN  =       -15.66847984 eV

  energy without entropy =      -15.66847984  energy(sigma->0) =      -15.66847984


--------------------------------------------------------------------------------------------------------




--------------------------------------- Iteration      1(   3)  ---------------------------------------


     EDDAV:  cpu time      0.4454: real time      0.4479
       DOS:  cpu time      0.0001: real time      0.0001
    --------------------------------------------
      LOOP:  cpu time      0.4455: real time      0.4480

 eigenvalue-minimisations  :    72
 total energy-change (2. order) :-0.4315561E+02  (-0.4305586E+02)
 number of electron      22.0000000 magnetization 
 augmentation part       22.0000000 magnetization 

 Free energy of the ion-electron system (eV)
  ---------------------------------------------------
  alpha Z        PSCENC =         0.62641250
  Ewald energy   TEWEN  =       939.63400566
  -Hartree energ DENC   =     -1366.26666738
  -exchange      EXHF   =         0.00000000
  -V(xc)+E(xc)   XCENC  =        67.34085839
  PAW double counting   =       156.01372664     -160.66969168
  entropy T*S    EENTRO =        -0.00000000
  eigenvalues    EBANDS =      -359.02013216
  atomic energy  EATOM  =       663.51739852
  Solvation  Ediel_sol  =         0.00000000
  ---------------------------------------------------
  free energy    TOTEN  =       -58.82408950 eV

  energy without entropy =      -58.82408950  energy(sigma->0) =      -58.82408950


--------------------------------------------------------------------------------------------------------




--------------------------------------- Iteration      1(   4)  ---------------------------------------


     EDDAV:  cpu time      0.4440: real time      0.4464
       DOS:  cpu time      0.0001: real time      0.0001
    --------------------------------------------
      LOOP:  cpu time      0.4441: real time      0.4465

 eigenvalue-minimisations  :    72
 total energy-change (2. order) :-0.2369034E+01  (-0.2364631E+01)
 number of electron      22.0000000 magnetization 
 augmentation part       22.0000000 magnetization 

 Free energy of the ion-electron system (eV)
  ---------------------------------------------------
  alpha Z        PSCENC =         0.62641250
  Ewald energy   TEWEN  =       939.63400566
  -Hartree energ DENC   =     -1366.26666738
  -exchange      EXHF   =         0.00000000
  -V(xc)+E(xc)   XCENC  =        67.34085839
  PAW double counting   =       156.01372664     -160.66969168
  entropy T*S    EENTRO =        -0.00000000
  eigenvalues    EBANDS =      -361.38916619
  atomic energy  EATOM  =       663.51739852
  Solvation  Ediel_sol  =         0.00000000
  ---------------------------------------------------
  free energy    TOTEN  =       -61.19312353 eV

  energy without entropy =      -61.19312353  energy(sigma->0) =      -61.19312353


--------------------------------------------------------------------------------------------------------




--------------------------------------- Iteration      1(   5)  ---------------------------------------


     EDDAV:  cpu time      0.3677: real time      0.3698
       DOS:  cpu time      0.0001: real time      0.0001
    CHARGE:  cpu time      0.1993: real time      0.2001
    MIXING:  cpu time      0.0129: real time      0.0130
    --------------------------------------------
      LOOP:  cpu time      0.5801: real time      0.5830

 eigenvalue-minimisations  :    56
 total energy-change (2. order) :-0.2090064E-01  (-0.2089474E-01)
 number of electron      22.0000000 magnetization 
 augmentation part        0.5593491 magnetization 

 Broyden mixing:
  rms(total) = 0.11619E+01    rms(broyden)= 0.11617E+01
  rms(prec ) = 0.13931E+01
  weight for this iteration     100.00

 Free energy of the ion-electron system (eV)
  ---------------------------------------------------
  alpha Z        PSCENC =         0.62641250
  Ewald energy   TEWEN  =       939.63400566
  -Hartree energ DENC   =     -1366.26666738
  -exchange      EXHF   =         0.00000000
  -V(xc)+E(xc)   XCENC  =        67.34085839
  PAW double counting   =       156.01372664     -160.66969168
  entropy T*S    EENTRO =        -0.00000000
  eigenvalues    EBANDS =      -361.41006683
  atomic energy  EATOM  =       663.51739852
  Solvation  Ediel_sol  =         0.00000000
  ---------------------------------------------------
  free energy    TOTEN  =       -61.21402417 eV

  energy without entropy =      -61.21402417  energy(sigma->0) =      -61.21402417


--------------------------------------------------------------------------------------------------------




--------------------------------------- Iteration      1(   6)  ---------------------------------------


    POTLOK:  cpu time      0.3092: real time      0.3109
    SETDIJ:  cpu time      0.1894: real time      0.1902
     EDDAV:  cpu time      0.4426: real time      0.4451
       DOS:  cpu time      0.0001: real time      0.0001
    CHARGE:  cpu time      0.1952: real time      0.1959
    MIXING:  cpu time      0.0118: real time      0.0119
    --------------------------------------------
      LOOP:  cpu time      1.1483: real time      1.1541

 eigenvalue-minimisations  :    72
 total energy-change (2. order) : 0.4850631E+01  (-0.7355981E+00)
 number of electron      22.0000000 magnetization 
 augmentation part        0.5136220 magnetization 

 Broyden mixing:
  rms(total) = 0.57204E+00    rms(broyden)= 0.57201E+00
  rms(prec ) = 0.67735E+00
  weight for this iteration     100.00

 eigenvalues of (default mixing * dielectric matrix)
  average eigenvalue GAMMA=   1.6157
  1.6157

 Free energy of the ion-electron system (eV)
  ---------------------------------------------------
  alpha Z        PSCENC =         0.62641250
  Ewald energy   TEWEN  =       939.63400566
  -Hartree energ DENC   =     -1411.98554306
  -exchange      EXHF   =         0.00000000
  -V(xc)+E(xc)   XCENC  =        69.63477672
  PAW double counting   =       225.29166947     -230.46890265
  entropy T*S    EENTRO =        -0.00000000
  eigenvalues    EBANDS =      -312.61321043
  atomic energy  EATOM  =       663.51739852
  Solvation  Ediel_sol  =         0.00000000
  ---------------------------------------------------
  free energy    TOTEN  =       -56.36339326 eV

  energy without entropy =      -56.36339326  energy(sigma->0) =      -56.36339326


--------------------------------------------------------------------------------------------------------




--------------------------------------- Iteration      1(   7)  ---------------------------------------


    POTLOK:  cpu time      0.3107: real time      0.3124
    SETDIJ:  cpu time      0.1889: real time      0.1898
     EDDAV:  cpu time      0.4107: real time      0.4130
       DOS:  cpu time      0.0001: real time      0.0001
    CHARGE:  cpu time      0.1982: real time      0.1990
    MIXING:  cpu time      0.0129: real time      0.0129
    --------------------------------------------
      LOOP:  cpu time      1.1215: real time      1.1272

 eigenvalue-minimisations  :    64
 total energy-change (2. order) : 0.1210743E+01  (-0.4109803E+00)
 number of electron      22.0000000 magnetization 
 augmentation part        0.4828912 magnetization 

 Broyden mixing:
  rms(total) = 0.22197E+00    rms(broyden)= 0.22190E+00
  rms(prec ) = 0.25666E+00
  weight for this iteration     100.00

 eigenvalues of (default mixing * dielectric matrix)
  average eigenvalue GAMMA=   1.5581
  1.4333  1.6829

 Free energy of the ion-electron system (eV)
  ---------------------------------------------------
  alpha Z        PSCENC =         0.62641250
  Ewald energy   TEWEN  =       939.63400566
  -Hartree energ DENC   =     -1449.07899700
  -exchange      EXHF   =         0.00000000
  -V(xc)+E(xc)   XCENC  =        71.72417391
  PAW double counting   =       283.32146365     -288.74360915
  entropy T*S    EENTRO =        -0.00000000
  eigenvalues    EBANDS =      -276.15349840
  atomic energy  EATOM  =       663.51739852
  Solvation  Ediel_sol  =         0.00000000
  ---------------------------------------------------
  free energy    TOTEN  =       -55.15265031 eV

  energy without entropy =      -55.15265031  energy(sigma->0) =      -55.15265031


--------------------------------------------------------------------------------------------------------




--------------------------------------- Iteration      1(   8)  ---------------------------------------


    POTLOK:  cpu time      0.3139: real time      0.3156
    SETDIJ:  cpu time      0.1904: real time      0.1912
     EDDAV:  cpu time      0.4052: real time      0.4074
       DOS:  cpu time      0.0001: real time      0.0001
    CHARGE:  cpu time      0.1977: real time      0.1985
    MIXING:  cpu time      0.0116: real time      0.0116
    --------------------------------------------
      LOOP:  cpu time      1.1188: real time      1.1244

 eigenvalue-minimisations  :    64
 total energy-change (2. order) : 0.1444703E+00  (-0.2172856E-01)
 number of electron      22.0000000 magnetization 
 augmentation part        0.4823352 magnetization 

 Broyden mixing:
  rms(total) = 0.95566E-01    rms(broyden)= 0.95560E-01
  rms(prec ) = 0.12043E+00
  weight for this iteration     100.00

 eigenvalues of (default mixing * dielectric matrix)
  average eigenvalue GAMMA=   1.6257
  2.3882  0.8615  1.6274

 Free energy of the ion-electron system (eV)
  ---------------------------------------------------
  alpha Z        PSCENC =         0.62641250
  Ewald energy   TEWEN  =       939.63400566
  -Hartree energ DENC   =     -1455.15058576
  -exchange      EXHF   =         0.00000000
  -V(xc)+E(xc)   XCENC  =        72.16390322
  PAW double counting   =       289.20210535     -294.54923852
  entropy T*S    EENTRO =        -0.00000000
  eigenvalues    EBANDS =      -270.45218097
  atomic energy  EATOM  =       663.51739852
  Solvation  Ediel_sol  =         0.00000000
  ---------------------------------------------------
  free energy    TOTEN  =       -55.00817999 eV

  energy without entropy =      -55.00817999  energy(sigma->0) =      -55.00817999


--------------------------------------------------------------------------------------------------------




--------------------------------------- Iteration      1(   9)  ---------------------------------------


    POTLOK:  cpu time      0.3147: real time      0.3164
    SETDIJ:  cpu time      0.1900: real time      0.1908
     EDDAV:  cpu time      0.4067: real time      0.4090
       DOS:  cpu time      0.0001: real time      0.0001
    CHARGE:  cpu time      0.1974: real time      0.1982
    MIXING:  cpu time      0.0114: real time      0.0115
    --------------------------------------------
      LOOP:  cpu time      1.1204: real time      1.1260

 eigenvalue-minimisations  :    64
 total energy-change (2. order) : 0.5348583E-01  (-0.8788433E-02)
 number of electron      22.0000000 magnetization 
 augmentation part        0.4813160 magnetization 

 Broyden mixing:
  rms(total) = 0.28949E-01    rms(broyden)= 0.28942E-01
  rms(prec ) = 0.51924E-01
  weight for this iteration     100.00

 eigenvalues of (default mixing * dielectric matrix)
  average eigenvalue GAMMA=   1.4249
  2.2056  1.6068  0.9437  0.9437

 Free energy of the ion-electron system (eV)
  ---------------------------------------------------
  alpha Z        PSCENC =         0.62641250
  Ewald energy   TEWEN  =       939.63400566
  -Hartree energ DENC   =     -1461.86369770
  -exchange      EXHF   =         0.00000000
  -V(xc)+E(xc)   XCENC  =        72.56416984
  PAW double counting   =       293.71554280     -299.00775944
  entropy T*S    EENTRO =        -0.00000000
  eigenvalues    EBANDS =      -264.14076635
  atomic energy  EATOM  =       663.51739852
  Solvation  Ediel_sol  =         0.00000000
  ---------------------------------------------------
  free energy    TOTEN  =       -54.95469417 eV

  energy without entropy =      -54.95469417  energy(sigma->0) =      -54.95469417


--------------------------------------------------------------------------------------------------------




--------------------------------------- Iteration      1(  10)  ---------------------------------------


    POTLOK:  cpu time      0.3152: real time      0.3168
    SETDIJ:  cpu time      0.1919: real time      0.1927
     EDDAV:  cpu time      0.4055: real time      0.4078
       DOS:  cpu time      0.0001: real time      0.0001
    CHARGE:  cpu time      0.1970: real time      0.1978
    MIXING:  cpu time      0.0133: real time      0.0133
    --------------------------------------------
      LOOP:  cpu time      1.1229: real time      1.1286

 eigenvalue-minimisations  :    64
 total energy-change (2. order) : 0.4861913E-02  (-0.2002787E-02)
 number of electron      22.0000000 magnetization 
 augmentation part        0.4801979 magnetization 

 Broyden mixing:
  rms(total) = 0.18142E-01    rms(broyden)= 0.18139E-01
  rms(prec ) = 0.37643E-01
  weight for this iteration     100.00

 eigenvalues of (default mixing * dielectric matrix)
  average eigenvalue GAMMA=   1.6384
  2.5330  2.3951  1.0054  1.0054  1.2529

 Free energy of the ion-electron system (eV)
  ---------------------------------------------------
  alpha Z        PSCENC =         0.62641250
  Ewald energy   TEWEN  =       939.63400566
  -Hartree energ DENC   =     -1464.02760526
  -exchange      EXHF   =         0.00000000
  -V(xc)+E(xc)   XCENC  =        72.59713976
  PAW double counting   =       293.65222995     -298.95758531
  entropy T*S    EENTRO =        -0.00000000
  eigenvalues    EBANDS =      -261.99182807
  atomic energy  EATOM  =       663.51739852
  Solvation  Ediel_sol  =         0.00000000
  ---------------------------------------------------
  free energy    TOTEN  =       -54.94983226 eV

  energy without entropy =      -54.94983226  energy(sigma->0) =      -54.94983226


--------------------------------------------------------------------------------------------------------




--------------------------------------- Iteration      1(  11)  ---------------------------------------


    POTLOK:  cpu time      0.3163: real time      0.3180
    SETDIJ:  cpu time      0.1943: real time      0.1951
     EDDAV:  cpu time      0.4496: real time      0.4521
       DOS:  cpu time      0.0001: real time      0.0001
    CHARGE:  cpu time      0.1960: real time      0.1967
    MIXING:  cpu time      0.0142: real time      0.0142
    --------------------------------------------
      LOOP:  cpu time      1.1704: real time      1.1763

 eigenvalue-minimisations  :    72
 total energy-change (2. order) : 0.1219806E-01  (-0.9841322E-03)
 number of electron      22.0000000 magnetization 
 augmentation part        0.4797021 magnetization 

 Broyden mixing:
  rms(total) = 0.80869E-02    rms(broyden)= 0.80863E-02
  rms(prec ) = 0.18494E-01
  weight for this iteration     100.00

 eigenvalues of (default mixing * dielectric matrix)
  average eigenvalue GAMMA=   1.6382
  2.9516  2.4622  1.3033  0.9735  1.0692  1.0692

 Free energy of the ion-electron system (eV)
  ---------------------------------------------------
  alpha Z        PSCENC =         0.62641250
  Ewald energy   TEWEN  =       939.63400566
  -Hartree energ DENC   =     -1468.95915661
  -exchange      EXHF   =         0.00000000
  -V(xc)+E(xc)   XCENC  =        72.72645588
  PAW double counting   =       292.32850168     -297.61962052
  entropy T*S    EENTRO =        -0.00000000
  eigenvalues    EBANDS =      -257.19163130
  atomic energy  EATOM  =       663.51739852
  Solvation  Ediel_sol  =         0.00000000
  ---------------------------------------------------
  free energy    TOTEN  =       -54.93763420 eV

  energy without entropy =      -54.93763420  energy(sigma->0) =      -54.93763420


--------------------------------------------------------------------------------------------------------




--------------------------------------- Iteration      1(  12)  ---------------------------------------


    POTLOK:  cpu time      0.3155: real time      0.3172
    SETDIJ:  cpu time      0.1923: real time      0.1931
     EDDAV:  cpu time      0.4071: real time      0.4094
       DOS:  cpu time      0.0001: real time      0.0001
    CHARGE:  cpu time      0.1947: real time      0.1955
    MIXING:  cpu time      0.0155: real time      0.0156
    --------------------------------------------
      LOOP:  cpu time      1.1252: real time      1.1309

 eigenvalue-minimisations  :    64
 total energy-change (2. order) :-0.3461974E-03  (-0.1288711E-03)
 number of electron      22.0000000 magnetization 
 augmentation part        0.4794641 magnetization 

 Broyden mixing:
  rms(total) = 0.57973E-02    rms(broyden)= 0.57972E-02
  rms(prec ) = 0.12806E-01
  weight for this iteration     100.00

 eigenvalues of (default mixing * dielectric matrix)
  average eigenvalue GAMMA=   1.8510
  4.1439  2.4073  2.0471  1.3991  0.9308  1.0143  1.0143

 Free energy of the ion-electron system (eV)
  ---------------------------------------------------
  alpha Z        PSCENC =         0.62641250
  Ewald energy   TEWEN  =       939.63400566
  -Hartree energ DENC   =     -1470.48078033
  -exchange      EXHF   =         0.00000000
  -V(xc)+E(xc)   XCENC  =        72.75121274
  PAW double counting   =       291.87092112     -297.16232239
  entropy T*S    EENTRO =        -0.00000000
  eigenvalues    EBANDS =      -255.69482822
  atomic energy  EATOM  =       663.51739852
  Solvation  Ediel_sol  =         0.00000000
  ---------------------------------------------------
  free energy    TOTEN  =       -54.93798040 eV

  energy without entropy =      -54.93798040  energy(sigma->0) =      -54.93798040


--------------------------------------------------------------------------------------------------------




--------------------------------------- Iteration      1(  13)  ---------------------------------------


    POTLOK:  cpu time      0.3117: real time      0.3134
    SETDIJ:  cpu time      0.1939: real time      0.1947
     EDDAV:  cpu time      0.4039: real time      0.4063
       DOS:  cpu time      0.0001: real time      0.0001
    CHARGE:  cpu time      0.1998: real time      0.2006
    MIXING:  cpu time      0.0122: real time      0.0122
    --------------------------------------------
      LOOP:  cpu time      1.1217: real time      1.1274

 eigenvalue-minimisations  :    64
 total energy-change (2. order) :-0.8263845E-02  (-0.1425452E-03)
 number of electron      22.0000000 magnetization 
 augmentation part        0.4793350 magnetization 

 Broyden mixing:
  rms(total) = 0.31483E-02    rms(broyden)= 0.31482E-02
  rms(prec ) = 0.69636E-02
  weight for this iteration     100.00

 eigenvalues of (default mixing * dielectric matrix)
  average eigenvalue GAMMA=   1.9609
  5.0208  2.6784  2.1448  1.4500  1.4500  0.9285  1.0072  1.0072

 Free energy of the ion-electron system (eV)
  ---------------------------------------------------
  alpha Z        PSCENC =         0.62641250
  Ewald energy   TEWEN  =       939.63400566
  -Hartree energ DENC   =     -1471.75569672
  -exchange      EXHF   =         0.00000000
  -V(xc)+E(xc)   XCENC  =        72.76406293
  PAW double counting   =       291.69124141     -296.98297883
  entropy T*S    EENTRO =        -0.00000000
  eigenvalues    EBANDS =      -254.44068971
  atomic energy  EATOM  =       663.51739852
  Solvation  Ediel_sol  =         0.00000000
  ---------------------------------------------------
  free energy    TOTEN  =       -54.94624424 eV

  energy without entropy =      -54.94624424  energy(sigma->0) =      -54.94624424


--------------------------------------------------------------------------------------------------------




--------------------------------------- Iteration      1(  14)  ---------------------------------------


    POTLOK:  cpu time      0.3162: real time      0.3179
    SETDIJ:  cpu time      0.1934: real time      0.1942
     EDDAV:  cpu time      0.4162: real time      0.4186
       DOS:  cpu time      0.0001: real time      0.0001
    CHARGE:  cpu time      0.1975: real time      0.1983
    MIXING:  cpu time      0.0154: real time      0.0154
    --------------------------------------------
      LOOP:  cpu time      1.1388: real time      1.1446

 eigenvalue-minimisations  :    64
 total energy-change (2. order) :-0.7210646E-02  (-0.1139120E-03)
 number of electron      22.0000000 magnetization 
 augmentation part        0.4791666 magnetization 

 Broyden mixing:
  rms(total) = 0.21742E-02    rms(broyden)= 0.21741E-02
  rms(prec ) = 0.41291E-02
  weight for this iteration     100.00

 eigenvalues of (default mixing * dielectric matrix)
  average eigenvalue GAMMA=   2.1618
  6.1570  3.5210  2.2723  1.9905  1.3165  1.3165  0.9100  0.9861  0.9861

 Free energy of the ion-electron system (eV)
  ---------------------------------------------------
  alpha Z        PSCENC =         0.62641250
  Ewald energy   TEWEN  =       939.63400566
  -Hartree energ DENC   =     -1472.18883818
  -exchange      EXHF   =         0.00000000
  -V(xc)+E(xc)   XCENC  =        72.75633455
  PAW double counting   =       291.76944887     -297.06232518
  entropy T*S    EENTRO =        -0.00000000
  eigenvalues    EBANDS =      -254.00589163
  atomic energy  EATOM  =       663.51739852
  Solvation  Ediel_sol  =         0.00000000
  ---------------------------------------------------
  free energy    TOTEN  =       -54.95345489 eV

  energy without entropy =      -54.95345489  energy(sigma->0) =      -54.95345489


--------------------------------------------------------------------------------------------------------




--------------------------------------- Iteration      1(  15)  ---------------------------------------


    POTLOK:  cpu time      0.3117: real time      0.3134
    SETDIJ:  cpu time      0.1915: real time      0.1923
     EDDAV:  cpu time      0.4155: real time      0.4179
       DOS:  cpu time      0.0001: real time      0.0001
    CHARGE:  cpu time      0.1984: real time      0.1992
    MIXING:  cpu time      0.0118: real time      0.0119
    --------------------------------------------
      LOOP:  cpu time      1.1291: real time      1.1348

 eigenvalue-minimisations  :    64
 total energy-change (2. order) :-0.4593561E-02  (-0.8159569E-04)
 number of electron      22.0000000 magnetization 
 augmentation part        0.4792448 magnetization 

 Broyden mixing:
  rms(total) = 0.13083E-02    rms(broyden)= 0.13082E-02
  rms(prec ) = 0.21325E-02
  weight for this iteration     100.00

 eigenvalues of (default mixing * dielectric matrix)
  average eigenvalue GAMMA=   2.1755
  6.6042  3.9155  2.4078  2.0501  1.4484  1.2223  1.2223  0.9903  0.9903  0.9038

 Free energy of the ion-electron system (eV)
  ---------------------------------------------------
  alpha Z        PSCENC =         0.62641250
  Ewald energy   TEWEN  =       939.63400566
  -Hartree energ DENC   =     -1472.14881288
  -exchange      EXHF   =         0.00000000
  -V(xc)+E(xc)   XCENC  =        72.74343454
  PAW double counting   =       291.71794985     -297.00864387
  entropy T*S    EENTRO =        -0.00000000
  eigenvalues    EBANDS =      -254.03979277
  atomic energy  EATOM  =       663.51739852
  Solvation  Ediel_sol  =         0.00000000
  ---------------------------------------------------
  free energy    TOTEN  =       -54.95804845 eV

  energy without entropy =      -54.95804845  energy(sigma->0) =      -54.95804845


--------------------------------------------------------------------------------------------------------




--------------------------------------- Iteration      1(  16)  ---------------------------------------


    POTLOK:  cpu time      0.3110: real time      0.3126
    SETDIJ:  cpu time      0.1953: real time      0.1961
     EDDAV:  cpu time      0.4133: real time      0.4155
       DOS:  cpu time      0.0001: real time      0.0001
    CHARGE:  cpu time      0.1985: real time      0.1993
    MIXING:  cpu time      0.0130: real time      0.0131
    --------------------------------------------
      LOOP:  cpu time      1.1311: real time      1.1368

 eigenvalue-minimisations  :    64
 total energy-change (2. order) :-0.1200899E-02  (-0.1372077E-04)
 number of electron      22.0000000 magnetization 
 augmentation part        0.4791454 magnetization 

 Broyden mixing:
  rms(total) = 0.67708E-03    rms(broyden)= 0.67697E-03
  rms(prec ) = 0.11656E-02
  weight for this iteration     100.00

 eigenvalues of (default mixing * dielectric matrix)
  average eigenvalue GAMMA=   2.2349
  7.5441  4.2596  2.3940  2.3940  1.7289  1.2652  1.0930  1.0056  1.0056  1.0095
  0.8840

 Free energy of the ion-electron system (eV)
  ---------------------------------------------------
  alpha Z        PSCENC =         0.62641250
  Ewald energy   TEWEN  =       939.63400566
  -Hartree energ DENC   =     -1472.26017761
  -exchange      EXHF   =         0.00000000
  -V(xc)+E(xc)   XCENC  =        72.74553434
  PAW double counting   =       291.80461850     -297.09582002
  entropy T*S    EENTRO =        -0.00000000
  eigenvalues    EBANDS =      -253.93122124
  atomic energy  EATOM  =       663.51739852
  Solvation  Ediel_sol  =         0.00000000
  ---------------------------------------------------
  free energy    TOTEN  =       -54.95924935 eV

  energy without entropy =      -54.95924935  energy(sigma->0) =      -54.95924935


--------------------------------------------------------------------------------------------------------




--------------------------------------- Iteration      1(  17)  ---------------------------------------


    POTLOK:  cpu time      0.3091: real time      0.3108
    SETDIJ:  cpu time      0.1926: real time      0.1934
     EDDAV:  cpu time      0.4161: real time      0.4183
       DOS:  cpu time      0.0001: real time      0.0001
    CHARGE:  cpu time      0.1962: real time      0.1970
    MIXING:  cpu time      0.0162: real time      0.0162
    --------------------------------------------
      LOOP:  cpu time      1.1303: real time      1.1359

 eigenvalue-minimisations  :    64
 total energy-change (2. order) :-0.6476317E-03  (-0.4298418E-05)
 number of electron      22.0000000 magnetization 
 augmentation part        0.4791398 magnetization 

 Broyden mixing:
  rms(total) = 0.33411E-03    rms(broyden)= 0.33405E-03
  rms(prec ) = 0.65046E-03
  weight for this iteration     100.00

 eigenvalues of (default mixing * dielectric matrix)
  average eigenvalue GAMMA=   2.3089
  8.0433  4.9173  2.8237  2.2932  1.6891  1.5237  1.4762  1.0617  1.0617  0.8927
  0.9620  0.9620

 Free energy of the ion-electron system (eV)
  ---------------------------------------------------
  alpha Z        PSCENC =         0.62641250
  Ewald energy   TEWEN  =       939.63400566
  -Hartree energ DENC   =     -1472.24451889
  -exchange      EXHF   =         0.00000000
  -V(xc)+E(xc)   XCENC  =        72.74331560
  PAW double counting   =       291.77214349     -297.06346175
  entropy T*S    EENTRO =        -0.00000000
  eigenvalues    EBANDS =      -253.94519212
  atomic energy  EATOM  =       663.51739852
  Solvation  Ediel_sol  =         0.00000000
  ---------------------------------------------------
  free energy    TOTEN  =       -54.95989698 eV

  energy without entropy =      -54.95989698  energy(sigma->0) =      -54.95989698


--------------------------------------------------------------------------------------------------------




--------------------------------------- Iteration      1(  18)  ---------------------------------------


    POTLOK:  cpu time      0.3061: real time      0.3077
    SETDIJ:  cpu time      0.1908: real time      0.1916
     EDDAV:  cpu time      0.3759: real time      0.3780
       DOS:  cpu time      0.0001: real time      0.0001
    CHARGE:  cpu time      0.1998: real time      0.2007
    MIXING:  cpu time      0.0125: real time      0.0125
    --------------------------------------------
      LOOP:  cpu time      1.0851: real time      1.0906

 eigenvalue-minimisations  :    56
 total energy-change (2. order) :-0.3297894E-03  (-0.2072678E-05)
 number of electron      22.0000000 magnetization 
 augmentation part        0.4791304 magnetization 

 Broyden mixing:
  rms(total) = 0.21514E-03    rms(broyden)= 0.21508E-03
  rms(prec ) = 0.38231E-03
  weight for this iteration     100.00

 eigenvalues of (default mixing * dielectric matrix)
  average eigenvalue GAMMA=   2.3031
  8.5023  5.0235  3.0466  2.4342  2.0981  1.4918  0.8970  0.9835  0.9835  1.1043
  1.1043  1.1353  1.1353

 Free energy of the ion-electron system (eV)
  ---------------------------------------------------
  alpha Z        PSCENC =         0.62641250
  Ewald energy   TEWEN  =       939.63400566
  -Hartree energ DENC   =     -1472.25636797
  -exchange      EXHF   =         0.00000000
  -V(xc)+E(xc)   XCENC  =        72.74333891
  PAW double counting   =       291.76939146     -297.06072277
  entropy T*S    EENTRO =        -0.00000000
  eigenvalues    EBANDS =      -253.93368308
  atomic energy  EATOM  =       663.51739852
  Solvation  Ediel_sol  =         0.00000000
  ---------------------------------------------------
  free energy    TOTEN  =       -54.96022677 eV

  energy without entropy =      -54.96022677  energy(sigma->0) =      -54.96022677


--------------------------------------------------------------------------------------------------------




--------------------------------------- Iteration      1(  19)  ---------------------------------------


    POTLOK:  cpu time      0.3061: real time      0.3078
    SETDIJ:  cpu time      0.1934: real time      0.1943
     EDDAV:  cpu time      0.4148: real time      0.4171
       DOS:  cpu time      0.0002: real time      0.0002
    CHARGE:  cpu time      0.1982: real time      0.1990
    MIXING:  cpu time      0.0156: real time      0.0157
    --------------------------------------------
      LOOP:  cpu time      1.1284: real time      1.1341

 eigenvalue-minimisations  :    64
 total energy-change (2. order) :-0.1253358E-03  (-0.4296523E-06)
 number of electron      22.0000000 magnetization 
 augmentation part        0.4791360 magnetization 

 Broyden mixing:
  rms(total) = 0.12653E-03    rms(broyden)= 0.12646E-03
  rms(prec ) = 0.21769E-03
  weight for this iteration     100.00

 eigenvalues of (default mixing * dielectric matrix)
  average eigenvalue GAMMA=   2.3294
  8.6815  5.3616  3.3893  2.4739  2.1411  1.6638  1.6638  1.1781  1.1781  0.9948
  0.9948  0.9042  0.9934  0.9934

 Free energy of the ion-electron system (eV)
  ---------------------------------------------------
  alpha Z        PSCENC =         0.62641250
  Ewald energy   TEWEN  =       939.63400566
  -Hartree energ DENC   =     -1472.25381221
  -exchange      EXHF   =         0.00000000
  -V(xc)+E(xc)   XCENC  =        72.74285119
  PAW double counting   =       291.75075061     -297.04210232
  entropy T*S    EENTRO =        -0.00000000
  eigenvalues    EBANDS =      -253.93585607
  atomic energy  EATOM  =       663.51739852
  Solvation  Ediel_sol  =         0.00000000
  ---------------------------------------------------
  free energy    TOTEN  =       -54.96035210 eV

  energy without entropy =      -54.96035210  energy(sigma->0) =      -54.96035210


--------------------------------------------------------------------------------------------------------




--------------------------------------- Iteration      1(  20)  ---------------------------------------


    POTLOK:  cpu time      0.3098: real time      0.3114
    SETDIJ:  cpu time      0.1942: real time      0.1950
     EDDAV:  cpu time      0.3750: real time      0.3771
       DOS:  cpu time      0.0001: real time      0.0001
    CHARGE:  cpu time      0.2003: real time      0.2011
    MIXING:  cpu time      0.0137: real time      0.0138
    --------------------------------------------
      LOOP:  cpu time      1.0931: real time      1.0985

 eigenvalue-minimisations  :    56
 total energy-change (2. order) :-0.5216165E-04  (-0.1102346E-06)
 number of electron      22.0000000 magnetization 
 augmentation part        0.4791364 magnetization 

 Broyden mixing:
  rms(total) = 0.65410E-04    rms(broyden)= 0.65288E-04
  rms(prec ) = 0.11936E-03
  weight for this iteration     100.00

 eigenvalues of (default mixing * dielectric matrix)
  average eigenvalue GAMMA=   2.3416
  8.8120  5.6832  3.8354  2.6953  2.3791  1.9246  1.3481  1.3481  1.1649  1.1649
  0.9907  0.9907  0.8887  0.9495  0.9495

 Free energy of the ion-electron system (eV)
  ---------------------------------------------------
  alpha Z        PSCENC =         0.62641250
  Ewald energy   TEWEN  =       939.63400566
  -Hartree energ DENC   =     -1472.25810855
  -exchange      EXHF   =         0.00000000
  -V(xc)+E(xc)   XCENC  =        72.74283281
  PAW double counting   =       291.75419280     -297.04552490
  entropy T*S    EENTRO =        -0.00000000
  eigenvalues    EBANDS =      -253.93161310
  atomic energy  EATOM  =       663.51739852
  Solvation  Ediel_sol  =         0.00000000
  ---------------------------------------------------
  free energy    TOTEN  =       -54.96040427 eV

  energy without entropy =      -54.96040427  energy(sigma->0) =      -54.96040427


--------------------------------------------------------------------------------------------------------




--------------------------------------- Iteration      1(  21)  ---------------------------------------


    POTLOK:  cpu time      0.3137: real time      0.3154
    SETDIJ:  cpu time      0.1904: real time      0.1912
     EDDAV:  cpu time      0.3740: real time      0.3760
       DOS:  cpu time      0.0001: real time      0.0001
    CHARGE:  cpu time      0.1962: real time      0.1969
    MIXING:  cpu time      0.0165: real time      0.0165
    --------------------------------------------
      LOOP:  cpu time      1.0909: real time      1.0962

 eigenvalue-minimisations  :    56
 total energy-change (2. order) :-0.1993238E-04  (-0.2373196E-07)
 number of electron      22.0000000 magnetization 
 augmentation part        0.4791372 magnetization 

 Broyden mixing:
  rms(total) = 0.43135E-04    rms(broyden)= 0.42958E-04
  rms(prec ) = 0.73922E-04
  weight for this iteration     100.00

 eigenvalues of (default mixing * dielectric matrix)
  average eigenvalue GAMMA=   2.3839
  8.9546  5.9672  4.2476  2.8686  2.3630  1.9698  1.9698  1.3992  1.1772  1.1772
  0.9960  0.9960  1.1144  1.1144  0.8892  0.9389

 Free energy of the ion-electron system (eV)
  ---------------------------------------------------
  alpha Z        PSCENC =         0.62641250
  Ewald energy   TEWEN  =       939.63400566
  -Hartree energ DENC   =     -1472.25971663
  -exchange      EXHF   =         0.00000000
  -V(xc)+E(xc)   XCENC  =        72.74281763
  PAW double counting   =       291.75647359     -297.04779462
  entropy T*S    EENTRO =        -0.00000000
  eigenvalues    EBANDS =      -253.93002085
  atomic energy  EATOM  =       663.51739852
  Solvation  Ediel_sol  =         0.00000000
  ---------------------------------------------------
  free energy    TOTEN  =       -54.96042420 eV

  energy without entropy =      -54.96042420  energy(sigma->0) =      -54.96042420


--------------------------------------------------------------------------------------------------------




--------------------------------------- Iteration      1(  22)  ---------------------------------------


    POTLOK:  cpu time      0.3175: real time      0.3192
    SETDIJ:  cpu time      0.1941: real time      0.1950
     EDDAV:  cpu time      0.3803: real time      0.3825
       DOS:  cpu time      0.0001: real time      0.0001
    CHARGE:  cpu time      0.1980: real time      0.1988
    MIXING:  cpu time      0.0185: real time      0.0186
    --------------------------------------------
      LOOP:  cpu time      1.1086: real time      1.1141

 eigenvalue-minimisations  :    56
 total energy-change (2. order) :-0.1347736E-04  (-0.1926467E-07)
 number of electron      22.0000000 magnetization 
 augmentation part        0.4791363 magnetization 

 Broyden mixing:
  rms(total) = 0.24337E-04    rms(broyden)= 0.24022E-04
  rms(prec ) = 0.37439E-04
  weight for this iteration     100.00

 eigenvalues of (default mixing * dielectric matrix)
  average eigenvalue GAMMA=   2.3881
  8.9966  6.3389  4.6131  3.1627  2.5158  2.2706  1.9234  1.2174  1.2174  1.3094
  1.1546  0.9800  0.9800  1.0436  1.0436  0.8908  0.9409

 Free energy of the ion-electron system (eV)
  ---------------------------------------------------
  alpha Z        PSCENC =         0.62641250
  Ewald energy   TEWEN  =       939.63400566
  -Hartree energ DENC   =     -1472.26210634
  -exchange      EXHF   =         0.00000000
  -V(xc)+E(xc)   XCENC  =        72.74283670
  PAW double counting   =       291.75865497     -297.04998886
  entropy T*S    EENTRO =        -0.00000000
  eigenvalues    EBANDS =      -253.92765082
  atomic energy  EATOM  =       663.51739852
  Solvation  Ediel_sol  =         0.00000000
  ---------------------------------------------------
  free energy    TOTEN  =       -54.96043768 eV

  energy without entropy =      -54.96043768  energy(sigma->0) =      -54.96043768


--------------------------------------------------------------------------------------------------------




--------------------------------------- Iteration      1(  23)  ---------------------------------------


    POTLOK:  cpu time      0.3274: real time      0.3292
    SETDIJ:  cpu time      0.1932: real time      0.1940
     EDDAV:  cpu time      0.3797: real time      0.3818
       DOS:  cpu time      0.0001: real time      0.0001
    CHARGE:  cpu time      0.1979: real time      0.1987
    MIXING:  cpu time      0.0182: real time      0.0182
    --------------------------------------------
      LOOP:  cpu time      1.1165: real time      1.1221

 eigenvalue-minimisations  :    56
 total energy-change (2. order) :-0.2540086E-05  (-0.3978602E-08)
 number of electron      22.0000000 magnetization 
 augmentation part        0.4791363 magnetization 

 Broyden mixing:
  rms(total) = 0.13496E-04    rms(broyden)= 0.12922E-04
  rms(prec ) = 0.21680E-04
  weight for this iteration     100.00

 eigenvalues of (default mixing * dielectric matrix)
  average eigenvalue GAMMA=   2.4277
  9.1393  6.6012  4.9665  3.4069  2.5262  2.5262  1.8612  1.8612  1.2946  1.2946
  1.3182  1.0708  1.0708  0.9774  0.9774  0.8829  0.9615  0.9615

 Free energy of the ion-electron system (eV)
  ---------------------------------------------------
  alpha Z        PSCENC =         0.62641250
  Ewald energy   TEWEN  =       939.63400566
  -Hartree energ DENC   =     -1472.26237120
  -exchange      EXHF   =         0.00000000
  -V(xc)+E(xc)   XCENC  =        72.74284009
  PAW double counting   =       291.75868799     -297.05001793
  entropy T*S    EENTRO =        -0.00000000
  eigenvalues    EBANDS =      -253.92739585
  atomic energy  EATOM  =       663.51739852
  Solvation  Ediel_sol  =         0.00000000
  ---------------------------------------------------
  free energy    TOTEN  =       -54.96044022 eV

  energy without entropy =      -54.96044022  energy(sigma->0) =      -54.96044022


--------------------------------------------------------------------------------------------------------




--------------------------------------- Iteration      1(  24)  ---------------------------------------


    POTLOK:  cpu time      0.3261: real time      0.3278
    SETDIJ:  cpu time      0.1918: real time      0.1926
     EDDAV:  cpu time      0.3764: real time      0.3785
       DOS:  cpu time      0.0001: real time      0.0001
    CHARGE:  cpu time      0.1970: real time      0.1978
    MIXING:  cpu time      0.0173: real time      0.0173
    --------------------------------------------
      LOOP:  cpu time      1.1087: real time      1.1141

 eigenvalue-minimisations  :    56
 total energy-change (2. order) :-0.2062929E-05  (-0.4338652E-08)
 number of electron      22.0000000 magnetization 
 augmentation part        0.4791363 magnetization 

 Broyden mixing:
  rms(total) = 0.86855E-05    rms(broyden)= 0.77649E-05
  rms(prec ) = 0.12916E-04
  weight for this iteration     100.00
  WARNING: grid for Broyden might be to small

 eigenvalues of (default mixing * dielectric matrix)
  average eigenvalue GAMMA=   2.4213
  9.1328  6.8674  5.1572  3.7082  2.7742  2.4344  2.0135  2.0135  1.2288  1.2288
  1.3354  1.1452  1.0881  1.0881  0.9888  0.9888  0.8841  0.9845  0.9430

 Free energy of the ion-electron system (eV)
  ---------------------------------------------------
  alpha Z        PSCENC =         0.62641250
  Ewald energy   TEWEN  =       939.63400566
  -Hartree energ DENC   =     -1472.26253066
  -exchange      EXHF   =         0.00000000
  -V(xc)+E(xc)   XCENC  =        72.74283421
  PAW double counting   =       291.75786015     -297.04918848
  entropy T*S    EENTRO =        -0.00000000
  eigenvalues    EBANDS =      -253.92723418
  atomic energy  EATOM  =       663.51739852
  Solvation  Ediel_sol  =         0.00000000
  ---------------------------------------------------
  free energy    TOTEN  =       -54.96044228 eV

  energy without entropy =      -54.96044228  energy(sigma->0) =      -54.96044228


--------------------------------------------------------------------------------------------------------




--------------------------------------- Iteration      1(  25)  ---------------------------------------


    POTLOK:  cpu time      0.3333: real time      0.3350
    SETDIJ:  cpu time      0.1927: real time      0.1936
     EDDAV:  cpu time      0.2964: real time      0.2980
       DOS:  cpu time      0.0004: real time      0.0004
    --------------------------------------------
      LOOP:  cpu time      0.8228: real time      0.8270

 eigenvalue-minimisations  :    40
 total energy-change (2. order) :-0.6670258E-06  (-0.1266972E-08)
 number of electron      22.0000000 magnetization 
 augmentation part        0.4791363 magnetization 

 Free energy of the ion-electron system (eV)
  ---------------------------------------------------
  alpha Z        PSCENC =         0.62641250
  Ewald energy   TEWEN  =       939.63400566
  -Hartree energ DENC   =     -1472.26272026
  -exchange      EXHF   =         0.00000000
  -V(xc)+E(xc)   XCENC  =        72.74284259
  PAW double counting   =       291.75778106     -297.04910695
  entropy T*S    EENTRO =        -0.00000000
  eigenvalues    EBANDS =      -253.92705607
  atomic energy  EATOM  =       663.51739852
  Solvation  Ediel_sol  =         0.00000000
  ---------------------------------------------------
  free energy    TOTEN  =       -54.96044295 eV

  energy without entropy =      -54.96044295  energy(sigma->0) =      -54.96044295


--------------------------------------------------------------------------------------------------------




 average (electrostatic) potential at core
  the test charge radii are     0.6991  0.5201
  (the norm of the test charge is              1.0000)
       1 -58.5721       2 -58.7269       3 -58.8063       4 -58.6489       5 -41.4445
       6 -42.0547       7 -42.4735       8 -42.3063       9 -41.8982      10 -41.7367
 
 
 
 E-fermi :  -5.7797     XC(G=0):  -0.4325     alpha+bet : -0.1681

 Fermi energy:        -5.7797332455

 k-point     1 :       0.0000    0.0000    0.0000
  band No.  band energies     occupation 
      1     -20.1446      2.00000
      2     -17.1388      2.00000
      3     -14.9166      2.00000
      4     -13.1507      2.00000
      5     -11.8624      2.00000
      6     -10.3601      2.00000
      7      -9.9663      2.00000
      8      -9.4367      2.00000
      9      -7.8983      2.00000
     10      -6.0499      2.00000
     11      -6.0390      2.00000
     12      -1.7469      0.00000
     13      -0.6479      0.00000
     14      -0.2951      0.00000
     15       0.1536      0.00000
     16       0.2397      0.00000
     17       0.4117      0.00000
     18       0.4230      0.00000
     19       0.5630      0.00000
     20       0.6604      0.00000
     21       0.8764      0.00000
     22       0.9713      0.00000
     23       1.0119      0.00000
     24       1.0908      0.00000


--------------------------------------------------------------------------------------------------------


 soft charge-density along one line, spin component           1
         0         1         2         3         4         5         6         7         8         9
 total charge-density along one line
 
 pseudopotential strength for first ion, spin component:           1
 10.253   0.020  -0.003  -0.001  -0.000  -0.001  -0.001   0.001
  0.020  -0.001   0.000   0.000   0.000  -0.000  -0.000   0.000
 -0.003   0.000  -4.365  -0.004   0.010  -0.017  -0.001   0.003
 -0.001   0.000  -0.004  -4.361  -0.003  -0.001  -0.016  -0.001
 -0.000   0.000   0.010  -0.003  -4.361   0.003  -0.001  -0.016
 -0.001  -0.000  -0.017  -0.001   0.003  -0.773  -0.000   0.000
 -0.001  -0.000  -0.001  -0.016  -0.001  -0.000  -0.773  -0.000
  0.001   0.000   0.003  -0.001  -0.016   0.000  -0.000  -0.772
 total augmentation occupancy for first ion, spin component:           1
  1.516  -1.053   0.051   0.040  -0.007   0.024  -0.000  -0.004
 -1.053   0.890  -0.096   0.029   0.017  -0.040  -0.007   0.016
  0.051  -0.096   1.097   0.110  -0.151   0.177   0.031  -0.060
  0.040   0.029   0.110   1.093   0.074   0.031   0.158   0.026
 -0.007   0.017  -0.151   0.074   1.108  -0.060   0.026   0.162
  0.024  -0.040   0.177   0.031  -0.060   0.033   0.007  -0.016
 -0.000  -0.007   0.031   0.158   0.026   0.007   0.026   0.005
 -0.004   0.016  -0.060   0.026   0.162  -0.016   0.005   0.027


------------------------ aborting loop because EDIFF is reached ----------------------------------------


    CHARGE:  cpu time      0.1986: real time      0.1993
    FORLOC:  cpu time      0.0343: real time      0.0344
    FORNL :  cpu time      1.0745: real time      1.0795
    STRESS:  cpu time      3.3948: real time      3.4109
    FORHAR:  cpu time      0.1153: real time      0.1158
    MIXING:  cpu time      0.0123: real time      0.0123
    OFIELD:  cpu time      0.0001: real time      0.0001

  FORCE on cell =-STRESS in cart. coord.  units (eV):
  Direction    XX          YY          ZZ          XY          YZ          ZX
  --------------------------------------------------------------------------------------
  Alpha Z     0.62641     0.62641     0.62641
  Ewald     -14.49033   394.11281   560.01121  -163.19050    -1.90058    10.10425
  Hartree   297.93134   508.96022   665.37121   -81.48873    -8.92508   -24.88828
  E(xc)     -77.11291   -75.97929   -75.68104    -0.44964     0.08125     0.32045
  Local    -495.04738 -1093.99655 -1419.49045   235.23318    13.24259    24.29269
  n-local   -28.44584   -29.47829   -29.74471     0.20068    -0.50770    -0.97358
  augment    -0.50838    -0.59523    -0.56912     0.04916    -0.01170    -0.05661
  Kinetic   317.30031   293.86476   300.20399    10.26256    -1.51540   -10.65005
  Fock        0.00000     0.00000     0.00000     0.00000     0.00000     0.00000
  -------------------------------------------------------------------------------------
  Total       0.25321    -2.48515     0.72749     0.61672     0.46338    -1.85113
  in kB       0.12021    -1.17975     0.34535     0.29277     0.21998    -0.87877
  external pressure =       -0.24 kB  Pullay stress =        0.00 kB


 VOLUME and BASIS-vectors are now :
 -----------------------------------------------------------------------------
  energy-cutoff  :      520.00
  volume of cell :     3375.00
      direct lattice vectors                 reciprocal lattice vectors
    15.000000000  0.000000000  0.000000000     0.066666667  0.000000000  0.000000000
     0.000000000 15.000000000  0.000000000     0.000000000  0.066666667  0.000000000
     0.000000000  0.000000000 15.000000000     0.000000000  0.000000000  0.066666667

  length of vectors
    15.000000000 15.000000000 15.000000000     0.066666667  0.066666667  0.066666667


 FORCES acting on ions
    electron-ion (+dipol)            ewald-force                    non-local-force                 convergence-correction
 -----------------------------------------------------------------------------------------------
   -.684E+02 0.901E+02 0.101E+03   0.693E+02 -.900E+02 -.103E+03   -.267E+00 -.350E+00 -.242E+01   -.935E-06 -.558E-04 0.444E-04
   0.540E+02 -.121E+03 0.850E+02   -.540E+02 0.122E+03 -.837E+02   0.808E+00 -.194E+01 0.294E+01   -.136E-04 -.142E-04 0.380E-04
   0.414E+02 -.125E+03 -.811E+02   -.423E+02 0.125E+03 0.805E+02   0.147E+01 -.180E+01 -.251E+01   0.385E-04 -.240E-04 -.164E-04
   -.112E+02 0.105E+03 -.111E+03   0.106E+02 -.105E+03 0.111E+03   -.998E+00 0.907E+00 0.146E+01   0.323E-04 -.252E-04 -.521E-04
   -.219E+01 0.344E+02 0.597E+02   0.181E+01 -.365E+02 -.641E+02   0.321E+00 0.250E+01 0.460E+01   -.120E-05 -.856E-05 0.872E-05
   -.625E+02 0.309E+02 -.101E+02   0.674E+02 -.328E+02 0.133E+02   -.478E+01 0.213E+01 -.292E+01   -.560E-05 -.529E-05 0.875E-05
   0.403E+02 -.393E+02 0.464E+02   -.445E+02 0.428E+02 -.509E+02   0.367E+01 -.305E+01 0.395E+01   -.631E-05 0.650E-06 0.227E-05
   -.100E+02 -.590E+02 -.402E+02   0.113E+02 0.643E+02 0.439E+02   -.135E+01 -.492E+01 -.321E+01   0.514E-05 -.443E-05 -.835E-05
   0.329E+02 0.596E+02 0.113E+02   -.353E+02 -.634E+02 -.140E+02   0.262E+01 0.387E+01 0.332E+01   0.125E-04 0.621E-05 -.160E-05
   -.145E+02 0.257E+02 -.615E+02   0.158E+02 -.270E+02 0.660E+02   -.131E+01 0.164E+01 -.493E+01   0.398E-05 -.342E-05 -.173E-04
 -----------------------------------------------------------------------------------------------
   -.187E+00 0.103E+01 -.280E+00   0.000E+00 0.533E-13 0.000E+00   0.192E+00 -.102E+01 0.285E+00   0.647E-04 -.134E-03 0.646E-05
 
 
 POSITION                                       TOTAL-FORCE (eV/Angst)
 -----------------------------------------------------------------------------------
      7.91900      7.14900      6.44100         0.615777     -0.194200     -3.980329
      7.20200      8.27000      6.68800         0.824095     -0.918091      4.293770
      7.22500      8.32100      8.27100         0.629566     -1.889661     -3.070322
      7.40500      6.99100      8.63400        -1.688142      1.181819      2.162111
      7.84600      6.62200      5.45800        -0.064960      0.362782      0.205808
      8.76800      6.76800      6.98900         0.035263      0.252032      0.304186
      6.57100      8.79400      6.01100        -0.515333      0.451437     -0.484215
      7.45600      9.19500      8.85000        -0.122353      0.392978      0.448458
      6.92300      6.23600      8.00000         0.252212      0.077754      0.590394
      7.68700      6.65500      9.65800         0.033876      0.283150     -0.469861
 -----------------------------------------------------------------------------------
    total drift:                                0.005585      0.009399      0.005832


--------------------------------------------------------------------------------------------------------



  FREE ENERGIE OF THE ION-ELECTRON SYSTEM (eV)
  ---------------------------------------------------
  free  energy   TOTEN  =       -54.96044295 eV

  energy  without entropy=      -54.96044295  energy(sigma->0) =      -54.96044295
 


--------------------------------------------------------------------------------------------------------


    POTLOK:  cpu time      0.5218: real time      0.5243


--------------------------------------------------------------------------------------------------------


 stress matrix after NEB project (eV)
      0.25321      0.61672     -1.85113
      0.61672     -2.48515      0.46338
     -1.85114      0.46338      0.72749
  FORCES: max atom, RMS     4.467492    2.463003
  FORCE total and by dimension    7.788699    4.293770
  Stress total and by dimension    3.848750    2.485150
     LOOP+:  cpu time     30.5826: real time     30.7355
    4ORBIT:  cpu time      0.0000: real time      0.0000

 total amount of memory used by VASP MPI-rank0   224784. kBytes
=======================================================================

   base      :      30000. kBytes
   nonlr-proj:       1260. kBytes
   fftplans  :     123538. kBytes
   grid      :      67787. kBytes
   one-center:         15. kBytes
   wavefun   :       2184. kBytes
 
  
  
 General timing and accounting informations for this job:
 ========================================================
  
                  Total CPU time used (sec):       37.222
                            User time (sec):       34.022
                          System time (sec):        3.200
                         Elapsed time (sec):       38.613
  
                   Maximum memory used (kb):      551656.
                   Average memory used (kb):          N/A
  
                          Minor page faults:       173793
                          Major page faults:         5456
                 Voluntary context switches:         3122
