 vasp.6.4.2 20Jul23 (build Apr 10 2024 13:39:58) complex                        
  
 executed on             LinuxIFC date 2024.05.17  07:04:29
 running   16 mpi-ranks, on    1 nodes
 distrk:  each k-point on   16 cores,    1 groups
 distr:  one band on NCORE=   2 cores,    8 groups


--------------------------------------------------------------------------------------------------------


 INCAR:
   ISTART = 0
   ISPIN = 1
   LREAL = Auto
   ENCUT = 520
   NPAR = 8
   LPLANE = .TRUE.
   LSCALU = .FALSE.
   NSIM = 4
   LWAVE = .FALSE.
   LCHARG = .FALSE.
   ADDGRID = .TRUE.
   LASPH = .TRUE.
   PREC = Accurate
   ISMEAR = 0
   SIGMA = 0.05
   EDIFF = 1E-06
   NSW = 0
   TEBEG = 300
   TEEND = 700     	
   ISYM = 0
   NWRITE = 2

 POTCAR:   PAW_PBE C 08Apr2002                    
 POTCAR:   PAW_PBE H 15Jun2001                    
 POTCAR:   PAW_PBE C 08Apr2002                    
   VRHFIN =C: s2p2                                                                                  
   LEXCH  = PE                                                                                      
   EATOM  =   147.1560 eV,   10.8157 Ry                                                             
                                                                                                    
   TITEL  = PAW_PBE C 08Apr2002                                                                     
   LULTRA =        F    use ultrasoft PP ?                                                          
   IUNSCR =        0    unscreen: 0-lin 1-nonlin 2-no                                               
   RPACOR =     .000    partial core radius                                                         
   POMASS =   12.011; ZVAL   =    4.000    mass and valenz                                          
   RCORE  =    1.500    outmost cutoff radius                                                       
   RWIGS  =    1.630; RWIGS  =     .863    wigner-seitz radius (au A)                               
   ENMAX  =  400.000; ENMIN  =  300.000 eV                                                          
   ICORE  =        2    local potential                                                             
   LCOR   =        T    correct aug charges                                                         
   LPAW   =        T    paw PP                                                                      
   EAUG   =  644.873                                                                                
   DEXC   =     .000                                                                                
   RMAX   =    2.266    core radius for proj-oper                                                   
   RAUG   =    1.300    factor for augmentation sphere                                              
   RDEP   =    1.501    radius for radial grids                                                     
   RDEPT  =    1.300    core radius for aug-charge                                                  
   QCUT   =   -5.516; QGAM   =   11.032    optimization parameters                                  
                                                                                                    
   Description                                                                                      
     l     E      TYP  RCUT    TYP  RCUT                                                            
     0   .000     23  1.200                                                                         
     0   .000     23  1.200                                                                         
     1   .000     23  1.500                                                                         
     1  2.500     23  1.500                                                                         
     2   .000      7  1.500                                                                         
  local pseudopotential read in
  atomic valenz-charges read in
  non local Contribution for L=           0  read in
    real space projection operators read in
  non local Contribution for L=           0  read in
    real space projection operators read in
  non local Contribution for L=           1  read in
    real space projection operators read in
  non local Contribution for L=           1  read in
    real space projection operators read in
    PAW grid and wavefunctions read in
 
   number of l-projection  operators is LMAX  =           4
   number of lm-projection operators is LMMAX =           8
 
 POTCAR:   PAW_PBE H 15Jun2001                    
   VRHFIN =H: ultrasoft test                                                                        
   LEXCH  = PE                                                                                      
   EATOM  =    12.4884 eV,     .9179 Ry                                                             
                                                                                                    
   TITEL  = PAW_PBE H 15Jun2001                                                                     
   LULTRA =        F    use ultrasoft PP ?                                                          
   IUNSCR =        0    unscreen: 0-lin 1-nonlin 2-no                                               
   RPACOR =     .000    partial core radius                                                         
   POMASS =    1.000; ZVAL   =    1.000    mass and valenz                                          
   RCORE  =    1.100    outmost cutoff radius                                                       
   RWIGS  =     .700; RWIGS  =     .370    wigner-seitz radius (au A)                               
   ENMAX  =  250.000; ENMIN  =  200.000 eV                                                          
   RCLOC  =     .701    cutoff for local pot                                                        
   LCOR   =        T    correct aug charges                                                         
   LPAW   =        T    paw PP                                                                      
   EAUG   =  400.000                                                                                
   RMAX   =    2.174    core radius for proj-oper                                                   
   RAUG   =    1.200    factor for augmentation sphere                                              
   RDEP   =    1.112    radius for radial grids                                                     
   QCUT   =   -5.749; QGAM   =   11.498    optimization parameters                                  
                                                                                                    
   Description                                                                                      
     l     E      TYP  RCUT    TYP  RCUT                                                            
     0   .000     23  1.100                                                                         
     0   .500     23  1.100                                                                         
     1  -.300     23  1.100                                                                         
  local pseudopotential read in
  atomic valenz-charges read in
  non local Contribution for L=           0  read in
    real space projection operators read in
  non local Contribution for L=           0  read in
    real space projection operators read in
  non local Contribution for L=           1  read in
    real space projection operators read in
    PAW grid and wavefunctions read in
 
   number of l-projection  operators is LMAX  =           3
   number of lm-projection operators is LMMAX =           5
 
 Optimization of the real space projectors (new method)

 maximal supplied QI-value         = 25.13
 optimisation between [QCUT,QGAM] = [ 11.56, 23.12] = [ 37.43,149.72] Ry 
 Optimized for a Real-space Cutoff    1.04 Angstroem

   l    n(q)    QCUT    max X(q) W(low)/X(q) W(high)/X(q)  e(spline) 
   0      7    11.561     5.582    0.47E-04    0.94E-04    0.17E-07
   0      7    11.561    69.432    0.20E-03    0.59E-03    0.21E-06
   1      7    11.561     2.780    0.24E-04    0.70E-04    0.44E-07
   1      7    11.561     4.549    0.18E-03    0.25E-03    0.12E-06
 Optimization of the real space projectors (new method)

 maximal supplied QI-value         = 34.20
 optimisation between [QCUT,QGAM] = [ 11.63, 23.26] = [ 37.87,151.49] Ry 
 Optimized for a Real-space Cutoff    1.21 Angstroem

   l    n(q)    QCUT    max X(q) W(low)/X(q) W(high)/X(q)  e(spline) 
   0      8    11.629     4.436    0.19E-04    0.32E-04    0.47E-07
   0      8    11.629    16.131    0.16E-03    0.33E-03    0.21E-06
   1      8    11.629     4.654    0.18E-03    0.16E-03    0.26E-06
 PAW_PBE C 08Apr2002                    :
 energy of atom  1       EATOM= -147.1560
 kinetic energy error for atom=    0.0071 (will be added to EATOM!!)
 PAW_PBE H 15Jun2001                    :
 energy of atom  2       EATOM=  -12.4884
 kinetic energy error for atom=    0.0014 (will be added to EATOM!!)
 
 
 POSCAR:  C  H
  positions in cartesian coordinates
  No initial velocities read in
 exchange correlation table for  LEXCH =        8
   RHO(1)=    0.500       N(1)  =     2000
   RHO(2)=  100.500       N(2)  =     4000

 VTST: version 4.1, (05/19/21)

 CHAIN: initializing optimizer
 
 OPT: Using VASP Dynamics algorithm
 CHAIN: Read ICHAIN            0
 
 POSCAR:  C  H
  positions in cartesian coordinates
  No initial velocities read in
 


--------------------------------------------------------------------------------------------------------


 ion  position               nearest neighbor table
   1  0.529  0.530  0.395-   5 1.10   6 1.13   2 1.34
   2  0.497  0.470  0.453-   7 1.11   1 1.34   3 1.38
   3  0.503  0.462  0.544-   8 1.07   4 1.30   2 1.38
   4  0.473  0.520  0.601-   9 1.09  10 1.12   3 1.30
   5  0.516  0.528  0.323-   1 1.10
   6  0.562  0.585  0.434-   1 1.13
   7  0.468  0.410  0.421-   2 1.11
   8  0.531  0.402  0.569-   3 1.07
   9  0.440  0.583  0.586-   4 1.09
  10  0.482  0.511  0.674-   4 1.12
 

IMPORTANT INFORMATION: All symmetrisations will be switched off!
NOSYMM: (Re-)initialisation of all symmetry stuff for point group C_1.


----------------------------------------------------------------------------------------

                                     Primitive cell                                     

  volume of cell :    3375.0000

  direct lattice vectors                    reciprocal lattice vectors
    15.000000000  0.000000000  0.000000000     0.066666667  0.000000000  0.000000000
     0.000000000 15.000000000  0.000000000     0.000000000  0.066666667  0.000000000
     0.000000000  0.000000000 15.000000000     0.000000000  0.000000000  0.066666667

  length of vectors
    15.000000000 15.000000000 15.000000000     0.066666667  0.066666667  0.066666667

  position of ions in fractional coordinates (direct lattice)
     0.529333337  0.529666678  0.394866657
     0.496933333  0.469533348  0.452666664
     0.502933343  0.462133344  0.543999990
     0.472600015  0.519933319  0.600599988
     0.515866661  0.527733326  0.323066680
     0.561599986  0.585066668  0.434133339
     0.467800013  0.409533342  0.421133327
     0.530933348  0.401866659  0.569333331
     0.439666653  0.583400027  0.586466662
     0.482266680  0.511200015  0.673800023

  ion indices of the primitive-cell ions
   primitive index   ion index
                 1           1
                 2           2
                 3           3
                 4           4
                 5           5
                 6           6
                 7           7
                 8           8
                 9           9
                10          10

----------------------------------------------------------------------------------------

 
 
 KPOINTS: K-Spacing Value to Generate K-Mesh: 1.00

Automatic generation of k-mesh.
 Grid dimensions read from file:
 generate k-points for:    1    1    1

 Generating k-lattice:

  Cartesian coordinates                     Fractional coordinates (reciprocal lattice)
     0.066666667  0.000000000  0.000000000     1.000000000  0.000000000  0.000000000
     0.000000000  0.066666667  0.000000000     0.000000000  1.000000000  0.000000000
     0.000000000  0.000000000  0.066666667     0.000000000  0.000000000  1.000000000

  Length of vectors
     0.066666667  0.066666667  0.066666667

  Shift w.r.t. Gamma in fractional coordinates (k-lattice)
     0.000000000  0.000000000  0.000000000

 
 Subroutine IBZKPT returns following result:
 ===========================================
 
 Found      1 irreducible k-points:
 
 Following reciprocal coordinates:
            Coordinates               Weight
  0.000000  0.000000  0.000000      1.000000
 
 Following cartesian coordinates:
            Coordinates               Weight
  0.000000  0.000000  0.000000      1.000000
 


--------------------------------------------------------------------------------------------------------




 Dimension of arrays:
   k-points           NKPTS =      1   k-points in BZ     NKDIM =      1   number of bands    NBANDS=     24
   number of dos      NEDOS =    301   number of ions     NIONS =     10
   non local maximal  LDIM  =      4   non local SUM 2l+1 LMDIM =      8
   total plane-waves  NPLWV = ******
   max r-space proj   IRMAX =   3145   max aug-charges    IRDMAX=  39494
   dimension x,y,z NGX =   112 NGY =  112 NGZ =  112
   dimension x,y,z NGXF=   224 NGYF=  224 NGZF=  224
   support grid    NGXF=   448 NGYF=  448 NGZF=  448
   ions per type =               4   6
   NGX,Y,Z   is equivalent  to a cutoff of  12.41, 12.41, 12.41 a.u.
   NGXF,Y,Z  is equivalent  to a cutoff of  24.83, 24.83, 24.83 a.u.

 SYSTEM =  unknown system                          
 POSCAR =   C  H                                   

 Startparameter for this run:
   NWRITE =      2    write-flag & timer
   PREC   = accura    normal or accurate (medium, high low for compatibility)
   ISTART =      0    job   : 0-new  1-cont  2-samecut
   ICHARG =      2    charge: 1-file 2-atom 10-const
   ISPIN  =      1    spin polarized calculation?
   LNONCOLLINEAR =      F non collinear calculations
   LSORBIT =      F    spin-orbit coupling
   INIWAV =      1    electr: 0-lowe 1-rand  2-diag
   LASPH  =      T    aspherical Exc in radial PAW
 Electronic Relaxation 1
   ENCUT  =  520.0 eV  38.22 Ry    6.18 a.u.  27.89 27.89 27.89*2*pi/ulx,y,z
   ENINI  =  520.0     initial cutoff
   ENAUG  =  644.9 eV  augmentation charge cutoff
   NELM   =     60;   NELMIN=  2; NELMDL= -5     # of ELM steps 
   EDIFF  = 0.1E-05   stopping-criterion for ELM
   LREAL  =      T    real-space projection
   NLSPLINE    = F    spline interpolate recip. space projectors
   LCOMPAT=      F    compatible to vasp.4.4
   GGA_COMPAT  = T    GGA compatible to vasp.4.4-vasp.4.6
   LMAXPAW     = -100 max onsite density
   LMAXMIX     =    2 max onsite mixed and CHGCAR
   VOSKOWN=      0    Vosko Wilk Nusair interpolation
   ROPT   =   -0.00025  -0.00025
 Ionic relaxation
   EDIFFG = 0.1E-04   stopping-criterion for IOM
   NSW    =      0    number of steps for IOM
   NBLOCK =      1;   KBLOCK =      1    inner block; outer block 
   IBRION =     -1    ionic relax: 0-MD 1-quasi-New 2-CG
   NFREE  =      0    steps in history (QN), initial steepest desc. (CG)
   ISIF   =      2    stress and relaxation
   IWAVPR =     10    prediction:  0-non 1-charg 2-wave 3-comb
   ISYM   =      0    0-nonsym 1-usesym 2-fastsym
   LCORR  =      T    Harris-Foulkes like correction to forces

   POTIM  = 0.5000    time-step for ionic-motion
   TEIN   =    0.0    initial temperature
   TEBEG  =  300.0;   TEEND  = 700.0 temperature during run
   SMASS  =  -3.00    Nose mass-parameter (am)
   estimated Nose-frequenzy (Omega)   =  0.10E-29 period in steps = 0.13E+47 mass=  -0.514E-26a.u.
   SCALEE = 1.0000    scale energy and forces
   NPACO  =    256;   APACO  = 10.0  distance and # of slots for P.C.
   PSTRESS=    0.0 pullay stress

  Mass of Ions in am
   POMASS =  12.01  1.00
  Ionic Valenz
   ZVAL   =   4.00  1.00
  Atomic Wigner-Seitz radii
   RWIGS  =  -1.00 -1.00
  virtual crystal weights 
   VCA    =   1.00  1.00
   NELECT =      22.0000    total number of electrons
   NUPDOWN=      -1.0000    fix difference up-down

 DOS related values:
   EMIN   =  10.00;   EMAX   =-10.00  energy-range for DOS
   EFERMI =   0.00;   METHOD = LEGACY      
   ISMEAR =     0;   SIGMA  =   0.05  broadening in eV -4-tet -1-fermi 0-gaus

 Electronic relaxation 2 (details)
   IALGO  =     38    algorithm
   LDIAG  =      T    sub-space diagonalisation (order eigenvalues)
   LSUBROT=      F    optimize rotation matrix (better conditioning)
   TURBO    =      0    0=normal 1=particle mesh
   IRESTART =      0    0=no restart 2=restart with 2 vectors
   NREBOOT  =      0    no. of reboots
   NMIN     =      0    reboot dimension
   EREF     =   0.00    reference energy to select bands
   IMIX   =      4    mixing-type and parameters
     AMIX     =   0.40;   BMIX     =  1.00
     AMIX_MAG =   1.60;   BMIX_MAG =  1.00
     AMIN     =   0.10
     WC   =   100.;   INIMIX=   1;  MIXPRE=   1;  MAXMIX= -45

 Intra band minimization:
   WEIMIN = 0.0000     energy-eigenvalue tresh-hold
   EBREAK =  0.10E-07  absolut break condition
   DEPER  =   0.30     relativ break condition  

   TIME   =   0.40     timestep for ELM

  volume/ion in A,a.u.               =     337.50      2277.56
  Fermi-wavevector in a.u.,A,eV,Ry     =   0.305814  0.577905  1.272449  0.093522
  Thomas-Fermi vector in A             =   1.179187
 
 Write flags
   LWAVE        =      F    write WAVECAR
   LDOWNSAMPLE  =      F    k-point downsampling of WAVECAR
   LCHARG       =      F    write CHGCAR
   LVTOT        =      F    write LOCPOT, total local potential
   LVHAR        =      F    write LOCPOT, Hartree potential only
   LELF         =      F    write electronic localiz. function (ELF)
   LORBIT       =      0    0 simple, 1 ext, 2 COOP (PROOUT), +10 PAW based schemes


 Dipole corrections
   LMONO  =      F    monopole corrections only (constant potential shift)
   LDIPOL =      F    correct potential (dipole corrections)
   IDIPOL =      0    1-x, 2-y, 3-z, 4-all directions 
   EPSILON=  1.0000000 bulk dielectric constant

 Exchange correlation treatment:
   GGA     =    --    GGA type
   LEXCH   =     8    internal setting for exchange type
   LIBXC   =     F    Libxc                    
   VOSKOWN =     0    Vosko Wilk Nusair interpolation
   LHFCALC =     F    Hartree Fock is set to
   LHFONE  =     F    Hartree Fock one center treatment
   AEXX    =    0.0000 exact exchange contribution

 Linear response parameters
   LEPSILON=     F    determine dielectric tensor
   LRPA    =     F    only Hartree local field effects (RPA)
   LNABLA  =     F    use nabla operator in PAW spheres
   LVEL    =     F    velocity operator in full k-point grid
   CSHIFT  =0.1000    complex shift for real part using Kramers Kronig
   OMEGAMAX=  -1.0    maximum frequency
   DEG_THRESHOLD= 0.2000000E-02 threshold for treating states as degnerate
   RTIME   =   -0.100 relaxation time in fs
  (WPLASMAI=    0.000 imaginary part of plasma frequency in eV, 0.658/RTIME)
   DFIELD  = 0.0000000 0.0000000 0.0000000 field for delta impulse in time
 
  Optional k-point grid parameters
   LKPOINTS_OPT  =     F    use optional k-point grid
   KPOINTS_OPT_MODE=     1    mode for optional k-point grid
 
 Orbital magnetization related:
   ORBITALMAG=     F  switch on orbital magnetization
   LCHIMAG   =     F  perturbation theory with respect to B field
   DQ        =  0.001000  dq finite difference perturbation B field
   LLRAUG    =     F  two centre corrections for induced B field
   LBONE     =     F  B-component reconstruction in AE one-centre
   LVGVCALC  =     T  calculate vGv susceptibility
   LVGVAPPL  =     F  apply vGv susceptibility instead of pGv for G=0

 Random number generation:
   RANDOM_GENERATOR = DEFAULT
   PCG_SEED         = not used


--------------------------------------------------------------------------------------------------------


 Static calculation
 charge density and potential will be updated during run
 non-spin polarized calculation
 Variant of blocked Davidson
 Davidson routine will perform the subspace rotation
 perform sub-space diagonalisation
    after iterative eigenvector-optimisation
 modified Broyden-mixing scheme, WC =      100.0
 initial mixing is a Kerker type mixing with AMIX =  0.4000 and BMIX =      1.0000
 Hartree-type preconditioning will be used
 using additional bands           13
 real space projection scheme for non local part
 calculate Harris-corrections to forces 
   (improved forces if not selfconsistent)
 use gradient corrections 
 use of overlap-Matrix (Vanderbilt PP)
 Gauss-broadening in eV      SIGMA  =   0.05


--------------------------------------------------------------------------------------------------------


  energy-cutoff  :      520.00
  volume of cell :     3375.00
      direct lattice vectors                 reciprocal lattice vectors
    15.000000000  0.000000000  0.000000000     0.066666667  0.000000000  0.000000000
     0.000000000 15.000000000  0.000000000     0.000000000  0.066666667  0.000000000
     0.000000000  0.000000000 15.000000000     0.000000000  0.000000000  0.066666667

  length of vectors
    15.000000000 15.000000000 15.000000000     0.066666667  0.066666667  0.066666667


 
 k-points in units of 2pi/SCALE and weight: K-Spacing Value to Generate K-Mesh: 1.00
   0.00000000  0.00000000  0.00000000       1.000
 
 k-points in reciprocal lattice and weights: K-Spacing Value to Generate K-Mesh: 1.00
   0.00000000  0.00000000  0.00000000       1.000
 
 position of ions in fractional coordinates (direct lattice) 
   0.52933334  0.52966668  0.39486666
   0.49693333  0.46953335  0.45266666
   0.50293334  0.46213334  0.54399999
   0.47260002  0.51993332  0.60059999
   0.51586666  0.52773333  0.32306668
   0.56159999  0.58506667  0.43413334
   0.46780001  0.40953334  0.42113333
   0.53093335  0.40186666  0.56933333
   0.43966665  0.58340003  0.58646666
   0.48226668  0.51120001  0.67380002
 
 position of ions in cartesian coordinates  (Angst):
   7.94000006  7.94500017  5.92299986
   7.45400000  7.04300022  6.78999996
   7.54400015  6.93200016  8.15999985
   7.08900023  7.79899979  9.00899982
   7.73799992  7.91599989  4.84600019
   8.42399979  8.77600002  6.51200008
   7.01700020  6.14300013  6.31699991
   7.96400023  6.02799988  8.53999996
   6.59499979  8.75100040  8.79699993
   7.23400021  7.66800022 10.10700035
 


--------------------------------------------------------------------------------------------------------


 k-point   1 :   0.0000 0.0000 0.0000  plane waves:   90879

 maximum and minimum number of plane-waves per node :     45467    45412

 maximum number of plane-waves:     90879
 maximum index in each direction: 
   IXMAX=   27   IYMAX=   27   IZMAX=   27
   IXMIN=  -27   IYMIN=  -27   IZMIN=  -27


 real space projection operators:
  total allocation   :       1184.71 KBytes
  max/ min on nodes  :        592.41        592.30


 parallel 3D FFT for wavefunctions:
    minimum data exchange during FFTs selected (reduces bandwidth)
 parallel 3D FFT for charge:
    minimum data exchange during FFTs selected (reduces bandwidth)


 total amount of memory used by VASP MPI-rank0   224781. kBytes
=======================================================================

   base      :      30000. kBytes
   nonlr-proj:       1257. kBytes
   fftplans  :     123538. kBytes
   grid      :      67787. kBytes
   one-center:         15. kBytes
   wavefun   :       2184. kBytes
 
     INWAV:  cpu time      0.0000: real time      0.0000
 Broyden mixing: mesh for mixing (old mesh)
   NGX = 55   NGY = 55   NGZ = 55
  (NGX  =224   NGY  =224   NGZ  =224)
  gives a total of 166375 points

 initial charge density was supplied:
 charge density of overlapping atoms calculated
 number of electron      22.0000000 magnetization 
 keeping initial charge density in first step


--------------------------------------------------------------------------------------------------------


 Maximum index for non-local projection operator         1515
 Maximum index for augmentation-charges         2482 (set IRDMAX)


--------------------------------------------------------------------------------------------------------


 First call to EWALD:  gamma=   0.118
 Maximum number of real-space cells 3x 3x 3
 Maximum number of reciprocal cells 3x 3x 3

    FEWALD:  cpu time      0.0010: real time      0.0011


--------------------------------------- Ionic step        1  -------------------------------------------




--------------------------------------- Iteration      1(   1)  ---------------------------------------


    POTLOK:  cpu time      0.3344: real time      0.3364
    SETDIJ:  cpu time      0.1927: real time      0.1936
     EDDAV:  cpu time      0.4185: real time      0.4208
       DOS:  cpu time      0.0002: real time      0.0002
    --------------------------------------------
      LOOP:  cpu time      0.9458: real time      0.9510

 eigenvalue-minimisations  :    64
 total energy-change (2. order) : 0.1103865E+03  (-0.5302006E+03)
 number of electron      22.0000000 magnetization 
 augmentation part       22.0000000 magnetization 

 Free energy of the ion-electron system (eV)
  ---------------------------------------------------
  alpha Z        PSCENC =         0.62641250
  Ewald energy   TEWEN  =       914.79994268
  -Hartree energ DENC   =     -1332.05282452
  -exchange      EXHF   =         0.00000000
  -V(xc)+E(xc)   XCENC  =        67.65281892
  PAW double counting   =       156.01372664     -160.66969168
  entropy T*S    EENTRO =        -0.00012695
  eigenvalues    EBANDS =      -199.50119282
  atomic energy  EATOM  =       663.51739852
  Solvation  Ediel_sol  =         0.00000000
  ---------------------------------------------------
  free energy    TOTEN  =       110.38646331 eV

  energy without entropy =      110.38659025  energy(sigma->0) =      110.38652678


--------------------------------------------------------------------------------------------------------




--------------------------------------- Iteration      1(   2)  ---------------------------------------


     EDDAV:  cpu time      0.4833: real time      0.4860
       DOS:  cpu time      0.0002: real time      0.0002
    --------------------------------------------
      LOOP:  cpu time      0.4835: real time      0.4861

 eigenvalue-minimisations  :    80
 total energy-change (2. order) :-0.1298498E+03  (-0.1270232E+03)
 number of electron      22.0000000 magnetization 
 augmentation part       22.0000000 magnetization 

 Free energy of the ion-electron system (eV)
  ---------------------------------------------------
  alpha Z        PSCENC =         0.62641250
  Ewald energy   TEWEN  =       914.79994268
  -Hartree energ DENC   =     -1332.05282452
  -exchange      EXHF   =         0.00000000
  -V(xc)+E(xc)   XCENC  =        67.65281892
  PAW double counting   =       156.01372664     -160.66969168
  entropy T*S    EENTRO =        -0.00000000
  eigenvalues    EBANDS =      -329.35107412
  atomic energy  EATOM  =       663.51739852
  Solvation  Ediel_sol  =         0.00000000
  ---------------------------------------------------
  free energy    TOTEN  =       -19.46329105 eV

  energy without entropy =      -19.46329105  energy(sigma->0) =      -19.46329105


--------------------------------------------------------------------------------------------------------




--------------------------------------- Iteration      1(   3)  ---------------------------------------


     EDDAV:  cpu time      0.4032: real time      0.4055
       DOS:  cpu time      0.0001: real time      0.0001
    --------------------------------------------
      LOOP:  cpu time      0.4033: real time      0.4056

 eigenvalue-minimisations  :    64
 total energy-change (2. order) :-0.4064262E+02  (-0.4050230E+02)
 number of electron      22.0000000 magnetization 
 augmentation part       22.0000000 magnetization 

 Free energy of the ion-electron system (eV)
  ---------------------------------------------------
  alpha Z        PSCENC =         0.62641250
  Ewald energy   TEWEN  =       914.79994268
  -Hartree energ DENC   =     -1332.05282452
  -exchange      EXHF   =         0.00000000
  -V(xc)+E(xc)   XCENC  =        67.65281892
  PAW double counting   =       156.01372664     -160.66969168
  entropy T*S    EENTRO =        -0.00000000
  eigenvalues    EBANDS =      -369.99369813
  atomic energy  EATOM  =       663.51739852
  Solvation  Ediel_sol  =         0.00000000
  ---------------------------------------------------
  free energy    TOTEN  =       -60.10591506 eV

  energy without entropy =      -60.10591506  energy(sigma->0) =      -60.10591506


--------------------------------------------------------------------------------------------------------




--------------------------------------- Iteration      1(   4)  ---------------------------------------


     EDDAV:  cpu time      0.4046: real time      0.4070
       DOS:  cpu time      0.0001: real time      0.0001
    --------------------------------------------
      LOOP:  cpu time      0.4047: real time      0.4071

 eigenvalue-minimisations  :    64
 total energy-change (2. order) :-0.3415034E+01  (-0.3406980E+01)
 number of electron      22.0000000 magnetization 
 augmentation part       22.0000000 magnetization 

 Free energy of the ion-electron system (eV)
  ---------------------------------------------------
  alpha Z        PSCENC =         0.62641250
  Ewald energy   TEWEN  =       914.79994268
  -Hartree energ DENC   =     -1332.05282452
  -exchange      EXHF   =         0.00000000
  -V(xc)+E(xc)   XCENC  =        67.65281892
  PAW double counting   =       156.01372664     -160.66969168
  entropy T*S    EENTRO =        -0.00000000
  eigenvalues    EBANDS =      -373.40873165
  atomic energy  EATOM  =       663.51739852
  Solvation  Ediel_sol  =         0.00000000
  ---------------------------------------------------
  free energy    TOTEN  =       -63.52094858 eV

  energy without entropy =      -63.52094858  energy(sigma->0) =      -63.52094858


--------------------------------------------------------------------------------------------------------




--------------------------------------- Iteration      1(   5)  ---------------------------------------


     EDDAV:  cpu time      0.4065: real time      0.4088
       DOS:  cpu time      0.0001: real time      0.0001
    CHARGE:  cpu time      0.2001: real time      0.2009
    MIXING:  cpu time      0.0132: real time      0.0132
    --------------------------------------------
      LOOP:  cpu time      0.6199: real time      0.6231

 eigenvalue-minimisations  :    64
 total energy-change (2. order) :-0.7661954E-01  (-0.7659306E-01)
 number of electron      22.0000000 magnetization 
 augmentation part        0.6039545 magnetization 

 Broyden mixing:
  rms(total) = 0.12319E+01    rms(broyden)= 0.12317E+01
  rms(prec ) = 0.14815E+01
  weight for this iteration     100.00

 Free energy of the ion-electron system (eV)
  ---------------------------------------------------
  alpha Z        PSCENC =         0.62641250
  Ewald energy   TEWEN  =       914.79994268
  -Hartree energ DENC   =     -1332.05282452
  -exchange      EXHF   =         0.00000000
  -V(xc)+E(xc)   XCENC  =        67.65281892
  PAW double counting   =       156.01372664     -160.66969168
  entropy T*S    EENTRO =        -0.00000000
  eigenvalues    EBANDS =      -373.48535118
  atomic energy  EATOM  =       663.51739852
  Solvation  Ediel_sol  =         0.00000000
  ---------------------------------------------------
  free energy    TOTEN  =       -63.59756811 eV

  energy without entropy =      -63.59756811  energy(sigma->0) =      -63.59756811


--------------------------------------------------------------------------------------------------------




--------------------------------------- Iteration      1(   6)  ---------------------------------------


    POTLOK:  cpu time      0.3070: real time      0.3087
    SETDIJ:  cpu time      0.1934: real time      0.1942
     EDDAV:  cpu time      0.4083: real time      0.4106
       DOS:  cpu time      0.0001: real time      0.0001
    CHARGE:  cpu time      0.1986: real time      0.1994
    MIXING:  cpu time      0.0087: real time      0.0087
    --------------------------------------------
      LOOP:  cpu time      1.1160: real time      1.1217

 eigenvalue-minimisations  :    64
 total energy-change (2. order) : 0.5795122E+01  (-0.8447443E+00)
 number of electron      22.0000000 magnetization 
 augmentation part        0.5528188 magnetization 

 Broyden mixing:
  rms(total) = 0.58879E+00    rms(broyden)= 0.58876E+00
  rms(prec ) = 0.69817E+00
  weight for this iteration     100.00

 eigenvalues of (default mixing * dielectric matrix)
  average eigenvalue GAMMA=   1.6244
  1.6244

 Free energy of the ion-electron system (eV)
  ---------------------------------------------------
  alpha Z        PSCENC =         0.62641250
  Ewald energy   TEWEN  =       914.79994268
  -Hartree energ DENC   =     -1382.04969958
  -exchange      EXHF   =         0.00000000
  -V(xc)+E(xc)   XCENC  =        70.17622129
  PAW double counting   =       235.98227049     -241.23962631
  entropy T*S    EENTRO =        -0.00000000
  eigenvalues    EBANDS =      -319.61536615
  atomic energy  EATOM  =       663.51739852
  Solvation  Ediel_sol  =         0.00000000
  ---------------------------------------------------
  free energy    TOTEN  =       -57.80244654 eV

  energy without entropy =      -57.80244654  energy(sigma->0) =      -57.80244654


--------------------------------------------------------------------------------------------------------




--------------------------------------- Iteration      1(   7)  ---------------------------------------


    POTLOK:  cpu time      0.3081: real time      0.3098
    SETDIJ:  cpu time      0.1931: real time      0.1940
     EDDAV:  cpu time      0.4128: real time      0.4150
       DOS:  cpu time      0.0001: real time      0.0001
    CHARGE:  cpu time      0.1995: real time      0.2003
    MIXING:  cpu time      0.0102: real time      0.0102
    --------------------------------------------
      LOOP:  cpu time      1.1239: real time      1.1295

 eigenvalue-minimisations  :    64
 total energy-change (2. order) : 0.1298415E+01  (-0.4927488E+00)
 number of electron      22.0000000 magnetization 
 augmentation part        0.5156497 magnetization 

 Broyden mixing:
  rms(total) = 0.23118E+00    rms(broyden)= 0.23111E+00
  rms(prec ) = 0.26405E+00
  weight for this iteration     100.00

 eigenvalues of (default mixing * dielectric matrix)
  average eigenvalue GAMMA=   1.9675
  1.9675  1.9675

 Free energy of the ion-electron system (eV)
  ---------------------------------------------------
  alpha Z        PSCENC =         0.62641250
  Ewald energy   TEWEN  =       914.79994268
  -Hartree energ DENC   =     -1421.99075774
  -exchange      EXHF   =         0.00000000
  -V(xc)+E(xc)   XCENC  =        72.44593656
  PAW double counting   =       304.68408080     -310.23009286
  entropy T*S    EENTRO =        -0.00000000
  eigenvalues    EBANDS =      -280.35695188
  atomic energy  EATOM  =       663.51739852
  Solvation  Ediel_sol  =         0.00000000
  ---------------------------------------------------
  free energy    TOTEN  =       -56.50403142 eV

  energy without entropy =      -56.50403142  energy(sigma->0) =      -56.50403142


--------------------------------------------------------------------------------------------------------




--------------------------------------- Iteration      1(   8)  ---------------------------------------


    POTLOK:  cpu time      0.3118: real time      0.3135
    SETDIJ:  cpu time      0.1935: real time      0.1943
     EDDAV:  cpu time      0.4518: real time      0.4543
       DOS:  cpu time      0.0001: real time      0.0001
    CHARGE:  cpu time      0.2002: real time      0.2010
    MIXING:  cpu time      0.0087: real time      0.0088
    --------------------------------------------
      LOOP:  cpu time      1.1662: real time      1.1720

 eigenvalue-minimisations  :    72
 total energy-change (2. order) : 0.1644095E+00  (-0.4249169E-01)
 number of electron      22.0000000 magnetization 
 augmentation part        0.5184018 magnetization 

 Broyden mixing:
  rms(total) = 0.52456E-01    rms(broyden)= 0.52451E-01
  rms(prec ) = 0.83671E-01
  weight for this iteration     100.00

 eigenvalues of (default mixing * dielectric matrix)
  average eigenvalue GAMMA=   1.6352
  2.3561  1.0665  1.4831

 Free energy of the ion-electron system (eV)
  ---------------------------------------------------
  alpha Z        PSCENC =         0.62641250
  Ewald energy   TEWEN  =       914.79994268
  -Hartree energ DENC   =     -1428.29191143
  -exchange      EXHF   =         0.00000000
  -V(xc)+E(xc)   XCENC  =        72.99889189
  PAW double counting   =       310.79478298     -316.16405575
  entropy T*S    EENTRO =        -0.00000000
  eigenvalues    EBANDS =      -274.62108330
  atomic energy  EATOM  =       663.51739852
  Solvation  Ediel_sol  =         0.00000000
  ---------------------------------------------------
  free energy    TOTEN  =       -56.33962190 eV

  energy without entropy =      -56.33962190  energy(sigma->0) =      -56.33962190


--------------------------------------------------------------------------------------------------------




--------------------------------------- Iteration      1(   9)  ---------------------------------------


    POTLOK:  cpu time      0.3117: real time      0.3135
    SETDIJ:  cpu time      0.1915: real time      0.1923
     EDDAV:  cpu time      0.4476: real time      0.4501
       DOS:  cpu time      0.0001: real time      0.0001
    CHARGE:  cpu time      0.1994: real time      0.2002
    MIXING:  cpu time      0.0097: real time      0.0098
    --------------------------------------------
      LOOP:  cpu time      1.1601: real time      1.1660

 eigenvalue-minimisations  :    72
 total energy-change (2. order) : 0.3052959E-01  (-0.9025796E-02)
 number of electron      22.0000000 magnetization 
 augmentation part        0.5140511 magnetization 

 Broyden mixing:
  rms(total) = 0.22357E-01    rms(broyden)= 0.22352E-01
  rms(prec ) = 0.45488E-01
  weight for this iteration     100.00

 eigenvalues of (default mixing * dielectric matrix)
  average eigenvalue GAMMA=   1.4766
  2.2716  1.6260  1.0044  1.0044

 Free energy of the ion-electron system (eV)
  ---------------------------------------------------
  alpha Z        PSCENC =         0.62641250
  Ewald energy   TEWEN  =       914.79994268
  -Hartree energ DENC   =     -1433.86207662
  -exchange      EXHF   =         0.00000000
  -V(xc)+E(xc)   XCENC  =        73.24449606
  PAW double counting   =       317.01449311     -322.42075594
  entropy T*S    EENTRO =        -0.00000000
  eigenvalues    EBANDS =      -269.22900262
  atomic energy  EATOM  =       663.51739852
  Solvation  Ediel_sol  =         0.00000000
  ---------------------------------------------------
  free energy    TOTEN  =       -56.30909232 eV

  energy without entropy =      -56.30909232  energy(sigma->0) =      -56.30909232


--------------------------------------------------------------------------------------------------------




--------------------------------------- Iteration      1(  10)  ---------------------------------------


    POTLOK:  cpu time      0.3137: real time      0.3154
    SETDIJ:  cpu time      0.1931: real time      0.1939
     EDDAV:  cpu time      0.3707: real time      0.3727
       DOS:  cpu time      0.0001: real time      0.0001
    CHARGE:  cpu time      0.1975: real time      0.1983
    MIXING:  cpu time      0.0093: real time      0.0093
    --------------------------------------------
      LOOP:  cpu time      1.0843: real time      1.0897

 eigenvalue-minimisations  :    56
 total energy-change (2. order) : 0.4977453E-02  (-0.1309576E-02)
 number of electron      22.0000000 magnetization 
 augmentation part        0.5126562 magnetization 

 Broyden mixing:
  rms(total) = 0.13223E-01    rms(broyden)= 0.13219E-01
  rms(prec ) = 0.30244E-01
  weight for this iteration     100.00

 eigenvalues of (default mixing * dielectric matrix)
  average eigenvalue GAMMA=   1.6548
  2.4293  2.4293  1.1836  1.1836  1.0481

 Free energy of the ion-electron system (eV)
  ---------------------------------------------------
  alpha Z        PSCENC =         0.62641250
  Ewald energy   TEWEN  =       914.79994268
  -Hartree energ DENC   =     -1436.87605185
  -exchange      EXHF   =         0.00000000
  -V(xc)+E(xc)   XCENC  =        73.30362425
  PAW double counting   =       315.81203218     -321.21663426
  entropy T*S    EENTRO =        -0.00000000
  eigenvalues    EBANDS =      -266.27083888
  atomic energy  EATOM  =       663.51739852
  Solvation  Ediel_sol  =         0.00000000
  ---------------------------------------------------
  free energy    TOTEN  =       -56.30411486 eV

  energy without entropy =      -56.30411486  energy(sigma->0) =      -56.30411486


--------------------------------------------------------------------------------------------------------




--------------------------------------- Iteration      1(  11)  ---------------------------------------


    POTLOK:  cpu time      0.3138: real time      0.3156
    SETDIJ:  cpu time      0.1926: real time      0.1934
     EDDAV:  cpu time      0.3696: real time      0.3716
       DOS:  cpu time      0.0001: real time      0.0001
    CHARGE:  cpu time      0.1988: real time      0.1996
    MIXING:  cpu time      0.0101: real time      0.0102
    --------------------------------------------
      LOOP:  cpu time      1.0850: real time      1.0905

 eigenvalue-minimisations  :    56
 total energy-change (2. order) : 0.9021061E-02  (-0.4938208E-03)
 number of electron      22.0000000 magnetization 
 augmentation part        0.5121484 magnetization 

 Broyden mixing:
  rms(total) = 0.74622E-02    rms(broyden)= 0.74620E-02
  rms(prec ) = 0.17717E-01
  weight for this iteration     100.00

 eigenvalues of (default mixing * dielectric matrix)
  average eigenvalue GAMMA=   1.7543
  3.3715  2.4195  1.5358  0.9467  1.1262  1.1262

 Free energy of the ion-electron system (eV)
  ---------------------------------------------------
  alpha Z        PSCENC =         0.62641250
  Ewald energy   TEWEN  =       914.79994268
  -Hartree energ DENC   =     -1440.21221122
  -exchange      EXHF   =         0.00000000
  -V(xc)+E(xc)   XCENC  =        73.39433417
  PAW double counting   =       315.04673637     -320.44038164
  entropy T*S    EENTRO =        -0.00000000
  eigenvalues    EBANDS =      -263.02732519
  atomic energy  EATOM  =       663.51739852
  Solvation  Ediel_sol  =         0.00000000
  ---------------------------------------------------
  free energy    TOTEN  =       -56.29509380 eV

  energy without entropy =      -56.29509380  energy(sigma->0) =      -56.29509380


--------------------------------------------------------------------------------------------------------




--------------------------------------- Iteration      1(  12)  ---------------------------------------


    POTLOK:  cpu time      0.3139: real time      0.3156
    SETDIJ:  cpu time      0.1930: real time      0.1938
     EDDAV:  cpu time      0.4485: real time      0.4510
       DOS:  cpu time      0.0001: real time      0.0001
    CHARGE:  cpu time      0.1998: real time      0.2006
    MIXING:  cpu time      0.0095: real time      0.0096
    --------------------------------------------
      LOOP:  cpu time      1.1647: real time      1.1706

 eigenvalue-minimisations  :    72
 total energy-change (2. order) :-0.4797736E-03  (-0.3059956E-03)
 number of electron      22.0000000 magnetization 
 augmentation part        0.5115088 magnetization 

 Broyden mixing:
  rms(total) = 0.61850E-02    rms(broyden)= 0.61845E-02
  rms(prec ) = 0.11855E-01
  weight for this iteration     100.00

 eigenvalues of (default mixing * dielectric matrix)
  average eigenvalue GAMMA=   1.9153
  4.2906  2.4226  2.1732  1.4672  0.9780  1.0379  1.0379

 Free energy of the ion-electron system (eV)
  ---------------------------------------------------
  alpha Z        PSCENC =         0.62641250
  Ewald energy   TEWEN  =       914.79994268
  -Hartree energ DENC   =     -1442.54805034
  -exchange      EXHF   =         0.00000000
  -V(xc)+E(xc)   XCENC  =        73.44469996
  PAW double counting   =       314.95173464     -320.34805981
  entropy T*S    EENTRO =        -0.00000000
  eigenvalues    EBANDS =      -260.73965172
  atomic energy  EATOM  =       663.51739852
  Solvation  Ediel_sol  =         0.00000000
  ---------------------------------------------------
  free energy    TOTEN  =       -56.29557357 eV

  energy without entropy =      -56.29557357  energy(sigma->0) =      -56.29557357


--------------------------------------------------------------------------------------------------------




--------------------------------------- Iteration      1(  13)  ---------------------------------------


    POTLOK:  cpu time      0.3080: real time      0.3096
    SETDIJ:  cpu time      0.1911: real time      0.1919
     EDDAV:  cpu time      0.4072: real time      0.4093
       DOS:  cpu time      0.0001: real time      0.0001
    CHARGE:  cpu time      0.1995: real time      0.2003
    MIXING:  cpu time      0.0126: real time      0.0126
    --------------------------------------------
      LOOP:  cpu time      1.1185: real time      1.1240

 eigenvalue-minimisations  :    64
 total energy-change (2. order) :-0.1018827E-01  (-0.2162735E-03)
 number of electron      22.0000000 magnetization 
 augmentation part        0.5117248 magnetization 

 Broyden mixing:
  rms(total) = 0.31775E-02    rms(broyden)= 0.31772E-02
  rms(prec ) = 0.63269E-02
  weight for this iteration     100.00

 eigenvalues of (default mixing * dielectric matrix)
  average eigenvalue GAMMA=   1.9927
  5.0307  2.7436  2.2022  1.4466  1.4466  0.9736  1.0490  1.0490

 Free energy of the ion-electron system (eV)
  ---------------------------------------------------
  alpha Z        PSCENC =         0.62641250
  Ewald energy   TEWEN  =       914.79994268
  -Hartree energ DENC   =     -1443.09197845
  -exchange      EXHF   =         0.00000000
  -V(xc)+E(xc)   XCENC  =        73.43304909
  PAW double counting   =       314.59325183     -319.98687413
  entropy T*S    EENTRO =        -0.00000000
  eigenvalues    EBANDS =      -260.19696388
  atomic energy  EATOM  =       663.51739852
  Solvation  Ediel_sol  =         0.00000000
  ---------------------------------------------------
  free energy    TOTEN  =       -56.30576184 eV

  energy without entropy =      -56.30576184  energy(sigma->0) =      -56.30576184


--------------------------------------------------------------------------------------------------------




--------------------------------------- Iteration      1(  14)  ---------------------------------------


    POTLOK:  cpu time      0.3077: real time      0.3094
    SETDIJ:  cpu time      0.1922: real time      0.1930
     EDDAV:  cpu time      0.3706: real time      0.3726
       DOS:  cpu time      0.0001: real time      0.0001
    CHARGE:  cpu time      0.1997: real time      0.2005
    MIXING:  cpu time      0.0091: real time      0.0091
    --------------------------------------------
      LOOP:  cpu time      1.0794: real time      1.0847

 eigenvalue-minimisations  :    56
 total energy-change (2. order) :-0.5588723E-02  (-0.8151414E-04)
 number of electron      22.0000000 magnetization 
 augmentation part        0.5115960 magnetization 

 Broyden mixing:
  rms(total) = 0.19135E-02    rms(broyden)= 0.19134E-02
  rms(prec ) = 0.37263E-02
  weight for this iteration     100.00

 eigenvalues of (default mixing * dielectric matrix)
  average eigenvalue GAMMA=   2.1511
  6.0590  3.4819  2.4171  1.8784  1.2541  1.2541  1.0593  0.9780  0.9780

 Free energy of the ion-electron system (eV)
  ---------------------------------------------------
  alpha Z        PSCENC =         0.62641250
  Ewald energy   TEWEN  =       914.79994268
  -Hartree energ DENC   =     -1443.47150848
  -exchange      EXHF   =         0.00000000
  -V(xc)+E(xc)   XCENC  =        73.42865176
  PAW double counting   =       314.69890239     -320.09413352
  entropy T*S    EENTRO =        -0.00000000
  eigenvalues    EBANDS =      -259.81701641
  atomic energy  EATOM  =       663.51739852
  Solvation  Ediel_sol  =         0.00000000
  ---------------------------------------------------
  free energy    TOTEN  =       -56.31135056 eV

  energy without entropy =      -56.31135056  energy(sigma->0) =      -56.31135056


--------------------------------------------------------------------------------------------------------




--------------------------------------- Iteration      1(  15)  ---------------------------------------


    POTLOK:  cpu time      0.3031: real time      0.3049
    SETDIJ:  cpu time      0.1923: real time      0.1931
     EDDAV:  cpu time      0.4478: real time      0.4503
       DOS:  cpu time      0.0001: real time      0.0001
    CHARGE:  cpu time      0.1995: real time      0.2003
    MIXING:  cpu time      0.0111: real time      0.0111
    --------------------------------------------
      LOOP:  cpu time      1.1539: real time      1.1598

 eigenvalue-minimisations  :    72
 total energy-change (2. order) :-0.4152846E-02  (-0.6914678E-04)
 number of electron      22.0000000 magnetization 
 augmentation part        0.5116101 magnetization 

 Broyden mixing:
  rms(total) = 0.13636E-02    rms(broyden)= 0.13635E-02
  rms(prec ) = 0.20969E-02
  weight for this iteration     100.00

 eigenvalues of (default mixing * dielectric matrix)
  average eigenvalue GAMMA=   2.1986
  6.8098  3.8408  2.3576  2.0456  1.4724  1.4724  1.0297  1.0297  0.9641  0.9641

 Free energy of the ion-electron system (eV)
  ---------------------------------------------------
  alpha Z        PSCENC =         0.62641250
  Ewald energy   TEWEN  =       914.79994268
  -Hartree energ DENC   =     -1443.43255717
  -exchange      EXHF   =         0.00000000
  -V(xc)+E(xc)   XCENC  =        73.41739974
  PAW double counting   =       314.72635637     -320.12052402
  entropy T*S    EENTRO =        -0.00000000
  eigenvalues    EBANDS =      -259.84993203
  atomic energy  EATOM  =       663.51739852
  Solvation  Ediel_sol  =         0.00000000
  ---------------------------------------------------
  free energy    TOTEN  =       -56.31550341 eV

  energy without entropy =      -56.31550341  energy(sigma->0) =      -56.31550341


--------------------------------------------------------------------------------------------------------




--------------------------------------- Iteration      1(  16)  ---------------------------------------


    POTLOK:  cpu time      0.3010: real time      0.3026
    SETDIJ:  cpu time      0.1912: real time      0.1920
     EDDAV:  cpu time      0.4901: real time      0.4928
       DOS:  cpu time      0.0001: real time      0.0001
    CHARGE:  cpu time      0.1971: real time      0.1979
    MIXING:  cpu time      0.0122: real time      0.0123
    --------------------------------------------
      LOOP:  cpu time      1.1917: real time      1.1978

 eigenvalue-minimisations  :    80
 total energy-change (2. order) :-0.1117178E-02  (-0.8661136E-05)
 number of electron      22.0000000 magnetization 
 augmentation part        0.5115378 magnetization 

 Broyden mixing:
  rms(total) = 0.51650E-03    rms(broyden)= 0.51637E-03
  rms(prec ) = 0.10253E-02
  weight for this iteration     100.00

 eigenvalues of (default mixing * dielectric matrix)
  average eigenvalue GAMMA=   2.2864
  7.6201  4.3922  2.4648  2.4648  1.6337  1.2578  1.2578  1.0157  1.0157  1.0138
  1.0138

 Free energy of the ion-electron system (eV)
  ---------------------------------------------------
  alpha Z        PSCENC =         0.62641250
  Ewald energy   TEWEN  =       914.79994268
  -Hartree energ DENC   =     -1443.51700229
  -exchange      EXHF   =         0.00000000
  -V(xc)+E(xc)   XCENC  =        73.41718890
  PAW double counting   =       314.72627694     -320.12085908
  entropy T*S    EENTRO =        -0.00000000
  eigenvalues    EBANDS =      -259.76597875
  atomic energy  EATOM  =       663.51739852
  Solvation  Ediel_sol  =         0.00000000
  ---------------------------------------------------
  free energy    TOTEN  =       -56.31662059 eV

  energy without entropy =      -56.31662059  energy(sigma->0) =      -56.31662059


--------------------------------------------------------------------------------------------------------




--------------------------------------- Iteration      1(  17)  ---------------------------------------


    POTLOK:  cpu time      0.2993: real time      0.3009
    SETDIJ:  cpu time      0.1929: real time      0.1937
     EDDAV:  cpu time      0.4089: real time      0.4111
       DOS:  cpu time      0.0001: real time      0.0001
    CHARGE:  cpu time      0.1988: real time      0.1996
    MIXING:  cpu time      0.0116: real time      0.0117
    --------------------------------------------
      LOOP:  cpu time      1.1116: real time      1.1171

 eigenvalue-minimisations  :    64
 total energy-change (2. order) :-0.6416698E-03  (-0.4643007E-05)
 number of electron      22.0000000 magnetization 
 augmentation part        0.5115110 magnetization 

 Broyden mixing:
  rms(total) = 0.44320E-03    rms(broyden)= 0.44314E-03
  rms(prec ) = 0.68674E-03
  weight for this iteration     100.00

 eigenvalues of (default mixing * dielectric matrix)
  average eigenvalue GAMMA=   2.3445
  8.0550  4.8682  2.6448  2.2894  2.0971  1.7105  1.3411  0.9675  1.0341  1.0341
  1.0460  1.0460

 Free energy of the ion-electron system (eV)
  ---------------------------------------------------
  alpha Z        PSCENC =         0.62641250
  Ewald energy   TEWEN  =       914.79994268
  -Hartree energ DENC   =     -1443.53205945
  -exchange      EXHF   =         0.00000000
  -V(xc)+E(xc)   XCENC  =        73.41676049
  PAW double counting   =       314.73737217     -320.13209075
  entropy T*S    EENTRO =        -0.00000000
  eigenvalues    EBANDS =      -259.75099841
  atomic energy  EATOM  =       663.51739852
  Solvation  Ediel_sol  =         0.00000000
  ---------------------------------------------------
  free energy    TOTEN  =       -56.31726226 eV

  energy without entropy =      -56.31726226  energy(sigma->0) =      -56.31726226


--------------------------------------------------------------------------------------------------------




--------------------------------------- Iteration      1(  18)  ---------------------------------------


    POTLOK:  cpu time      0.2959: real time      0.2975
    SETDIJ:  cpu time      0.1917: real time      0.1925
     EDDAV:  cpu time      0.4475: real time      0.4499
       DOS:  cpu time      0.0001: real time      0.0001
    CHARGE:  cpu time      0.1985: real time      0.1993
    MIXING:  cpu time      0.0097: real time      0.0097
    --------------------------------------------
      LOOP:  cpu time      1.1434: real time      1.1491

 eigenvalue-minimisations  :    72
 total energy-change (2. order) :-0.2864932E-03  (-0.1557175E-05)
 number of electron      22.0000000 magnetization 
 augmentation part        0.5115218 magnetization 

 Broyden mixing:
  rms(total) = 0.14784E-03    rms(broyden)= 0.14772E-03
  rms(prec ) = 0.29599E-03
  weight for this iteration     100.00

 eigenvalues of (default mixing * dielectric matrix)
  average eigenvalue GAMMA=   2.3366
  8.4696  5.1595  3.1162  2.4461  2.0143  1.4907  1.4907  1.1110  1.1110  0.9796
  0.9796  1.0038  1.0038

 Free energy of the ion-electron system (eV)
  ---------------------------------------------------
  alpha Z        PSCENC =         0.62641250
  Ewald energy   TEWEN  =       914.79994268
  -Hartree energ DENC   =     -1443.53021018
  -exchange      EXHF   =         0.00000000
  -V(xc)+E(xc)   XCENC  =        73.41642504
  PAW double counting   =       314.72095287     -320.11542257
  entropy T*S    EENTRO =        -0.00000000
  eigenvalues    EBANDS =      -259.75304761
  atomic energy  EATOM  =       663.51739852
  Solvation  Ediel_sol  =         0.00000000
  ---------------------------------------------------
  free energy    TOTEN  =       -56.31754875 eV

  energy without entropy =      -56.31754875  energy(sigma->0) =      -56.31754875


--------------------------------------------------------------------------------------------------------




--------------------------------------- Iteration      1(  19)  ---------------------------------------


    POTLOK:  cpu time      0.2978: real time      0.2996
    SETDIJ:  cpu time      0.1919: real time      0.1928
     EDDAV:  cpu time      0.4079: real time      0.4101
       DOS:  cpu time      0.0001: real time      0.0001
    CHARGE:  cpu time      0.1990: real time      0.1998
    MIXING:  cpu time      0.0120: real time      0.0121
    --------------------------------------------
      LOOP:  cpu time      1.1088: real time      1.1144

 eigenvalue-minimisations  :    64
 total energy-change (2. order) :-0.7705189E-04  (-0.2200089E-06)
 number of electron      22.0000000 magnetization 
 augmentation part        0.5115157 magnetization 

 Broyden mixing:
  rms(total) = 0.11035E-03    rms(broyden)= 0.11023E-03
  rms(prec ) = 0.20319E-03
  weight for this iteration     100.00

 eigenvalues of (default mixing * dielectric matrix)
  average eigenvalue GAMMA=   2.4008
  8.7129  5.4630  3.4795  2.4533  2.4533  1.6915  1.6915  1.4312  1.0930  1.0930
  1.0059  1.0059  0.9713  1.0661

 Free energy of the ion-electron system (eV)
  ---------------------------------------------------
  alpha Z        PSCENC =         0.62641250
  Ewald energy   TEWEN  =       914.79994268
  -Hartree energ DENC   =     -1443.54032666
  -exchange      EXHF   =         0.00000000
  -V(xc)+E(xc)   XCENC  =        73.41652755
  PAW double counting   =       314.71749436     -320.11201452
  entropy T*S    EENTRO =        -0.00000000
  eigenvalues    EBANDS =      -259.74306023
  atomic energy  EATOM  =       663.51739852
  Solvation  Ediel_sol  =         0.00000000
  ---------------------------------------------------
  free energy    TOTEN  =       -56.31762580 eV

  energy without entropy =      -56.31762580  energy(sigma->0) =      -56.31762580


--------------------------------------------------------------------------------------------------------




--------------------------------------- Iteration      1(  20)  ---------------------------------------


    POTLOK:  cpu time      0.3017: real time      0.3034
    SETDIJ:  cpu time      0.1924: real time      0.1932
     EDDAV:  cpu time      0.4085: real time      0.4107
       DOS:  cpu time      0.0001: real time      0.0001
    CHARGE:  cpu time      0.1987: real time      0.1995
    MIXING:  cpu time      0.0132: real time      0.0132
    --------------------------------------------
      LOOP:  cpu time      1.1147: real time      1.1203

 eigenvalue-minimisations  :    64
 total energy-change (2. order) :-0.6568853E-04  (-0.1499134E-06)
 number of electron      22.0000000 magnetization 
 augmentation part        0.5115183 magnetization 

 Broyden mixing:
  rms(total) = 0.68071E-04    rms(broyden)= 0.67879E-04
  rms(prec ) = 0.10436E-03
  weight for this iteration     100.00

 eigenvalues of (default mixing * dielectric matrix)
  average eigenvalue GAMMA=   2.3834
  8.8419  5.7437  4.0090  2.7270  2.4185  1.8724  1.3956  1.3956  1.1619  1.1619
  1.0023  1.0023  0.9890  0.9890  1.0414

 Free energy of the ion-electron system (eV)
  ---------------------------------------------------
  alpha Z        PSCENC =         0.62641250
  Ewald energy   TEWEN  =       914.79994268
  -Hartree energ DENC   =     -1443.54186370
  -exchange      EXHF   =         0.00000000
  -V(xc)+E(xc)   XCENC  =        73.41637488
  PAW double counting   =       314.71934654     -320.11385881
  entropy T*S    EENTRO =        -0.00000000
  eigenvalues    EBANDS =      -259.74144410
  atomic energy  EATOM  =       663.51739852
  Solvation  Ediel_sol  =         0.00000000
  ---------------------------------------------------
  free energy    TOTEN  =       -56.31769149 eV

  energy without entropy =      -56.31769149  energy(sigma->0) =      -56.31769149


--------------------------------------------------------------------------------------------------------




--------------------------------------- Iteration      1(  21)  ---------------------------------------


    POTLOK:  cpu time      0.3063: real time      0.3080
    SETDIJ:  cpu time      0.1921: real time      0.1929
     EDDAV:  cpu time      0.4091: real time      0.4114
       DOS:  cpu time      0.0001: real time      0.0001
    CHARGE:  cpu time      0.1977: real time      0.1985
    MIXING:  cpu time      0.0129: real time      0.0129
    --------------------------------------------
      LOOP:  cpu time      1.1182: real time      1.1238

 eigenvalue-minimisations  :    64
 total energy-change (2. order) :-0.1014881E-04  (-0.1521975E-07)
 number of electron      22.0000000 magnetization 
 augmentation part        0.5115186 magnetization 

 Broyden mixing:
  rms(total) = 0.48451E-04    rms(broyden)= 0.48186E-04
  rms(prec ) = 0.70703E-04
  weight for this iteration     100.00

 eigenvalues of (default mixing * dielectric matrix)
  average eigenvalue GAMMA=   2.4143
  9.0152  5.9504  4.3335  2.8293  2.3462  2.2281  1.4217  1.4217  1.4953  1.4953
  1.0841  1.0841  1.0029  1.0029  0.9588  0.9588

 Free energy of the ion-electron system (eV)
  ---------------------------------------------------
  alpha Z        PSCENC =         0.62641250
  Ewald energy   TEWEN  =       914.79994268
  -Hartree energ DENC   =     -1443.54496213
  -exchange      EXHF   =         0.00000000
  -V(xc)+E(xc)   XCENC  =        73.41639151
  PAW double counting   =       314.71777456     -320.11228658
  entropy T*S    EENTRO =        -0.00000000
  eigenvalues    EBANDS =      -259.73837271
  atomic energy  EATOM  =       663.51739852
  Solvation  Ediel_sol  =         0.00000000
  ---------------------------------------------------
  free energy    TOTEN  =       -56.31770164 eV

  energy without entropy =      -56.31770164  energy(sigma->0) =      -56.31770164


--------------------------------------------------------------------------------------------------------




--------------------------------------- Iteration      1(  22)  ---------------------------------------


    POTLOK:  cpu time      0.3090: real time      0.3107
    SETDIJ:  cpu time      0.1930: real time      0.1938
     EDDAV:  cpu time      0.4105: real time      0.4127
       DOS:  cpu time      0.0001: real time      0.0001
    CHARGE:  cpu time      0.2007: real time      0.2015
    MIXING:  cpu time      0.0130: real time      0.0131
    --------------------------------------------
      LOOP:  cpu time      1.1263: real time      1.1319

 eigenvalue-minimisations  :    64
 total energy-change (2. order) :-0.9999449E-05  (-0.1827880E-07)
 number of electron      22.0000000 magnetization 
 augmentation part        0.5115182 magnetization 

 Broyden mixing:
  rms(total) = 0.29900E-04    rms(broyden)= 0.29467E-04
  rms(prec ) = 0.41701E-04
  weight for this iteration     100.00

 eigenvalues of (default mixing * dielectric matrix)
  average eigenvalue GAMMA=   2.4241
  9.0679  6.3072  4.6487  3.1764  2.4894  2.2954  1.9476  1.4641  1.2744  1.2744
  1.0183  1.0183  1.0809  1.0809  1.0880  0.9887  0.9887

 Free energy of the ion-electron system (eV)
  ---------------------------------------------------
  alpha Z        PSCENC =         0.62641250
  Ewald energy   TEWEN  =       914.79994268
  -Hartree energ DENC   =     -1443.54489576
  -exchange      EXHF   =         0.00000000
  -V(xc)+E(xc)   XCENC  =        73.41633007
  PAW double counting   =       314.71837981     -320.11290235
  entropy T*S    EENTRO =        -0.00000000
  eigenvalues    EBANDS =      -259.73837711
  atomic energy  EATOM  =       663.51739852
  Solvation  Ediel_sol  =         0.00000000
  ---------------------------------------------------
  free energy    TOTEN  =       -56.31771164 eV

  energy without entropy =      -56.31771164  energy(sigma->0) =      -56.31771164


--------------------------------------------------------------------------------------------------------




--------------------------------------- Iteration      1(  23)  ---------------------------------------


    POTLOK:  cpu time      0.3148: real time      0.3166
    SETDIJ:  cpu time      0.1924: real time      0.1932
     EDDAV:  cpu time      0.4137: real time      0.4159
       DOS:  cpu time      0.0001: real time      0.0001
    CHARGE:  cpu time      0.2000: real time      0.2008
    MIXING:  cpu time      0.0126: real time      0.0126
    --------------------------------------------
      LOOP:  cpu time      1.1336: real time      1.1392

 eigenvalue-minimisations  :    64
 total energy-change (2. order) :-0.2536831E-05  (-0.4133190E-08)
 number of electron      22.0000000 magnetization 
 augmentation part        0.5115179 magnetization 

 Broyden mixing:
  rms(total) = 0.16184E-04    rms(broyden)= 0.15376E-04
  rms(prec ) = 0.21962E-04
  weight for this iteration     100.00

 eigenvalues of (default mixing * dielectric matrix)
  average eigenvalue GAMMA=   2.4606
  9.1128  6.6349  4.9499  3.5027  2.6431  2.3996  1.9995  1.7330  1.3558  1.3558
  1.4550  1.0843  1.0843  1.0049  1.0049  0.9766  0.9970  0.9970

 Free energy of the ion-electron system (eV)
  ---------------------------------------------------
  alpha Z        PSCENC =         0.62641250
  Ewald energy   TEWEN  =       914.79994268
  -Hartree energ DENC   =     -1443.54595435
  -exchange      EXHF   =         0.00000000
  -V(xc)+E(xc)   XCENC  =        73.41636276
  PAW double counting   =       314.71917488     -320.11370270
  entropy T*S    EENTRO =        -0.00000000
  eigenvalues    EBANDS =      -259.73734846
  atomic energy  EATOM  =       663.51739852
  Solvation  Ediel_sol  =         0.00000000
  ---------------------------------------------------
  free energy    TOTEN  =       -56.31771418 eV

  energy without entropy =      -56.31771418  energy(sigma->0) =      -56.31771418


--------------------------------------------------------------------------------------------------------




--------------------------------------- Iteration      1(  24)  ---------------------------------------


    POTLOK:  cpu time      0.3140: real time      0.3158
    SETDIJ:  cpu time      0.1928: real time      0.1936
     EDDAV:  cpu time      0.3699: real time      0.3719
       DOS:  cpu time      0.0001: real time      0.0001
    CHARGE:  cpu time      0.1996: real time      0.2004
    MIXING:  cpu time      0.0126: real time      0.0127
    --------------------------------------------
      LOOP:  cpu time      1.0890: real time      1.0945

 eigenvalue-minimisations  :    56
 total energy-change (2. order) :-0.1521746E-05  (-0.3819405E-08)
 number of electron      22.0000000 magnetization 
 augmentation part        0.5115171 magnetization 

 Broyden mixing:
  rms(total) = 0.12363E-04    rms(broyden)= 0.11286E-04
  rms(prec ) = 0.15533E-04
  weight for this iteration     100.00

 eigenvalues of (default mixing * dielectric matrix)
  average eigenvalue GAMMA=   2.4452
  9.1619  6.8087  5.1092  3.6813  2.6158  2.5335  2.0429  2.0429  1.2912  1.2912
  1.3600  1.3600  1.0749  1.0749  1.0071  1.0071  0.9868  0.9868  1.0228

 Free energy of the ion-electron system (eV)
  ---------------------------------------------------
  alpha Z        PSCENC =         0.62641250
  Ewald energy   TEWEN  =       914.79994268
  -Hartree energ DENC   =     -1443.54688106
  -exchange      EXHF   =         0.00000000
  -V(xc)+E(xc)   XCENC  =        73.41639133
  PAW double counting   =       314.71963497     -320.11416694
  entropy T*S    EENTRO =        -0.00000000
  eigenvalues    EBANDS =      -259.73644770
  atomic energy  EATOM  =       663.51739852
  Solvation  Ediel_sol  =         0.00000000
  ---------------------------------------------------
  free energy    TOTEN  =       -56.31771570 eV

  energy without entropy =      -56.31771570  energy(sigma->0) =      -56.31771570


--------------------------------------------------------------------------------------------------------




--------------------------------------- Iteration      1(  25)  ---------------------------------------


    POTLOK:  cpu time      0.3159: real time      0.3176
    SETDIJ:  cpu time      0.1916: real time      0.1924
     EDDAV:  cpu time      0.4111: real time      0.4133
       DOS:  cpu time      0.0001: real time      0.0001
    --------------------------------------------
      LOOP:  cpu time      0.9187: real time      0.9234

 eigenvalue-minimisations  :    64
 total energy-change (2. order) :-0.5761356E-06  (-0.1110125E-08)
 number of electron      22.0000000 magnetization 
 augmentation part        0.5115171 magnetization 

 Free energy of the ion-electron system (eV)
  ---------------------------------------------------
  alpha Z        PSCENC =         0.62641250
  Ewald energy   TEWEN  =       914.79994268
  -Hartree energ DENC   =     -1443.54639534
  -exchange      EXHF   =         0.00000000
  -V(xc)+E(xc)   XCENC  =        73.41636856
  PAW double counting   =       314.71861187     -320.11313242
  entropy T*S    EENTRO =        -0.00000000
  eigenvalues    EBANDS =      -259.73692265
  atomic energy  EATOM  =       663.51739852
  Solvation  Ediel_sol  =         0.00000000
  ---------------------------------------------------
  free energy    TOTEN  =       -56.31771627 eV

  energy without entropy =      -56.31771627  energy(sigma->0) =      -56.31771627


--------------------------------------------------------------------------------------------------------




 average (electrostatic) potential at core
  the test charge radii are     0.6991  0.5201
  (the norm of the test charge is              1.0000)
       1 -58.5303       2 -58.7064       3 -58.7393       4 -58.4866       5 -42.1290
       6 -41.5622       7 -41.7613       8 -42.3623       9 -41.9104      10 -41.6259
 
 
 
 E-fermi :  -5.6968     XC(G=0):  -0.4369     alpha+bet : -0.1681

 Fermi energy:        -5.6968404061

 k-point     1 :       0.0000    0.0000    0.0000
  band No.  band energies     occupation 
      1     -20.3383      2.00000
      2     -18.0245      2.00000
      3     -15.2957      2.00000
      4     -12.8122      2.00000
      5     -12.0638      2.00000
      6     -10.7495      2.00000
      7     -10.5034      2.00000
      8      -8.7053      2.00000
      9      -8.2366      2.00000
     10      -7.1535      2.00000
     11      -5.9857      2.00000
     12      -1.4886      0.00000
     13      -0.5073      0.00000
     14       0.0050      0.00000
     15       0.1793      0.00000
     16       0.2449      0.00000
     17       0.4037      0.00000
     18       0.4095      0.00000
     19       0.5523      0.00000
     20       0.7229      0.00000
     21       0.9381      0.00000
     22       0.9585      0.00000
     23       0.9985      0.00000
     24       1.0810      0.00000


--------------------------------------------------------------------------------------------------------


 soft charge-density along one line, spin component           1
         0         1         2         3         4         5         6         7         8         9
 total charge-density along one line
 
 pseudopotential strength for first ion, spin component:           1
 10.249   0.020   0.002  -0.000  -0.000   0.002  -0.001   0.002
  0.020  -0.001  -0.000   0.000  -0.000   0.000  -0.000   0.000
  0.002  -0.000  -4.361   0.004  -0.007  -0.016   0.001  -0.002
 -0.000   0.000   0.004  -4.368   0.000   0.001  -0.017   0.000
 -0.000  -0.000  -0.007   0.000  -4.352  -0.002   0.000  -0.013
  0.002   0.000  -0.016   0.001  -0.002  -0.773   0.000  -0.000
 -0.001  -0.000   0.001  -0.017   0.000   0.000  -0.773  -0.000
  0.002   0.000  -0.002   0.000  -0.013  -0.000  -0.000  -0.772
 total augmentation occupancy for first ion, spin component:           1
  1.481  -1.063  -0.042   0.017  -0.014  -0.020   0.022  -0.018
 -1.063   0.865   0.081  -0.110   0.091   0.037  -0.043   0.028
 -0.042   0.081   1.125  -0.061   0.129   0.171  -0.019   0.047
  0.017  -0.110  -0.061   1.195  -0.004  -0.020   0.213   0.002
 -0.014   0.091   0.129  -0.004   0.989   0.047   0.002   0.117
 -0.020   0.037   0.171  -0.020   0.047   0.029  -0.006   0.011
  0.022  -0.043  -0.019   0.213   0.002  -0.006   0.040  -0.000
 -0.018   0.028   0.047   0.002   0.117   0.011  -0.000   0.016


------------------------ aborting loop because EDIFF is reached ----------------------------------------


    CHARGE:  cpu time      0.1983: real time      0.1991
    FORLOC:  cpu time      0.0317: real time      0.0318
    FORNL :  cpu time      1.0782: real time      1.0831
    STRESS:  cpu time      3.4194: real time      3.4353
    FORHAR:  cpu time      0.1104: real time      0.1109
    MIXING:  cpu time      0.0122: real time      0.0123
    OFIELD:  cpu time      0.0001: real time      0.0001

  FORCE on cell =-STRESS in cart. coord.  units (eV):
  Direction    XX          YY          ZZ          XY          YZ          ZX
  --------------------------------------------------------------------------------------
  Alpha Z     0.62641     0.62641     0.62641
  Ewald     -80.85944   266.53148   729.12758    -1.36553   -13.71757   -98.12030
  Hartree   265.95907   428.32177   749.26608     3.92218   -12.79578   -74.20511
  E(xc)     -78.08739   -76.82980   -76.16847    -0.02313     0.00730    -0.00665
  Local    -403.46771  -887.89919 -1660.84937    -4.89533    27.96988   173.50628
  n-local   -29.72614   -31.64796   -31.36689    -0.10366    -0.04502    -0.20201
  augment    -0.63689    -0.78092    -0.83089     0.02529    -0.01369    -0.00458
  Kinetic   326.61467   304.58921   294.45594     1.66902    -1.04058    -1.70080
  Fock        0.00000     0.00000     0.00000     0.00000     0.00000     0.00000
  -------------------------------------------------------------------------------------
  Total       0.42258     2.91100     4.26039    -0.77118     0.36453    -0.73318
  in kB       0.20061     1.38191     2.02249    -0.36609     0.17305    -0.34805
  external pressure =        1.20 kB  Pullay stress =        0.00 kB


 VOLUME and BASIS-vectors are now :
 -----------------------------------------------------------------------------
  energy-cutoff  :      520.00
  volume of cell :     3375.00
      direct lattice vectors                 reciprocal lattice vectors
    15.000000000  0.000000000  0.000000000     0.066666667  0.000000000  0.000000000
     0.000000000 15.000000000  0.000000000     0.000000000  0.066666667  0.000000000
     0.000000000  0.000000000 15.000000000     0.000000000  0.000000000  0.066666667

  length of vectors
    15.000000000 15.000000000 15.000000000     0.066666667  0.066666667  0.066666667


 FORCES acting on ions
    electron-ion (+dipol)            ewald-force                    non-local-force                 convergence-correction
 -----------------------------------------------------------------------------------------------
   -.544E+02 -.821E+02 0.126E+03   0.558E+02 0.833E+02 -.126E+03   -.134E+01 -.659E-01 0.228E+01   -.114E-04 -.171E-04 0.455E-04
   0.376E+02 0.675E+02 0.603E+02   -.384E+02 -.669E+02 -.634E+02   0.373E+00 -.208E+01 -.123E+01   0.183E-04 0.431E-04 -.784E-04
   -.365E+02 0.898E+02 -.501E+02   0.379E+02 -.903E+02 0.513E+02   -.803E+00 -.944E-01 -.203E+00   0.472E-04 -.321E-04 -.118E-03
   0.524E+02 -.779E+02 -.125E+03   -.534E+02 0.798E+02 0.128E+03   0.377E+00 0.287E+00 0.124E+01   -.126E-04 0.627E-04 0.599E-05
   0.599E+01 -.562E+01 0.663E+02   -.676E+01 0.560E+01 -.715E+02   0.110E+01 0.175E+00 0.556E+01   0.997E-06 0.218E-06 0.159E-04
   -.331E+02 -.539E+02 -.102E+02   0.352E+02 0.574E+02 0.117E+02   -.215E+01 -.367E+01 -.291E+01   -.712E-05 -.110E-04 -.334E-05
   0.281E+02 0.576E+02 0.339E+02   -.304E+02 -.619E+02 -.363E+02   0.212E+01 0.437E+01 0.238E+01   0.497E-05 0.106E-04 0.924E-06
   -.286E+02 0.627E+02 -.292E+02   0.314E+02 -.688E+02 0.318E+02   -.241E+01 0.512E+01 -.223E+01   0.141E-04 -.216E-04 -.462E-06
   0.326E+02 -.581E+02 -.527E+01   -.351E+02 0.629E+02 0.378E+01   0.257E+01 -.497E+01 0.979E+00   -.114E-04 0.280E-04 -.984E-05
   -.324E+01 0.329E+00 -.669E+02   0.380E+01 -.107E+01 0.715E+02   -.703E+00 0.563E+00 -.526E+01   0.418E-05 0.102E-05 0.281E-04
 -----------------------------------------------------------------------------------------------
   0.874E+00 0.359E+00 -.609E+00   0.311E-14 0.300E-13 0.853E-13   -.862E+00 -.358E+00 0.617E+00   0.473E-04 0.640E-04 -.114E-03
 
 
 POSITION                                       TOTAL-FORCE (eV/Angst)
 -----------------------------------------------------------------------------------
      7.94000      7.94500      5.92300        -0.010692      1.079428      1.895633
      7.45400      7.04300      6.79000        -0.424251     -1.457429     -4.362944
      7.54400      6.93200      8.16000         0.611690     -0.560806      0.941003
      7.08900      7.79900      9.00900        -0.576354      2.174760      3.387322
      7.73800      7.91600      4.84600         0.335806      0.152439      0.336219
      8.42400      8.77600      6.51200        -0.099521     -0.176547     -1.413563
      7.01700      6.14300      6.31700        -0.113331      0.040665      0.002644
      7.96400      6.02800      8.54000         0.405980     -0.927932      0.363758
      6.59500      8.75100      8.79700         0.012974     -0.150503     -0.513790
      7.23400      7.66800     10.10700        -0.142302     -0.174074     -0.636284
 -----------------------------------------------------------------------------------
    total drift:                                0.012449      0.001796      0.008698


--------------------------------------------------------------------------------------------------------



  FREE ENERGIE OF THE ION-ELECTRON SYSTEM (eV)
  ---------------------------------------------------
  free  energy   TOTEN  =       -56.31771627 eV

  energy  without entropy=      -56.31771627  energy(sigma->0) =      -56.31771627
 


--------------------------------------------------------------------------------------------------------


    POTLOK:  cpu time      0.5093: real time      0.5118


--------------------------------------------------------------------------------------------------------


 stress matrix after NEB project (eV)
      0.42258     -0.77118     -0.73318
     -0.77118      2.91100      0.36453
     -0.73318      0.36453      4.26039
  FORCES: max atom, RMS     4.619455    2.200253
  FORCE total and by dimension    6.957811    4.362944
  Stress total and by dimension    5.416064    4.260394
     LOOP+:  cpu time     30.7195: real time     30.8826
    4ORBIT:  cpu time      0.0000: real time      0.0000

 total amount of memory used by VASP MPI-rank0   224781. kBytes
=======================================================================

   base      :      30000. kBytes
   nonlr-proj:       1257. kBytes
   fftplans  :     123538. kBytes
   grid      :      67787. kBytes
   one-center:         15. kBytes
   wavefun   :       2184. kBytes
 
  
  
 General timing and accounting informations for this job:
 ========================================================
  
                  Total CPU time used (sec):       37.310
                            User time (sec):       34.104
                          System time (sec):        3.206
                         Elapsed time (sec):       38.899
  
                   Maximum memory used (kb):      559552.
                   Average memory used (kb):          N/A
  
                          Minor page faults:       172353
                          Major page faults:         5439
                 Voluntary context switches:         3448
