 vasp.6.4.2 20Jul23 (build Apr 10 2024 13:39:58) complex                        
  
 executed on             LinuxIFC date 2024.05.17  00:28:32
 running   16 mpi-ranks, on    1 nodes
 distrk:  each k-point on   16 cores,    1 groups
 distr:  one band on NCORE=   2 cores,    8 groups


--------------------------------------------------------------------------------------------------------


 INCAR:
   ISTART = 0
   ISPIN = 1
   LREAL = Auto
   ENCUT = 520
   NPAR = 8
   LPLANE = .TRUE.
   LSCALU = .FALSE.
   NSIM = 4
   LWAVE = .FALSE.
   LCHARG = .FALSE.
   ADDGRID = .TRUE.
   LASPH = .TRUE.
   PREC = Accurate
   ISMEAR = 0
   SIGMA = 0.05
   EDIFF = 1E-06
   NSW = 0
   TEBEG = 300
   TEEND = 700     	
   ISYM = 0
   NWRITE = 2

 POTCAR:   PAW_PBE C 08Apr2002                    
 POTCAR:   PAW_PBE H 15Jun2001                    
 POTCAR:   PAW_PBE C 08Apr2002                    
   VRHFIN =C: s2p2                                                                                  
   LEXCH  = PE                                                                                      
   EATOM  =   147.1560 eV,   10.8157 Ry                                                             
                                                                                                    
   TITEL  = PAW_PBE C 08Apr2002                                                                     
   LULTRA =        F    use ultrasoft PP ?                                                          
   IUNSCR =        0    unscreen: 0-lin 1-nonlin 2-no                                               
   RPACOR =     .000    partial core radius                                                         
   POMASS =   12.011; ZVAL   =    4.000    mass and valenz                                          
   RCORE  =    1.500    outmost cutoff radius                                                       
   RWIGS  =    1.630; RWIGS  =     .863    wigner-seitz radius (au A)                               
   ENMAX  =  400.000; ENMIN  =  300.000 eV                                                          
   ICORE  =        2    local potential                                                             
   LCOR   =        T    correct aug charges                                                         
   LPAW   =        T    paw PP                                                                      
   EAUG   =  644.873                                                                                
   DEXC   =     .000                                                                                
   RMAX   =    2.266    core radius for proj-oper                                                   
   RAUG   =    1.300    factor for augmentation sphere                                              
   RDEP   =    1.501    radius for radial grids                                                     
   RDEPT  =    1.300    core radius for aug-charge                                                  
   QCUT   =   -5.516; QGAM   =   11.032    optimization parameters                                  
                                                                                                    
   Description                                                                                      
     l     E      TYP  RCUT    TYP  RCUT                                                            
     0   .000     23  1.200                                                                         
     0   .000     23  1.200                                                                         
     1   .000     23  1.500                                                                         
     1  2.500     23  1.500                                                                         
     2   .000      7  1.500                                                                         
  local pseudopotential read in
  atomic valenz-charges read in
  non local Contribution for L=           0  read in
    real space projection operators read in
  non local Contribution for L=           0  read in
    real space projection operators read in
  non local Contribution for L=           1  read in
    real space projection operators read in
  non local Contribution for L=           1  read in
    real space projection operators read in
    PAW grid and wavefunctions read in
 
   number of l-projection  operators is LMAX  =           4
   number of lm-projection operators is LMMAX =           8
 
 POTCAR:   PAW_PBE H 15Jun2001                    
   VRHFIN =H: ultrasoft test                                                                        
   LEXCH  = PE                                                                                      
   EATOM  =    12.4884 eV,     .9179 Ry                                                             
                                                                                                    
   TITEL  = PAW_PBE H 15Jun2001                                                                     
   LULTRA =        F    use ultrasoft PP ?                                                          
   IUNSCR =        0    unscreen: 0-lin 1-nonlin 2-no                                               
   RPACOR =     .000    partial core radius                                                         
   POMASS =    1.000; ZVAL   =    1.000    mass and valenz                                          
   RCORE  =    1.100    outmost cutoff radius                                                       
   RWIGS  =     .700; RWIGS  =     .370    wigner-seitz radius (au A)                               
   ENMAX  =  250.000; ENMIN  =  200.000 eV                                                          
   RCLOC  =     .701    cutoff for local pot                                                        
   LCOR   =        T    correct aug charges                                                         
   LPAW   =        T    paw PP                                                                      
   EAUG   =  400.000                                                                                
   RMAX   =    2.174    core radius for proj-oper                                                   
   RAUG   =    1.200    factor for augmentation sphere                                              
   RDEP   =    1.112    radius for radial grids                                                     
   QCUT   =   -5.749; QGAM   =   11.498    optimization parameters                                  
                                                                                                    
   Description                                                                                      
     l     E      TYP  RCUT    TYP  RCUT                                                            
     0   .000     23  1.100                                                                         
     0   .500     23  1.100                                                                         
     1  -.300     23  1.100                                                                         
  local pseudopotential read in
  atomic valenz-charges read in
  non local Contribution for L=           0  read in
    real space projection operators read in
  non local Contribution for L=           0  read in
    real space projection operators read in
  non local Contribution for L=           1  read in
    real space projection operators read in
    PAW grid and wavefunctions read in
 
   number of l-projection  operators is LMAX  =           3
   number of lm-projection operators is LMMAX =           5
 
 Optimization of the real space projectors (new method)

 maximal supplied QI-value         = 25.13
 optimisation between [QCUT,QGAM] = [ 11.56, 23.12] = [ 37.43,149.72] Ry 
 Optimized for a Real-space Cutoff    1.04 Angstroem

   l    n(q)    QCUT    max X(q) W(low)/X(q) W(high)/X(q)  e(spline) 
   0      7    11.561     5.582    0.47E-04    0.94E-04    0.17E-07
   0      7    11.561    69.432    0.20E-03    0.59E-03    0.21E-06
   1      7    11.561     2.780    0.24E-04    0.70E-04    0.44E-07
   1      7    11.561     4.549    0.18E-03    0.25E-03    0.12E-06
 Optimization of the real space projectors (new method)

 maximal supplied QI-value         = 34.20
 optimisation between [QCUT,QGAM] = [ 11.63, 23.26] = [ 37.87,151.49] Ry 
 Optimized for a Real-space Cutoff    1.21 Angstroem

   l    n(q)    QCUT    max X(q) W(low)/X(q) W(high)/X(q)  e(spline) 
   0      8    11.629     4.436    0.19E-04    0.32E-04    0.47E-07
   0      8    11.629    16.131    0.16E-03    0.33E-03    0.21E-06
   1      8    11.629     4.654    0.18E-03    0.16E-03    0.26E-06
 PAW_PBE C 08Apr2002                    :
 energy of atom  1       EATOM= -147.1560
 kinetic energy error for atom=    0.0071 (will be added to EATOM!!)
 PAW_PBE H 15Jun2001                    :
 energy of atom  2       EATOM=  -12.4884
 kinetic energy error for atom=    0.0014 (will be added to EATOM!!)
 
 
 POSCAR:  C  H
  positions in cartesian coordinates
  No initial velocities read in
 exchange correlation table for  LEXCH =        8
   RHO(1)=    0.500       N(1)  =     2000
   RHO(2)=  100.500       N(2)  =     4000

 VTST: version 4.1, (05/19/21)

 CHAIN: initializing optimizer
 
 OPT: Using VASP Dynamics algorithm
 CHAIN: Read ICHAIN            0
 
 POSCAR:  C  H
  positions in cartesian coordinates
  No initial velocities read in
 


--------------------------------------------------------------------------------------------------------


 ion  position               nearest neighbor table
   1  0.539  0.506  0.381-   6 1.09   5 1.13   2 1.40
   2  0.481  0.502  0.454-   7 1.08   1 1.40   3 1.50
   3  0.515  0.500  0.549-   8 1.13   4 1.34   2 1.50
   4  0.461  0.492  0.620-   9 1.05  10 1.11   3 1.34
   5  0.512  0.504  0.311-   1 1.13
   6  0.611  0.504  0.388-   1 1.09
   7  0.410  0.505  0.442-   2 1.08
   8  0.590  0.507  0.554-   3 1.13
   9  0.391  0.488  0.613-   4 1.05
  10  0.491  0.491  0.687-   4 1.11
 

IMPORTANT INFORMATION: All symmetrisations will be switched off!
NOSYMM: (Re-)initialisation of all symmetry stuff for point group C_1.


----------------------------------------------------------------------------------------

                                     Primitive cell                                     

  volume of cell :    3375.0000

  direct lattice vectors                    reciprocal lattice vectors
    15.000000000  0.000000000  0.000000000     0.066666667  0.000000000  0.000000000
     0.000000000 15.000000000  0.000000000     0.000000000  0.066666667  0.000000000
     0.000000000  0.000000000 15.000000000     0.000000000  0.000000000  0.066666667

  length of vectors
    15.000000000 15.000000000 15.000000000     0.066666667  0.066666667  0.066666667

  position of ions in fractional coordinates (direct lattice)
     0.538533338  0.505933348  0.381199996
     0.481266658  0.502066676  0.454399999
     0.514733346  0.499533335  0.548800023
     0.460933336  0.492466672  0.619933319
     0.511933327  0.503866673  0.310733318
     0.610733350  0.504399999  0.387666670
     0.410466671  0.505066681  0.442199993
     0.589533361  0.507266680  0.554399999
     0.391266664  0.488266659  0.613333321
     0.490799999  0.491200002  0.687333361

  ion indices of the primitive-cell ions
   primitive index   ion index
                 1           1
                 2           2
                 3           3
                 4           4
                 5           5
                 6           6
                 7           7
                 8           8
                 9           9
                10          10

----------------------------------------------------------------------------------------

 
 
 KPOINTS: K-Spacing Value to Generate K-Mesh: 1.00

Automatic generation of k-mesh.
 Grid dimensions read from file:
 generate k-points for:    1    1    1

 Generating k-lattice:

  Cartesian coordinates                     Fractional coordinates (reciprocal lattice)
     0.066666667  0.000000000  0.000000000     1.000000000  0.000000000  0.000000000
     0.000000000  0.066666667  0.000000000     0.000000000  1.000000000  0.000000000
     0.000000000  0.000000000  0.066666667     0.000000000  0.000000000  1.000000000

  Length of vectors
     0.066666667  0.066666667  0.066666667

  Shift w.r.t. Gamma in fractional coordinates (k-lattice)
     0.000000000  0.000000000  0.000000000

 
 Subroutine IBZKPT returns following result:
 ===========================================
 
 Found      1 irreducible k-points:
 
 Following reciprocal coordinates:
            Coordinates               Weight
  0.000000  0.000000  0.000000      1.000000
 
 Following cartesian coordinates:
            Coordinates               Weight
  0.000000  0.000000  0.000000      1.000000
 


--------------------------------------------------------------------------------------------------------




 Dimension of arrays:
   k-points           NKPTS =      1   k-points in BZ     NKDIM =      1   number of bands    NBANDS=     24
   number of dos      NEDOS =    301   number of ions     NIONS =     10
   non local maximal  LDIM  =      4   non local SUM 2l+1 LMDIM =      8
   total plane-waves  NPLWV = ******
   max r-space proj   IRMAX =   3145   max aug-charges    IRDMAX=  39494
   dimension x,y,z NGX =   112 NGY =  112 NGZ =  112
   dimension x,y,z NGXF=   224 NGYF=  224 NGZF=  224
   support grid    NGXF=   448 NGYF=  448 NGZF=  448
   ions per type =               4   6
   NGX,Y,Z   is equivalent  to a cutoff of  12.41, 12.41, 12.41 a.u.
   NGXF,Y,Z  is equivalent  to a cutoff of  24.83, 24.83, 24.83 a.u.

 SYSTEM =  unknown system                          
 POSCAR =   C  H                                   

 Startparameter for this run:
   NWRITE =      2    write-flag & timer
   PREC   = accura    normal or accurate (medium, high low for compatibility)
   ISTART =      0    job   : 0-new  1-cont  2-samecut
   ICHARG =      2    charge: 1-file 2-atom 10-const
   ISPIN  =      1    spin polarized calculation?
   LNONCOLLINEAR =      F non collinear calculations
   LSORBIT =      F    spin-orbit coupling
   INIWAV =      1    electr: 0-lowe 1-rand  2-diag
   LASPH  =      T    aspherical Exc in radial PAW
 Electronic Relaxation 1
   ENCUT  =  520.0 eV  38.22 Ry    6.18 a.u.  27.89 27.89 27.89*2*pi/ulx,y,z
   ENINI  =  520.0     initial cutoff
   ENAUG  =  644.9 eV  augmentation charge cutoff
   NELM   =     60;   NELMIN=  2; NELMDL= -5     # of ELM steps 
   EDIFF  = 0.1E-05   stopping-criterion for ELM
   LREAL  =      T    real-space projection
   NLSPLINE    = F    spline interpolate recip. space projectors
   LCOMPAT=      F    compatible to vasp.4.4
   GGA_COMPAT  = T    GGA compatible to vasp.4.4-vasp.4.6
   LMAXPAW     = -100 max onsite density
   LMAXMIX     =    2 max onsite mixed and CHGCAR
   VOSKOWN=      0    Vosko Wilk Nusair interpolation
   ROPT   =   -0.00025  -0.00025
 Ionic relaxation
   EDIFFG = 0.1E-04   stopping-criterion for IOM
   NSW    =      0    number of steps for IOM
   NBLOCK =      1;   KBLOCK =      1    inner block; outer block 
   IBRION =     -1    ionic relax: 0-MD 1-quasi-New 2-CG
   NFREE  =      0    steps in history (QN), initial steepest desc. (CG)
   ISIF   =      2    stress and relaxation
   IWAVPR =     10    prediction:  0-non 1-charg 2-wave 3-comb
   ISYM   =      0    0-nonsym 1-usesym 2-fastsym
   LCORR  =      T    Harris-Foulkes like correction to forces

   POTIM  = 0.5000    time-step for ionic-motion
   TEIN   =    0.0    initial temperature
   TEBEG  =  300.0;   TEEND  = 700.0 temperature during run
   SMASS  =  -3.00    Nose mass-parameter (am)
   estimated Nose-frequenzy (Omega)   =  0.10E-29 period in steps = 0.13E+47 mass=  -0.514E-26a.u.
   SCALEE = 1.0000    scale energy and forces
   NPACO  =    256;   APACO  = 10.0  distance and # of slots for P.C.
   PSTRESS=    0.0 pullay stress

  Mass of Ions in am
   POMASS =  12.01  1.00
  Ionic Valenz
   ZVAL   =   4.00  1.00
  Atomic Wigner-Seitz radii
   RWIGS  =  -1.00 -1.00
  virtual crystal weights 
   VCA    =   1.00  1.00
   NELECT =      22.0000    total number of electrons
   NUPDOWN=      -1.0000    fix difference up-down

 DOS related values:
   EMIN   =  10.00;   EMAX   =-10.00  energy-range for DOS
   EFERMI =   0.00;   METHOD = LEGACY      
   ISMEAR =     0;   SIGMA  =   0.05  broadening in eV -4-tet -1-fermi 0-gaus

 Electronic relaxation 2 (details)
   IALGO  =     38    algorithm
   LDIAG  =      T    sub-space diagonalisation (order eigenvalues)
   LSUBROT=      F    optimize rotation matrix (better conditioning)
   TURBO    =      0    0=normal 1=particle mesh
   IRESTART =      0    0=no restart 2=restart with 2 vectors
   NREBOOT  =      0    no. of reboots
   NMIN     =      0    reboot dimension
   EREF     =   0.00    reference energy to select bands
   IMIX   =      4    mixing-type and parameters
     AMIX     =   0.40;   BMIX     =  1.00
     AMIX_MAG =   1.60;   BMIX_MAG =  1.00
     AMIN     =   0.10
     WC   =   100.;   INIMIX=   1;  MIXPRE=   1;  MAXMIX= -45

 Intra band minimization:
   WEIMIN = 0.0000     energy-eigenvalue tresh-hold
   EBREAK =  0.10E-07  absolut break condition
   DEPER  =   0.30     relativ break condition  

   TIME   =   0.40     timestep for ELM

  volume/ion in A,a.u.               =     337.50      2277.56
  Fermi-wavevector in a.u.,A,eV,Ry     =   0.305814  0.577905  1.272449  0.093522
  Thomas-Fermi vector in A             =   1.179187
 
 Write flags
   LWAVE        =      F    write WAVECAR
   LDOWNSAMPLE  =      F    k-point downsampling of WAVECAR
   LCHARG       =      F    write CHGCAR
   LVTOT        =      F    write LOCPOT, total local potential
   LVHAR        =      F    write LOCPOT, Hartree potential only
   LELF         =      F    write electronic localiz. function (ELF)
   LORBIT       =      0    0 simple, 1 ext, 2 COOP (PROOUT), +10 PAW based schemes


 Dipole corrections
   LMONO  =      F    monopole corrections only (constant potential shift)
   LDIPOL =      F    correct potential (dipole corrections)
   IDIPOL =      0    1-x, 2-y, 3-z, 4-all directions 
   EPSILON=  1.0000000 bulk dielectric constant

 Exchange correlation treatment:
   GGA     =    --    GGA type
   LEXCH   =     8    internal setting for exchange type
   LIBXC   =     F    Libxc                    
   VOSKOWN =     0    Vosko Wilk Nusair interpolation
   LHFCALC =     F    Hartree Fock is set to
   LHFONE  =     F    Hartree Fock one center treatment
   AEXX    =    0.0000 exact exchange contribution

 Linear response parameters
   LEPSILON=     F    determine dielectric tensor
   LRPA    =     F    only Hartree local field effects (RPA)
   LNABLA  =     F    use nabla operator in PAW spheres
   LVEL    =     F    velocity operator in full k-point grid
   CSHIFT  =0.1000    complex shift for real part using Kramers Kronig
   OMEGAMAX=  -1.0    maximum frequency
   DEG_THRESHOLD= 0.2000000E-02 threshold for treating states as degnerate
   RTIME   =   -0.100 relaxation time in fs
  (WPLASMAI=    0.000 imaginary part of plasma frequency in eV, 0.658/RTIME)
   DFIELD  = 0.0000000 0.0000000 0.0000000 field for delta impulse in time
 
  Optional k-point grid parameters
   LKPOINTS_OPT  =     F    use optional k-point grid
   KPOINTS_OPT_MODE=     1    mode for optional k-point grid
 
 Orbital magnetization related:
   ORBITALMAG=     F  switch on orbital magnetization
   LCHIMAG   =     F  perturbation theory with respect to B field
   DQ        =  0.001000  dq finite difference perturbation B field
   LLRAUG    =     F  two centre corrections for induced B field
   LBONE     =     F  B-component reconstruction in AE one-centre
   LVGVCALC  =     T  calculate vGv susceptibility
   LVGVAPPL  =     F  apply vGv susceptibility instead of pGv for G=0

 Random number generation:
   RANDOM_GENERATOR = DEFAULT
   PCG_SEED         = not used


--------------------------------------------------------------------------------------------------------


 Static calculation
 charge density and potential will be updated during run
 non-spin polarized calculation
 Variant of blocked Davidson
 Davidson routine will perform the subspace rotation
 perform sub-space diagonalisation
    after iterative eigenvector-optimisation
 modified Broyden-mixing scheme, WC =      100.0
 initial mixing is a Kerker type mixing with AMIX =  0.4000 and BMIX =      1.0000
 Hartree-type preconditioning will be used
 using additional bands           13
 real space projection scheme for non local part
 calculate Harris-corrections to forces 
   (improved forces if not selfconsistent)
 use gradient corrections 
 use of overlap-Matrix (Vanderbilt PP)
 Gauss-broadening in eV      SIGMA  =   0.05


--------------------------------------------------------------------------------------------------------


  energy-cutoff  :      520.00
  volume of cell :     3375.00
      direct lattice vectors                 reciprocal lattice vectors
    15.000000000  0.000000000  0.000000000     0.066666667  0.000000000  0.000000000
     0.000000000 15.000000000  0.000000000     0.000000000  0.066666667  0.000000000
     0.000000000  0.000000000 15.000000000     0.000000000  0.000000000  0.066666667

  length of vectors
    15.000000000 15.000000000 15.000000000     0.066666667  0.066666667  0.066666667


 
 k-points in units of 2pi/SCALE and weight: K-Spacing Value to Generate K-Mesh: 1.00
   0.00000000  0.00000000  0.00000000       1.000
 
 k-points in reciprocal lattice and weights: K-Spacing Value to Generate K-Mesh: 1.00
   0.00000000  0.00000000  0.00000000       1.000
 
 position of ions in fractional coordinates (direct lattice) 
   0.53853334  0.50593335  0.38120000
   0.48126666  0.50206668  0.45440000
   0.51473335  0.49953334  0.54880002
   0.46093334  0.49246667  0.61993332
   0.51193333  0.50386667  0.31073332
   0.61073335  0.50440000  0.38766667
   0.41046667  0.50506668  0.44219999
   0.58953336  0.50726668  0.55440000
   0.39126666  0.48826666  0.61333332
   0.49080000  0.49120000  0.68733336
 
 position of ions in cartesian coordinates  (Angst):
   8.07800007  7.58900023  5.71799994
   7.21899986  7.53100014  6.81599998
   7.72100019  7.49300003  8.23200035
   6.91400003  7.38700008  9.29899979
   7.67899990  7.55800009  4.66099977
   9.16100025  7.56599998  5.81500006
   6.15700006  7.57600021  6.63299990
   8.84300041  7.60900021  8.31599998
   5.86899996  7.32399988  9.19999981
   7.36199999  7.36800003 10.31000042
 


--------------------------------------------------------------------------------------------------------


 k-point   1 :   0.0000 0.0000 0.0000  plane waves:   90879

 maximum and minimum number of plane-waves per node :     45467    45412

 maximum number of plane-waves:     90879
 maximum index in each direction: 
   IXMAX=   27   IYMAX=   27   IZMAX=   27
   IXMIN=  -27   IYMIN=  -27   IZMIN=  -27


 real space projection operators:
  total allocation   :       1185.88 KBytes
  max/ min on nodes  :        593.55        592.33


 parallel 3D FFT for wavefunctions:
    minimum data exchange during FFTs selected (reduces bandwidth)
 parallel 3D FFT for charge:
    minimum data exchange during FFTs selected (reduces bandwidth)


 total amount of memory used by VASP MPI-rank0   224784. kBytes
=======================================================================

   base      :      30000. kBytes
   nonlr-proj:       1260. kBytes
   fftplans  :     123538. kBytes
   grid      :      67787. kBytes
   one-center:         15. kBytes
   wavefun   :       2184. kBytes
 
     INWAV:  cpu time      0.0000: real time      0.0000
 Broyden mixing: mesh for mixing (old mesh)
   NGX = 55   NGY = 55   NGZ = 55
  (NGX  =224   NGY  =224   NGZ  =224)
  gives a total of 166375 points

 initial charge density was supplied:
 charge density of overlapping atoms calculated
 number of electron      22.0000000 magnetization 
 keeping initial charge density in first step


--------------------------------------------------------------------------------------------------------


 Maximum index for non-local projection operator         1548
 Maximum index for augmentation-charges         2488 (set IRDMAX)


--------------------------------------------------------------------------------------------------------


 First call to EWALD:  gamma=   0.118
 Maximum number of real-space cells 3x 3x 3
 Maximum number of reciprocal cells 3x 3x 3

    FEWALD:  cpu time      0.0015: real time      0.0015


--------------------------------------- Ionic step        1  -------------------------------------------




--------------------------------------- Iteration      1(   1)  ---------------------------------------


    POTLOK:  cpu time      0.3359: real time      0.3379
    SETDIJ:  cpu time      0.1940: real time      0.1950
     EDDAV:  cpu time      0.4215: real time      0.4243
       DOS:  cpu time      0.0003: real time      0.0003
    --------------------------------------------
      LOOP:  cpu time      0.9516: real time      0.9574

 eigenvalue-minimisations  :    64
 total energy-change (2. order) : 0.1016189E+03  (-0.5278999E+03)
 number of electron      22.0000000 magnetization 
 augmentation part       22.0000000 magnetization 

 Free energy of the ion-electron system (eV)
  ---------------------------------------------------
  alpha Z        PSCENC =         0.62641250
  Ewald energy   TEWEN  =       855.15778350
  -Hartree energ DENC   =     -1282.85693910
  -exchange      EXHF   =         0.00000000
  -V(xc)+E(xc)   XCENC  =        66.98909585
  PAW double counting   =       156.01372664     -160.66969168
  entropy T*S    EENTRO =        -0.00138026
  eigenvalues    EBANDS =      -197.15746729
  atomic energy  EATOM  =       663.51739852
  Solvation  Ediel_sol  =         0.00000000
  ---------------------------------------------------
  free energy    TOTEN  =       101.61893869 eV

  energy without entropy =      101.62031895  energy(sigma->0) =      101.61962882


--------------------------------------------------------------------------------------------------------




--------------------------------------- Iteration      1(   2)  ---------------------------------------


     EDDAV:  cpu time      0.4855: real time      0.4886
       DOS:  cpu time      0.0001: real time      0.0001
    --------------------------------------------
      LOOP:  cpu time      0.4856: real time      0.4887

 eigenvalue-minimisations  :    80
 total energy-change (2. order) :-0.1253296E+03  (-0.1232388E+03)
 number of electron      22.0000000 magnetization 
 augmentation part       22.0000000 magnetization 

 Free energy of the ion-electron system (eV)
  ---------------------------------------------------
  alpha Z        PSCENC =         0.62641250
  Ewald energy   TEWEN  =       855.15778350
  -Hartree energ DENC   =     -1282.85693910
  -exchange      EXHF   =         0.00000000
  -V(xc)+E(xc)   XCENC  =        66.98909585
  PAW double counting   =       156.01372664     -160.66969168
  entropy T*S    EENTRO =        -0.00000000
  eigenvalues    EBANDS =      -322.48841751
  atomic energy  EATOM  =       663.51739852
  Solvation  Ediel_sol  =         0.00000000
  ---------------------------------------------------
  free energy    TOTEN  =       -23.71063127 eV

  energy without entropy =      -23.71063127  energy(sigma->0) =      -23.71063127


--------------------------------------------------------------------------------------------------------




--------------------------------------- Iteration      1(   3)  ---------------------------------------


     EDDAV:  cpu time      0.4439: real time      0.4467
       DOS:  cpu time      0.0001: real time      0.0001
    --------------------------------------------
      LOOP:  cpu time      0.4440: real time      0.4468

 eigenvalue-minimisations  :    72
 total energy-change (2. order) :-0.3762333E+02  (-0.3755797E+02)
 number of electron      22.0000000 magnetization 
 augmentation part       22.0000000 magnetization 

 Free energy of the ion-electron system (eV)
  ---------------------------------------------------
  alpha Z        PSCENC =         0.62641250
  Ewald energy   TEWEN  =       855.15778350
  -Hartree energ DENC   =     -1282.85693910
  -exchange      EXHF   =         0.00000000
  -V(xc)+E(xc)   XCENC  =        66.98909585
  PAW double counting   =       156.01372664     -160.66969168
  entropy T*S    EENTRO =        -0.00000000
  eigenvalues    EBANDS =      -360.11175062
  atomic energy  EATOM  =       663.51739852
  Solvation  Ediel_sol  =         0.00000000
  ---------------------------------------------------
  free energy    TOTEN  =       -61.33396439 eV

  energy without entropy =      -61.33396439  energy(sigma->0) =      -61.33396439


--------------------------------------------------------------------------------------------------------




--------------------------------------- Iteration      1(   4)  ---------------------------------------


     EDDAV:  cpu time      0.4453: real time      0.4481
       DOS:  cpu time      0.0001: real time      0.0001
    --------------------------------------------
      LOOP:  cpu time      0.4454: real time      0.4482

 eigenvalue-minimisations  :    72
 total energy-change (2. order) :-0.1745850E+01  (-0.1744698E+01)
 number of electron      22.0000000 magnetization 
 augmentation part       22.0000000 magnetization 

 Free energy of the ion-electron system (eV)
  ---------------------------------------------------
  alpha Z        PSCENC =         0.62641250
  Ewald energy   TEWEN  =       855.15778350
  -Hartree energ DENC   =     -1282.85693910
  -exchange      EXHF   =         0.00000000
  -V(xc)+E(xc)   XCENC  =        66.98909585
  PAW double counting   =       156.01372664     -160.66969168
  entropy T*S    EENTRO =        -0.00000000
  eigenvalues    EBANDS =      -361.85760082
  atomic energy  EATOM  =       663.51739852
  Solvation  Ediel_sol  =         0.00000000
  ---------------------------------------------------
  free energy    TOTEN  =       -63.07981458 eV

  energy without entropy =      -63.07981458  energy(sigma->0) =      -63.07981458


--------------------------------------------------------------------------------------------------------




--------------------------------------- Iteration      1(   5)  ---------------------------------------


     EDDAV:  cpu time      0.4088: real time      0.4115
       DOS:  cpu time      0.0001: real time      0.0001
    CHARGE:  cpu time      0.1980: real time      0.1989
    MIXING:  cpu time      0.0144: real time      0.0144
    --------------------------------------------
      LOOP:  cpu time      0.6213: real time      0.6250

 eigenvalue-minimisations  :    64
 total energy-change (2. order) :-0.1453651E-01  (-0.1453114E-01)
 number of electron      22.0000000 magnetization 
 augmentation part        0.5706983 magnetization 

 Broyden mixing:
  rms(total) = 0.11671E+01    rms(broyden)= 0.11669E+01
  rms(prec ) = 0.13964E+01
  weight for this iteration     100.00

 Free energy of the ion-electron system (eV)
  ---------------------------------------------------
  alpha Z        PSCENC =         0.62641250
  Ewald energy   TEWEN  =       855.15778350
  -Hartree energ DENC   =     -1282.85693910
  -exchange      EXHF   =         0.00000000
  -V(xc)+E(xc)   XCENC  =        66.98909585
  PAW double counting   =       156.01372664     -160.66969168
  entropy T*S    EENTRO =        -0.00000000
  eigenvalues    EBANDS =      -361.87213733
  atomic energy  EATOM  =       663.51739852
  Solvation  Ediel_sol  =         0.00000000
  ---------------------------------------------------
  free energy    TOTEN  =       -63.09435109 eV

  energy without entropy =      -63.09435109  energy(sigma->0) =      -63.09435109


--------------------------------------------------------------------------------------------------------




--------------------------------------- Iteration      1(   6)  ---------------------------------------


    POTLOK:  cpu time      0.3085: real time      0.3104
    SETDIJ:  cpu time      0.1897: real time      0.1906
     EDDAV:  cpu time      0.4054: real time      0.4079
       DOS:  cpu time      0.0001: real time      0.0001
    CHARGE:  cpu time      0.1994: real time      0.2003
    MIXING:  cpu time      0.0082: real time      0.0082
    --------------------------------------------
      LOOP:  cpu time      1.1112: real time      1.1175

 eigenvalue-minimisations  :    64
 total energy-change (2. order) : 0.4923705E+01  (-0.7154270E+00)
 number of electron      22.0000000 magnetization 
 augmentation part        0.5224869 magnetization 

 Broyden mixing:
  rms(total) = 0.56519E+00    rms(broyden)= 0.56516E+00
  rms(prec ) = 0.66951E+00
  weight for this iteration     100.00

 eigenvalues of (default mixing * dielectric matrix)
  average eigenvalue GAMMA=   1.6191
  1.6191

 Free energy of the ion-electron system (eV)
  ---------------------------------------------------
  alpha Z        PSCENC =         0.62641250
  Ewald energy   TEWEN  =       855.15778350
  -Hartree energ DENC   =     -1327.96933115
  -exchange      EXHF   =         0.00000000
  -V(xc)+E(xc)   XCENC  =        69.37772215
  PAW double counting   =       226.54689898     -231.73264738
  entropy T*S    EENTRO =        -0.00000000
  eigenvalues    EBANDS =      -313.69488305
  atomic energy  EATOM  =       663.51739852
  Solvation  Ediel_sol  =         0.00000000
  ---------------------------------------------------
  free energy    TOTEN  =       -58.17064593 eV

  energy without entropy =      -58.17064593  energy(sigma->0) =      -58.17064593


--------------------------------------------------------------------------------------------------------




--------------------------------------- Iteration      1(   7)  ---------------------------------------


    POTLOK:  cpu time      0.3103: real time      0.3121
    SETDIJ:  cpu time      0.1883: real time      0.1892
     EDDAV:  cpu time      0.4054: real time      0.4080
       DOS:  cpu time      0.0001: real time      0.0001
    CHARGE:  cpu time      0.1985: real time      0.1994
    MIXING:  cpu time      0.0101: real time      0.0101
    --------------------------------------------
      LOOP:  cpu time      1.1126: real time      1.1189

 eigenvalue-minimisations  :    64
 total energy-change (2. order) : 0.1205043E+01  (-0.3923891E+00)
 number of electron      22.0000000 magnetization 
 augmentation part        0.4920211 magnetization 

 Broyden mixing:
  rms(total) = 0.21915E+00    rms(broyden)= 0.21909E+00
  rms(prec ) = 0.25143E+00
  weight for this iteration     100.00

 eigenvalues of (default mixing * dielectric matrix)
  average eigenvalue GAMMA=   1.6998
  1.6347  1.7648

 Free energy of the ion-electron system (eV)
  ---------------------------------------------------
  alpha Z        PSCENC =         0.62641250
  Ewald energy   TEWEN  =       855.15778350
  -Hartree energ DENC   =     -1365.03910393
  -exchange      EXHF   =         0.00000000
  -V(xc)+E(xc)   XCENC  =        71.52177838
  PAW double counting   =       285.81358742     -291.24440123
  entropy T*S    EENTRO =        -0.00000000
  eigenvalues    EBANDS =      -277.31905808
  atomic energy  EATOM  =       663.51739852
  Solvation  Ediel_sol  =         0.00000000
  ---------------------------------------------------
  free energy    TOTEN  =       -56.96560293 eV

  energy without entropy =      -56.96560293  energy(sigma->0) =      -56.96560293


--------------------------------------------------------------------------------------------------------




--------------------------------------- Iteration      1(   8)  ---------------------------------------


    POTLOK:  cpu time      0.3131: real time      0.3149
    SETDIJ:  cpu time      0.1888: real time      0.1898
     EDDAV:  cpu time      0.3680: real time      0.3703
       DOS:  cpu time      0.0001: real time      0.0001
    CHARGE:  cpu time      0.1978: real time      0.1987
    MIXING:  cpu time      0.0099: real time      0.0100
    --------------------------------------------
      LOOP:  cpu time      1.0777: real time      1.0838

 eigenvalue-minimisations  :    56
 total energy-change (2. order) : 0.1450139E+00  (-0.1880656E-01)
 number of electron      22.0000000 magnetization 
 augmentation part        0.4910849 magnetization 

 Broyden mixing:
  rms(total) = 0.69588E-01    rms(broyden)= 0.69583E-01
  rms(prec ) = 0.93747E-01
  weight for this iteration     100.00

 eigenvalues of (default mixing * dielectric matrix)
  average eigenvalue GAMMA=   1.6402
  2.4132  0.8944  1.6130

 Free energy of the ion-electron system (eV)
  ---------------------------------------------------
  alpha Z        PSCENC =         0.62641250
  Ewald energy   TEWEN  =       855.15778350
  -Hartree energ DENC   =     -1371.62355591
  -exchange      EXHF   =         0.00000000
  -V(xc)+E(xc)   XCENC  =        72.01627821
  PAW double counting   =       291.99714142     -297.33237353
  entropy T*S    EENTRO =        -0.00000000
  eigenvalues    EBANDS =      -271.17967372
  atomic energy  EATOM  =       663.51739852
  Solvation  Ediel_sol  =         0.00000000
  ---------------------------------------------------
  free energy    TOTEN  =       -56.82058901 eV

  energy without entropy =      -56.82058901  energy(sigma->0) =      -56.82058901


--------------------------------------------------------------------------------------------------------




--------------------------------------- Iteration      1(   9)  ---------------------------------------


    POTLOK:  cpu time      0.3146: real time      0.3165
    SETDIJ:  cpu time      0.1896: real time      0.1905
     EDDAV:  cpu time      0.4462: real time      0.4490
       DOS:  cpu time      0.0001: real time      0.0001
    CHARGE:  cpu time      0.1998: real time      0.2008
    MIXING:  cpu time      0.0084: real time      0.0085
    --------------------------------------------
      LOOP:  cpu time      1.1587: real time      1.1654

 eigenvalue-minimisations  :    72
 total energy-change (2. order) : 0.3609272E-01  (-0.4798757E-02)
 number of electron      22.0000000 magnetization 
 augmentation part        0.4896305 magnetization 

 Broyden mixing:
  rms(total) = 0.23879E-01    rms(broyden)= 0.23874E-01
  rms(prec ) = 0.46137E-01
  weight for this iteration     100.00

 eigenvalues of (default mixing * dielectric matrix)
  average eigenvalue GAMMA=   1.4522
  2.2746  1.6225  0.9559  0.9559

 Free energy of the ion-electron system (eV)
  ---------------------------------------------------
  alpha Z        PSCENC =         0.62641250
  Ewald energy   TEWEN  =       855.15778350
  -Hartree energ DENC   =     -1377.22226960
  -exchange      EXHF   =         0.00000000
  -V(xc)+E(xc)   XCENC  =        72.34044872
  PAW double counting   =       295.83446264     -301.13256971
  entropy T*S    EENTRO =        -0.00000000
  eigenvalues    EBANDS =      -265.90616287
  atomic energy  EATOM  =       663.51739852
  Solvation  Ediel_sol  =         0.00000000
  ---------------------------------------------------
  free energy    TOTEN  =       -56.78449629 eV

  energy without entropy =      -56.78449629  energy(sigma->0) =      -56.78449629


--------------------------------------------------------------------------------------------------------




--------------------------------------- Iteration      1(  10)  ---------------------------------------


    POTLOK:  cpu time      0.3162: real time      0.3182
    SETDIJ:  cpu time      0.1881: real time      0.1890
     EDDAV:  cpu time      0.3655: real time      0.3678
       DOS:  cpu time      0.0001: real time      0.0001
    CHARGE:  cpu time      0.1979: real time      0.1988
    MIXING:  cpu time      0.0086: real time      0.0087
    --------------------------------------------
      LOOP:  cpu time      1.0765: real time      1.0826

 eigenvalue-minimisations  :    56
 total energy-change (2. order) : 0.4555523E-02  (-0.1848220E-02)
 number of electron      22.0000000 magnetization 
 augmentation part        0.4881931 magnetization 

 Broyden mixing:
  rms(total) = 0.18119E-01    rms(broyden)= 0.18115E-01
  rms(prec ) = 0.34042E-01
  weight for this iteration     100.00

 eigenvalues of (default mixing * dielectric matrix)
  average eigenvalue GAMMA=   1.7269
  2.9399  2.3227  0.9985  0.9985  1.3750

 Free energy of the ion-electron system (eV)
  ---------------------------------------------------
  alpha Z        PSCENC =         0.62641250
  Ewald energy   TEWEN  =       855.15778350
  -Hartree energ DENC   =     -1379.93805119
  -exchange      EXHF   =         0.00000000
  -V(xc)+E(xc)   XCENC  =        72.38926046
  PAW double counting   =       295.40168660     -300.71156757
  entropy T*S    EENTRO =        -0.00000000
  eigenvalues    EBANDS =      -263.22286359
  atomic energy  EATOM  =       663.51739852
  Solvation  Ediel_sol  =         0.00000000
  ---------------------------------------------------
  free energy    TOTEN  =       -56.77994077 eV

  energy without entropy =      -56.77994077  energy(sigma->0) =      -56.77994077


--------------------------------------------------------------------------------------------------------




--------------------------------------- Iteration      1(  11)  ---------------------------------------


    POTLOK:  cpu time      0.3140: real time      0.3158
    SETDIJ:  cpu time      0.1935: real time      0.1944
     EDDAV:  cpu time      0.3250: real time      0.3271
       DOS:  cpu time      0.0001: real time      0.0001
    CHARGE:  cpu time      0.1924: real time      0.1933
    MIXING:  cpu time      0.0143: real time      0.0144
    --------------------------------------------
      LOOP:  cpu time      1.0393: real time      1.0451

 eigenvalue-minimisations  :    48
 total energy-change (2. order) : 0.1137159E-01  (-0.7371692E-03)
 number of electron      22.0000000 magnetization 
 augmentation part        0.4879821 magnetization 

 Broyden mixing:
  rms(total) = 0.71660E-02    rms(broyden)= 0.71657E-02
  rms(prec ) = 0.15976E-01
  weight for this iteration     100.00

 eigenvalues of (default mixing * dielectric matrix)
  average eigenvalue GAMMA=   1.7634
  3.4074  2.5057  1.5022  1.0259  1.0696  1.0696

 Free energy of the ion-electron system (eV)
  ---------------------------------------------------
  alpha Z        PSCENC =         0.62641250
  Ewald energy   TEWEN  =       855.15778350
  -Hartree energ DENC   =     -1384.14844903
  -exchange      EXHF   =         0.00000000
  -V(xc)+E(xc)   XCENC  =        72.50595344
  PAW double counting   =       294.02730575     -299.32122140
  entropy T*S    EENTRO =        -0.00000000
  eigenvalues    EBANDS =      -259.13375248
  atomic energy  EATOM  =       663.51739852
  Solvation  Ediel_sol  =         0.00000000
  ---------------------------------------------------
  free energy    TOTEN  =       -56.76856918 eV

  energy without entropy =      -56.76856918  energy(sigma->0) =      -56.76856918


--------------------------------------------------------------------------------------------------------




--------------------------------------- Iteration      1(  12)  ---------------------------------------


    POTLOK:  cpu time      0.3166: real time      0.3185
    SETDIJ:  cpu time      0.1913: real time      0.1922
     EDDAV:  cpu time      0.4038: real time      0.4063
       DOS:  cpu time      0.0001: real time      0.0001
    CHARGE:  cpu time      0.1985: real time      0.1995
    MIXING:  cpu time      0.0097: real time      0.0097
    --------------------------------------------
      LOOP:  cpu time      1.1200: real time      1.1263

 eigenvalue-minimisations  :    64
 total energy-change (2. order) :-0.3853167E-02  (-0.1464281E-03)
 number of electron      22.0000000 magnetization 
 augmentation part        0.4876877 magnetization 

 Broyden mixing:
  rms(total) = 0.59642E-02    rms(broyden)= 0.59641E-02
  rms(prec ) = 0.10964E-01
  weight for this iteration     100.00

 eigenvalues of (default mixing * dielectric matrix)
  average eigenvalue GAMMA=   1.9610
  4.5497  2.5342  2.2467  1.4751  0.9302  0.9956  0.9956

 Free energy of the ion-electron system (eV)
  ---------------------------------------------------
  alpha Z        PSCENC =         0.62641250
  Ewald energy   TEWEN  =       855.15778350
  -Hartree energ DENC   =     -1385.70883266
  -exchange      EXHF   =         0.00000000
  -V(xc)+E(xc)   XCENC  =        72.52594810
  PAW double counting   =       293.64533475     -298.94159258
  entropy T*S    EENTRO =        -0.00000000
  eigenvalues    EBANDS =      -257.59487448
  atomic energy  EATOM  =       663.51739852
  Solvation  Ediel_sol  =         0.00000000
  ---------------------------------------------------
  free energy    TOTEN  =       -56.77242235 eV

  energy without entropy =      -56.77242235  energy(sigma->0) =      -56.77242235


--------------------------------------------------------------------------------------------------------




--------------------------------------- Iteration      1(  13)  ---------------------------------------


    POTLOK:  cpu time      0.3093: real time      0.3111
    SETDIJ:  cpu time      0.1911: real time      0.1920
     EDDAV:  cpu time      0.3271: real time      0.3291
       DOS:  cpu time      0.0001: real time      0.0001
    CHARGE:  cpu time      0.1937: real time      0.1946
    MIXING:  cpu time      0.0169: real time      0.0169
    --------------------------------------------
      LOOP:  cpu time      1.0382: real time      1.0440

 eigenvalue-minimisations  :    48
 total energy-change (2. order) :-0.1005829E-01  (-0.1903903E-03)
 number of electron      22.0000000 magnetization 
 augmentation part        0.4877432 magnetization 

 Broyden mixing:
  rms(total) = 0.27489E-02    rms(broyden)= 0.27485E-02
  rms(prec ) = 0.56708E-02
  weight for this iteration     100.00

 eigenvalues of (default mixing * dielectric matrix)
  average eigenvalue GAMMA=   2.0230
  5.1426  2.8427  2.1955  1.5312  1.5312  0.9429  0.9992  0.9992

 Free energy of the ion-electron system (eV)
  ---------------------------------------------------
  alpha Z        PSCENC =         0.62641250
  Ewald energy   TEWEN  =       855.15778350
  -Hartree energ DENC   =     -1386.25150703
  -exchange      EXHF   =         0.00000000
  -V(xc)+E(xc)   XCENC  =        72.52031708
  PAW double counting   =       293.67260597     -298.96794465
  entropy T*S    EENTRO =        -0.00000000
  eigenvalues    EBANDS =      -257.05754652
  atomic energy  EATOM  =       663.51739852
  Solvation  Ediel_sol  =         0.00000000
  ---------------------------------------------------
  free energy    TOTEN  =       -56.78248064 eV

  energy without entropy =      -56.78248064  energy(sigma->0) =      -56.78248064


--------------------------------------------------------------------------------------------------------




--------------------------------------- Iteration      1(  14)  ---------------------------------------


    POTLOK:  cpu time      0.3127: real time      0.3146
    SETDIJ:  cpu time      0.1912: real time      0.1921
     EDDAV:  cpu time      0.4451: real time      0.4480
       DOS:  cpu time      0.0001: real time      0.0001
    CHARGE:  cpu time      0.1994: real time      0.2004
    MIXING:  cpu time      0.0093: real time      0.0094
    --------------------------------------------
      LOOP:  cpu time      1.1580: real time      1.1647

 eigenvalue-minimisations  :    72
 total energy-change (2. order) :-0.5396940E-02  (-0.7875437E-04)
 number of electron      22.0000000 magnetization 
 augmentation part        0.4875915 magnetization 

 Broyden mixing:
  rms(total) = 0.16450E-02    rms(broyden)= 0.16448E-02
  rms(prec ) = 0.33042E-02
  weight for this iteration     100.00

 eigenvalues of (default mixing * dielectric matrix)
  average eigenvalue GAMMA=   2.2000
  6.3820  3.5452  2.3709  2.0638  1.2994  1.2994  0.9679  0.9679  0.9031

 Free energy of the ion-electron system (eV)
  ---------------------------------------------------
  alpha Z        PSCENC =         0.62641250
  Ewald energy   TEWEN  =       855.15778350
  -Hartree energ DENC   =     -1386.54728201
  -exchange      EXHF   =         0.00000000
  -V(xc)+E(xc)   XCENC  =        72.51528044
  PAW double counting   =       293.77444174     -299.07024733
  entropy T*S    EENTRO =        -0.00000000
  eigenvalues    EBANDS =      -256.76166493
  atomic energy  EATOM  =       663.51739852
  Solvation  Ediel_sol  =         0.00000000
  ---------------------------------------------------
  free energy    TOTEN  =       -56.78787758 eV

  energy without entropy =      -56.78787758  energy(sigma->0) =      -56.78787758


--------------------------------------------------------------------------------------------------------




--------------------------------------- Iteration      1(  15)  ---------------------------------------


    POTLOK:  cpu time      0.3033: real time      0.3052
    SETDIJ:  cpu time      0.1903: real time      0.1912
     EDDAV:  cpu time      0.4022: real time      0.4047
       DOS:  cpu time      0.0001: real time      0.0001
    CHARGE:  cpu time      0.1994: real time      0.2004
    MIXING:  cpu time      0.0101: real time      0.0102
    --------------------------------------------
      LOOP:  cpu time      1.1055: real time      1.1117

 eigenvalue-minimisations  :    64
 total energy-change (2. order) :-0.3559410E-02  (-0.5824672E-04)
 number of electron      22.0000000 magnetization 
 augmentation part        0.4876548 magnetization 

 Broyden mixing:
  rms(total) = 0.12548E-02    rms(broyden)= 0.12547E-02
  rms(prec ) = 0.19598E-02
  weight for this iteration     100.00

 eigenvalues of (default mixing * dielectric matrix)
  average eigenvalue GAMMA=   2.2072
  6.6855  3.9958  2.4716  1.9485  1.5557  1.5557  0.9925  0.9925  0.9859  0.8882

 Free energy of the ion-electron system (eV)
  ---------------------------------------------------
  alpha Z        PSCENC =         0.62641250
  Ewald energy   TEWEN  =       855.15778350
  -Hartree energ DENC   =     -1386.48328732
  -exchange      EXHF   =         0.00000000
  -V(xc)+E(xc)   XCENC  =        72.50388924
  PAW double counting   =       293.74112359     -299.03545036
  entropy T*S    EENTRO =        -0.00000000
  eigenvalues    EBANDS =      -256.81930666
  atomic energy  EATOM  =       663.51739852
  Solvation  Ediel_sol  =         0.00000000
  ---------------------------------------------------
  free energy    TOTEN  =       -56.79143699 eV

  energy without entropy =      -56.79143699  energy(sigma->0) =      -56.79143699


--------------------------------------------------------------------------------------------------------




--------------------------------------- Iteration      1(  16)  ---------------------------------------


    POTLOK:  cpu time      0.3031: real time      0.3049
    SETDIJ:  cpu time      0.1913: real time      0.1923
     EDDAV:  cpu time      0.3641: real time      0.3664
       DOS:  cpu time      0.0001: real time      0.0001
    CHARGE:  cpu time      0.1986: real time      0.1995
    MIXING:  cpu time      0.0102: real time      0.0102
    --------------------------------------------
      LOOP:  cpu time      1.0675: real time      1.0736

 eigenvalue-minimisations  :    56
 total energy-change (2. order) :-0.9188788E-03  (-0.8912595E-05)
 number of electron      22.0000000 magnetization 
 augmentation part        0.4875914 magnetization 

 Broyden mixing:
  rms(total) = 0.63284E-03    rms(broyden)= 0.63275E-03
  rms(prec ) = 0.10551E-02
  weight for this iteration     100.00

 eigenvalues of (default mixing * dielectric matrix)
  average eigenvalue GAMMA=   2.2828
  7.6073  4.4600  2.5748  2.3919  1.8085  1.4156  1.1582  0.9888  0.9888  0.9051
  0.8123

 Free energy of the ion-electron system (eV)
  ---------------------------------------------------
  alpha Z        PSCENC =         0.62641250
  Ewald energy   TEWEN  =       855.15778350
  -Hartree energ DENC   =     -1386.56708388
  -exchange      EXHF   =         0.00000000
  -V(xc)+E(xc)   XCENC  =        72.50563185
  PAW double counting   =       293.78477844     -299.07954825
  entropy T*S    EENTRO =        -0.00000000
  eigenvalues    EBANDS =      -256.73772854
  atomic energy  EATOM  =       663.51739852
  Solvation  Ediel_sol  =         0.00000000
  ---------------------------------------------------
  free energy    TOTEN  =       -56.79235587 eV

  energy without entropy =      -56.79235587  energy(sigma->0) =      -56.79235587


--------------------------------------------------------------------------------------------------------




--------------------------------------- Iteration      1(  17)  ---------------------------------------


    POTLOK:  cpu time      0.3012: real time      0.3030
    SETDIJ:  cpu time      0.1905: real time      0.1914
     EDDAV:  cpu time      0.3610: real time      0.3633
       DOS:  cpu time      0.0001: real time      0.0001
    CHARGE:  cpu time      0.1985: real time      0.1994
    MIXING:  cpu time      0.0111: real time      0.0112
    --------------------------------------------
      LOOP:  cpu time      1.0624: real time      1.0685

 eigenvalue-minimisations  :    56
 total energy-change (2. order) :-0.5562103E-03  (-0.3974141E-05)
 number of electron      22.0000000 magnetization 
 augmentation part        0.4875708 magnetization 

 Broyden mixing:
  rms(total) = 0.42468E-03    rms(broyden)= 0.42457E-03
  rms(prec ) = 0.67842E-03
  weight for this iteration     100.00

 eigenvalues of (default mixing * dielectric matrix)
  average eigenvalue GAMMA=   2.2448
  7.8060  4.6633  2.6116  2.4265  1.5322  1.4837  1.4837  1.0347  1.0347  0.9810
  0.9810  0.8995

 Free energy of the ion-electron system (eV)
  ---------------------------------------------------
  alpha Z        PSCENC =         0.62641250
  Ewald energy   TEWEN  =       855.15778350
  -Hartree energ DENC   =     -1386.58525025
  -exchange      EXHF   =         0.00000000
  -V(xc)+E(xc)   XCENC  =        72.50466795
  PAW double counting   =       293.76226102     -299.05729223
  entropy T*S    EENTRO =        -0.00000000
  eigenvalues    EBANDS =      -256.71889308
  atomic energy  EATOM  =       663.51739852
  Solvation  Ediel_sol  =         0.00000000
  ---------------------------------------------------
  free energy    TOTEN  =       -56.79291208 eV

  energy without entropy =      -56.79291208  energy(sigma->0) =      -56.79291208


--------------------------------------------------------------------------------------------------------




--------------------------------------- Iteration      1(  18)  ---------------------------------------


    POTLOK:  cpu time      0.2997: real time      0.3015
    SETDIJ:  cpu time      0.1913: real time      0.1922
     EDDAV:  cpu time      0.3663: real time      0.3686
       DOS:  cpu time      0.0001: real time      0.0001
    CHARGE:  cpu time      0.1979: real time      0.1989
    MIXING:  cpu time      0.0109: real time      0.0110
    --------------------------------------------
      LOOP:  cpu time      1.0663: real time      1.0724

 eigenvalue-minimisations  :    56
 total energy-change (2. order) :-0.2076158E-03  (-0.8290708E-06)
 number of electron      22.0000000 magnetization 
 augmentation part        0.4875667 magnetization 

 Broyden mixing:
  rms(total) = 0.24580E-03    rms(broyden)= 0.24575E-03
  rms(prec ) = 0.41116E-03
  weight for this iteration     100.00

 eigenvalues of (default mixing * dielectric matrix)
  average eigenvalue GAMMA=   2.3212
  8.5078  5.1500  3.1776  2.4959  2.1199  1.3335  1.3335  1.1779  1.1779  0.9759
  0.9759  0.8941  0.8553

 Free energy of the ion-electron system (eV)
  ---------------------------------------------------
  alpha Z        PSCENC =         0.62641250
  Ewald energy   TEWEN  =       855.15778350
  -Hartree energ DENC   =     -1386.58920531
  -exchange      EXHF   =         0.00000000
  -V(xc)+E(xc)   XCENC  =        72.50440314
  PAW double counting   =       293.74991904     -299.04491049
  entropy T*S    EENTRO =        -0.00000000
  eigenvalues    EBANDS =      -256.71492060
  atomic energy  EATOM  =       663.51739852
  Solvation  Ediel_sol  =         0.00000000
  ---------------------------------------------------
  free energy    TOTEN  =       -56.79311969 eV

  energy without entropy =      -56.79311969  energy(sigma->0) =      -56.79311969


--------------------------------------------------------------------------------------------------------




--------------------------------------- Iteration      1(  19)  ---------------------------------------


    POTLOK:  cpu time      0.2990: real time      0.3008
    SETDIJ:  cpu time      0.1915: real time      0.1925
     EDDAV:  cpu time      0.3643: real time      0.3666
       DOS:  cpu time      0.0002: real time      0.0002
    CHARGE:  cpu time      0.1971: real time      0.1980
    MIXING:  cpu time      0.0125: real time      0.0126
    --------------------------------------------
      LOOP:  cpu time      1.0645: real time      1.0705

 eigenvalue-minimisations  :    56
 total energy-change (2. order) :-0.1354453E-03  (-0.6532078E-06)
 number of electron      22.0000000 magnetization 
 augmentation part        0.4875689 magnetization 

 Broyden mixing:
  rms(total) = 0.14338E-03    rms(broyden)= 0.14332E-03
  rms(prec ) = 0.23305E-03
  weight for this iteration     100.00

 eigenvalues of (default mixing * dielectric matrix)
  average eigenvalue GAMMA=   2.3248
  8.6071  5.3537  3.3400  2.4526  2.1817  1.9055  1.4408  1.2356  1.2356  0.9958
  0.9958  1.0406  0.8813  0.8813

 Free energy of the ion-electron system (eV)
  ---------------------------------------------------
  alpha Z        PSCENC =         0.62641250
  Ewald energy   TEWEN  =       855.15778350
  -Hartree energ DENC   =     -1386.58801098
  -exchange      EXHF   =         0.00000000
  -V(xc)+E(xc)   XCENC  =        72.50417060
  PAW double counting   =       293.74125836     -299.03625700
  entropy T*S    EENTRO =        -0.00000000
  eigenvalues    EBANDS =      -256.71601064
  atomic energy  EATOM  =       663.51739852
  Solvation  Ediel_sol  =         0.00000000
  ---------------------------------------------------
  free energy    TOTEN  =       -56.79325514 eV

  energy without entropy =      -56.79325514  energy(sigma->0) =      -56.79325514


--------------------------------------------------------------------------------------------------------




--------------------------------------- Iteration      1(  20)  ---------------------------------------


    POTLOK:  cpu time      0.3035: real time      0.3054
    SETDIJ:  cpu time      0.1908: real time      0.1918
     EDDAV:  cpu time      0.3260: real time      0.3281
       DOS:  cpu time      0.0001: real time      0.0001
    CHARGE:  cpu time      0.1999: real time      0.2008
    MIXING:  cpu time      0.0116: real time      0.0117
    --------------------------------------------
      LOOP:  cpu time      1.0318: real time      1.0378

 eigenvalue-minimisations  :    48
 total energy-change (2. order) :-0.5803782E-04  (-0.1416082E-06)
 number of electron      22.0000000 magnetization 
 augmentation part        0.4875741 magnetization 

 Broyden mixing:
  rms(total) = 0.68829E-04    rms(broyden)= 0.68714E-04
  rms(prec ) = 0.11761E-03
  weight for this iteration     100.00

 eigenvalues of (default mixing * dielectric matrix)
  average eigenvalue GAMMA=   2.3656
  8.8142  5.7472  3.8785  2.7779  2.4480  2.0432  1.4379  1.2131  1.2131  1.1966
  0.9887  0.9887  0.9753  0.9029  0.8588

 Free energy of the ion-electron system (eV)
  ---------------------------------------------------
  alpha Z        PSCENC =         0.62641250
  Ewald energy   TEWEN  =       855.15778350
  -Hartree energ DENC   =     -1386.58807409
  -exchange      EXHF   =         0.00000000
  -V(xc)+E(xc)   XCENC  =        72.50400880
  PAW double counting   =       293.74295473     -299.03787927
  entropy T*S    EENTRO =        -0.00000000
  eigenvalues    EBANDS =      -256.71591786
  atomic energy  EATOM  =       663.51739852
  Solvation  Ediel_sol  =         0.00000000
  ---------------------------------------------------
  free energy    TOTEN  =       -56.79331318 eV

  energy without entropy =      -56.79331318  energy(sigma->0) =      -56.79331318


--------------------------------------------------------------------------------------------------------




--------------------------------------- Iteration      1(  21)  ---------------------------------------


    POTLOK:  cpu time      0.3098: real time      0.3117
    SETDIJ:  cpu time      0.1906: real time      0.1915
     EDDAV:  cpu time      0.3663: real time      0.3686
       DOS:  cpu time      0.0001: real time      0.0001
    CHARGE:  cpu time      0.1977: real time      0.1986
    MIXING:  cpu time      0.0123: real time      0.0124
    --------------------------------------------
      LOOP:  cpu time      1.0769: real time      1.0831

 eigenvalue-minimisations  :    56
 total energy-change (2. order) :-0.1887407E-04  (-0.2841469E-07)
 number of electron      22.0000000 magnetization 
 augmentation part        0.4875743 magnetization 

 Broyden mixing:
  rms(total) = 0.65850E-04    rms(broyden)= 0.65748E-04
  rms(prec ) = 0.89778E-04
  weight for this iteration     100.00

 eigenvalues of (default mixing * dielectric matrix)
  average eigenvalue GAMMA=   2.3901
  8.9537  5.9852  4.3035  2.8509  2.5315  1.9142  1.9142  1.4627  1.2712  1.2712
  1.0044  1.0044  1.0107  1.0107  0.8767  0.8767

 Free energy of the ion-electron system (eV)
  ---------------------------------------------------
  alpha Z        PSCENC =         0.62641250
  Ewald energy   TEWEN  =       855.15778350
  -Hartree energ DENC   =     -1386.59059180
  -exchange      EXHF   =         0.00000000
  -V(xc)+E(xc)   XCENC  =        72.50398254
  PAW double counting   =       293.74568942     -299.04062964
  entropy T*S    EENTRO =        -0.00000000
  eigenvalues    EBANDS =      -256.71337710
  atomic energy  EATOM  =       663.51739852
  Solvation  Ediel_sol  =         0.00000000
  ---------------------------------------------------
  free energy    TOTEN  =       -56.79333205 eV

  energy without entropy =      -56.79333205  energy(sigma->0) =      -56.79333205


--------------------------------------------------------------------------------------------------------




--------------------------------------- Iteration      1(  22)  ---------------------------------------


    POTLOK:  cpu time      0.3111: real time      0.3129
    SETDIJ:  cpu time      0.1900: real time      0.1910
     EDDAV:  cpu time      0.3658: real time      0.3681
       DOS:  cpu time      0.0001: real time      0.0001
    CHARGE:  cpu time      0.1988: real time      0.1997
    MIXING:  cpu time      0.0153: real time      0.0154
    --------------------------------------------
      LOOP:  cpu time      1.0810: real time      1.0872

 eigenvalue-minimisations  :    56
 total energy-change (2. order) :-0.9736095E-05  (-0.1476029E-07)
 number of electron      22.0000000 magnetization 
 augmentation part        0.4875734 magnetization 

 Broyden mixing:
  rms(total) = 0.18757E-04    rms(broyden)= 0.18406E-04
  rms(prec ) = 0.32806E-04
  weight for this iteration     100.00

 eigenvalues of (default mixing * dielectric matrix)
  average eigenvalue GAMMA=   2.4288
  9.0907  6.3408  4.7120  3.2505  2.4588  2.4588  2.0170  1.4510  1.2656  1.2656
  1.1889  0.9997  0.9997  1.0165  1.0165  0.8785  0.8785

 Free energy of the ion-electron system (eV)
  ---------------------------------------------------
  alpha Z        PSCENC =         0.62641250
  Ewald energy   TEWEN  =       855.15778350
  -Hartree energ DENC   =     -1386.59335731
  -exchange      EXHF   =         0.00000000
  -V(xc)+E(xc)   XCENC  =        72.50402695
  PAW double counting   =       293.74639955     -299.04135490
  entropy T*S    EENTRO =        -0.00000000
  eigenvalues    EBANDS =      -256.71065060
  atomic energy  EATOM  =       663.51739852
  Solvation  Ediel_sol  =         0.00000000
  ---------------------------------------------------
  free energy    TOTEN  =       -56.79334179 eV

  energy without entropy =      -56.79334179  energy(sigma->0) =      -56.79334179


--------------------------------------------------------------------------------------------------------




--------------------------------------- Iteration      1(  23)  ---------------------------------------


    POTLOK:  cpu time      0.3137: real time      0.3155
    SETDIJ:  cpu time      0.1903: real time      0.1912
     EDDAV:  cpu time      0.3691: real time      0.3715
       DOS:  cpu time      0.0001: real time      0.0001
    CHARGE:  cpu time      0.1970: real time      0.1979
    MIXING:  cpu time      0.0147: real time      0.0148
    --------------------------------------------
      LOOP:  cpu time      1.0849: real time      1.0948

 eigenvalue-minimisations  :    56
 total energy-change (2. order) :-0.3623330E-05  (-0.9870366E-08)
 number of electron      22.0000000 magnetization 
 augmentation part        0.4875728 magnetization 

 Broyden mixing:
  rms(total) = 0.25673E-04    rms(broyden)= 0.25419E-04
  rms(prec ) = 0.32637E-04
  weight for this iteration     100.00

 eigenvalues of (default mixing * dielectric matrix)
  average eigenvalue GAMMA=   2.4402
  9.1137  6.5638  4.8726  3.3513  2.6986  2.4901  1.9705  1.9705  1.3086  1.3086
  1.4411  1.0011  1.0011  1.0399  1.0399  0.9876  0.8825  0.8825

 Free energy of the ion-electron system (eV)
  ---------------------------------------------------
  alpha Z        PSCENC =         0.62641250
  Ewald energy   TEWEN  =       855.15778350
  -Hartree energ DENC   =     -1386.59352150
  -exchange      EXHF   =         0.00000000
  -V(xc)+E(xc)   XCENC  =        72.50399030
  PAW double counting   =       293.74582767     -299.04079485
  entropy T*S    EENTRO =        -0.00000000
  eigenvalues    EBANDS =      -256.71044155
  atomic energy  EATOM  =       663.51739852
  Solvation  Ediel_sol  =         0.00000000
  ---------------------------------------------------
  free energy    TOTEN  =       -56.79334541 eV

  energy without entropy =      -56.79334541  energy(sigma->0) =      -56.79334541


--------------------------------------------------------------------------------------------------------




--------------------------------------- Iteration      1(  24)  ---------------------------------------


    POTLOK:  cpu time      0.3189: real time      0.3244
    SETDIJ:  cpu time      0.1914: real time      0.1922
     EDDAV:  cpu time      0.3702: real time      0.3722
       DOS:  cpu time      0.0001: real time      0.0001
    CHARGE:  cpu time      0.1979: real time      0.1987
    MIXING:  cpu time      0.0135: real time      0.0135
    --------------------------------------------
      LOOP:  cpu time      1.0919: real time      1.0973

 eigenvalue-minimisations  :    56
 total energy-change (2. order) :-0.1536265E-05  (-0.3800313E-08)
 number of electron      22.0000000 magnetization 
 augmentation part        0.4875731 magnetization 

 Broyden mixing:
  rms(total) = 0.79102E-05    rms(broyden)= 0.70529E-05
  rms(prec ) = 0.11583E-04
  weight for this iteration     100.00
  WARNING: grid for Broyden might be to small

 eigenvalues of (default mixing * dielectric matrix)
  average eigenvalue GAMMA=   2.4354
  9.1311  6.8758  5.1422  3.7593  2.7559  2.4518  2.0200  2.0200  1.3160  1.3160
  1.4649  1.1443  1.1443  0.9967  0.9967  0.8766  0.8766  0.9926  0.9926

 Free energy of the ion-electron system (eV)
  ---------------------------------------------------
  alpha Z        PSCENC =         0.62641250
  Ewald energy   TEWEN  =       855.15778350
  -Hartree energ DENC   =     -1386.59344638
  -exchange      EXHF   =         0.00000000
  -V(xc)+E(xc)   XCENC  =        72.50400138
  PAW double counting   =       293.74526947     -299.04022778
  entropy T*S    EENTRO =        -0.00000000
  eigenvalues    EBANDS =      -256.71053816
  atomic energy  EATOM  =       663.51739852
  Solvation  Ediel_sol  =         0.00000000
  ---------------------------------------------------
  free energy    TOTEN  =       -56.79334695 eV

  energy without entropy =      -56.79334695  energy(sigma->0) =      -56.79334695


--------------------------------------------------------------------------------------------------------




--------------------------------------- Iteration      1(  25)  ---------------------------------------


    POTLOK:  cpu time      0.3201: real time      0.3218
    SETDIJ:  cpu time      0.1902: real time      0.1910
     EDDAV:  cpu time      0.3694: real time      0.3714
       DOS:  cpu time      0.0002: real time      0.0002
    --------------------------------------------
      LOOP:  cpu time      0.8798: real time      0.8843

 eigenvalue-minimisations  :    56
 total energy-change (2. order) :-0.3595478E-06  (-0.1028180E-08)
 number of electron      22.0000000 magnetization 
 augmentation part        0.4875731 magnetization 

 Free energy of the ion-electron system (eV)
  ---------------------------------------------------
  alpha Z        PSCENC =         0.62641250
  Ewald energy   TEWEN  =       855.15778350
  -Hartree energ DENC   =     -1386.59368361
  -exchange      EXHF   =         0.00000000
  -V(xc)+E(xc)   XCENC  =        72.50401127
  PAW double counting   =       293.74557554     -299.04053480
  entropy T*S    EENTRO =        -0.00000000
  eigenvalues    EBANDS =      -256.71031024
  atomic energy  EATOM  =       663.51739852
  Solvation  Ediel_sol  =         0.00000000
  ---------------------------------------------------
  free energy    TOTEN  =       -56.79334731 eV

  energy without entropy =      -56.79334731  energy(sigma->0) =      -56.79334731


--------------------------------------------------------------------------------------------------------




 average (electrostatic) potential at core
  the test charge radii are     0.6991  0.5201
  (the norm of the test charge is              1.0000)
       1 -58.6586       2 -58.8994       3 -58.9093       4 -58.5429       5 -41.6985
       6 -42.0700       7 -42.2152       8 -41.7892       9 -42.4326      10 -41.8563
 
 
 
 E-fermi :  -5.4437     XC(G=0):  -0.4467     alpha+bet : -0.1681

 Fermi energy:        -5.4437028805

 k-point     1 :       0.0000    0.0000    0.0000
  band No.  band energies     occupation 
      1     -19.6378      2.00000
      2     -17.8921      2.00000
      3     -14.7133      2.00000
      4     -13.4682      2.00000
      5     -11.2123      2.00000
      6     -11.0859      2.00000
      7      -9.3369      2.00000
      8      -9.3265      2.00000
      9      -8.2220      2.00000
     10      -7.7502      2.00000
     11      -5.7100      2.00000
     12      -1.9112      0.00000
     13      -0.3251      0.00000
     14       0.0179      0.00000
     15       0.0868      0.00000
     16       0.1364      0.00000
     17       0.3975      0.00000
     18       0.4997      0.00000
     19       0.5154      0.00000
     20       0.6422      0.00000
     21       0.8653      0.00000
     22       0.9244      0.00000
     23       0.9760      0.00000
     24       1.1271      0.00000


--------------------------------------------------------------------------------------------------------


 soft charge-density along one line, spin component           1
         0         1         2         3         4         5         6         7         8         9
 total charge-density along one line
 
 pseudopotential strength for first ion, spin component:           1
 10.253   0.020  -0.000  -0.002   0.000   0.000  -0.001  -0.000
  0.020  -0.001   0.000   0.000  -0.000  -0.000  -0.000  -0.000
 -0.000   0.000  -4.357   0.000  -0.000  -0.011   0.000  -0.000
 -0.002   0.000   0.000  -4.374   0.003   0.000  -0.015   0.001
  0.000  -0.000  -0.000   0.003  -4.375  -0.000   0.001  -0.016
  0.000  -0.000  -0.011   0.000  -0.000  -0.772   0.000  -0.000
 -0.001  -0.000   0.000  -0.015   0.001   0.000  -0.773   0.000
 -0.000  -0.000  -0.000   0.001  -0.016  -0.000   0.000  -0.773
 total augmentation occupancy for first ion, spin component:           1
  1.475  -1.018   0.002   0.029  -0.000  -0.005   0.017  -0.006
 -1.018   0.780   0.028  -0.071   0.033   0.007  -0.032   0.019
  0.002   0.028   0.886  -0.004   0.001   0.080  -0.001   0.002
  0.029  -0.071  -0.004   1.173  -0.033  -0.001   0.199  -0.016
 -0.000   0.033   0.001  -0.033   1.184   0.002  -0.016   0.198
 -0.005   0.007   0.080  -0.001   0.002   0.008  -0.000   0.000
  0.017  -0.032  -0.001   0.199  -0.016  -0.000   0.036  -0.005
 -0.006   0.019   0.002  -0.016   0.198   0.000  -0.005   0.035


------------------------ aborting loop because EDIFF is reached ----------------------------------------


    CHARGE:  cpu time      0.1925: real time      0.1933
    FORLOC:  cpu time      0.0362: real time      0.0363
    FORNL :  cpu time      1.0743: real time      1.0794
    STRESS:  cpu time      3.3798: real time      3.3959
    FORHAR:  cpu time      0.1111: real time      0.1117
    MIXING:  cpu time      0.0120: real time      0.0120
    OFIELD:  cpu time      0.0001: real time      0.0001

  FORCE on cell =-STRESS in cart. coord.  units (eV):
  Direction    XX          YY          ZZ          XY          YZ          ZX
  --------------------------------------------------------------------------------------
  Alpha Z     0.62641     0.62641     0.62641
  Ewald     319.53296  -221.09469   756.71917    26.00176   -41.64338  -141.07292
  Hartree   422.54286   183.64077   780.41002    12.67628   -25.28070   -94.26094
  E(xc)     -75.45953   -77.63693   -75.30984     0.08839    -0.08952    -0.13345
  Local    -923.51818  -187.03639 -1727.54861   -37.03919    65.61015   234.72890
  n-local   -31.42902   -27.81893   -30.14184    -0.12542     0.07933    -0.09311
  augment    -0.70854    -0.48567    -0.61579    -0.00827     0.00528    -0.00169
  Kinetic   287.11636   329.65915   290.34531    -1.75728     1.45426     1.36875
  Fock        0.00000     0.00000     0.00000     0.00000     0.00000     0.00000
  -------------------------------------------------------------------------------------
  Total      -1.29668    -0.14627    -5.51517    -0.16374     0.13542     0.53554
  in kB      -0.61556    -0.06944    -2.61816    -0.07773     0.06429     0.25423
  external pressure =       -1.10 kB  Pullay stress =        0.00 kB


 VOLUME and BASIS-vectors are now :
 -----------------------------------------------------------------------------
  energy-cutoff  :      520.00
  volume of cell :     3375.00
      direct lattice vectors                 reciprocal lattice vectors
    15.000000000  0.000000000  0.000000000     0.066666667  0.000000000  0.000000000
     0.000000000 15.000000000  0.000000000     0.000000000  0.066666667  0.000000000
     0.000000000  0.000000000 15.000000000     0.000000000  0.000000000  0.066666667

  length of vectors
    15.000000000 15.000000000 15.000000000     0.066666667  0.066666667  0.066666667


 FORCES acting on ions
    electron-ion (+dipol)            ewald-force                    non-local-force                 convergence-correction
 -----------------------------------------------------------------------------------------------
   -.619E+02 -.938E+01 0.122E+03   0.610E+02 0.966E+01 -.121E+03   -.105E+01 -.692E+00 0.379E+00   -.160E-04 -.103E-04 0.665E-04
   0.725E+02 0.206E+01 0.315E+02   -.716E+02 -.230E+01 -.319E+02   0.168E+01 0.526E+00 -.279E+00   -.103E-04 -.806E-05 -.458E-04
   -.783E+02 -.254E+01 -.257E+02   0.791E+02 0.269E+01 0.253E+02   -.507E+00 0.185E+00 -.131E+01   0.960E-06 -.623E-05 -.101E-03
   0.644E+02 0.111E+02 -.129E+03   -.639E+02 -.110E+02 0.130E+03   0.152E+01 -.156E-02 -.455E+00   -.271E-04 -.890E-05 -.957E-05
   0.135E+02 0.932E+00 0.621E+02   -.150E+02 -.929E+00 -.658E+02   0.181E+01 0.173E+00 0.484E+01   0.697E-05 -.707E-06 0.234E-04
   -.639E+02 0.392E+00 0.113E+02   0.697E+02 -.489E+00 -.107E+02   -.576E+01 0.128E+00 -.471E+00   -.194E-04 -.613E-06 0.345E-05
   0.676E+02 -.302E+01 0.185E+02   -.739E+02 0.316E+01 -.195E+02   0.584E+01 -.295E+00 0.109E+01   0.248E-04 -.266E-05 0.641E-05
   -.657E+02 -.641E+01 -.142E+02   0.698E+02 0.672E+01 0.147E+02   -.513E+01 -.568E+00 -.359E+00   0.935E-05 -.564E-06 -.508E-05
   0.662E+02 0.491E+01 -.117E+02   -.740E+02 -.542E+01 0.110E+02   0.632E+01 0.371E+00 0.597E+00   -.167E-04 -.151E-05 -.849E-05
   -.168E+02 0.201E+01 -.634E+02   0.187E+02 -.210E+01 0.680E+02   -.228E+01 0.940E-01 -.500E+01   0.507E-05 -.886E-06 0.546E-05
 -----------------------------------------------------------------------------------------------
   -.246E+01 0.784E-01 0.970E+00   0.107E-13 0.000E+00 0.284E-13   0.246E+01 -.801E-01 -.969E+00   -.424E-04 -.404E-04 -.645E-04
 
 
 POSITION                                       TOTAL-FORCE (eV/Angst)
 -----------------------------------------------------------------------------------
      8.07800      7.58900      5.71800        -1.974397     -0.409843      0.630532
      7.21900      7.53100      6.81600         2.626783      0.291663     -0.669955
      7.72100      7.49300      8.23200         0.317372      0.331423     -1.671159
      6.91400      7.38700      9.29900         2.012456      0.110089      0.655628
      7.67900      7.55800      4.66100         0.330070      0.175647      1.146368
      9.16100      7.56600      5.81500         0.104156      0.030900      0.159210
      6.15700      7.57600      6.63300        -0.511380     -0.149546      0.073718
      8.84300      7.60900      8.31600        -1.096161     -0.257446      0.132171
      5.86900      7.32400      9.20000        -1.426309     -0.130524     -0.082037
      7.36200      7.36800     10.31000        -0.382590      0.007638     -0.374476
 -----------------------------------------------------------------------------------
    total drift:                               -0.000763     -0.001753      0.000644


--------------------------------------------------------------------------------------------------------



  FREE ENERGIE OF THE ION-ELECTRON SYSTEM (eV)
  ---------------------------------------------------
  free  energy   TOTEN  =       -56.79334731 eV

  energy  without entropy=      -56.79334731  energy(sigma->0) =      -56.79334731
 


--------------------------------------------------------------------------------------------------------


    POTLOK:  cpu time      0.5111: real time      0.5136


--------------------------------------------------------------------------------------------------------


 stress matrix after NEB project (eV)
     -1.29668     -0.16374      0.53554
     -0.16374     -0.14627      0.13542
      0.53554      0.13542     -5.51517
  FORCES: max atom, RMS     2.726517    1.574912
  FORCE total and by dimension    4.980310    2.626783
  Stress total and by dimension    5.725713    5.515170
     LOOP+:  cpu time     29.9629: real time     30.1320
    4ORBIT:  cpu time      0.0000: real time      0.0000

 total amount of memory used by VASP MPI-rank0   224784. kBytes
=======================================================================

   base      :      30000. kBytes
   nonlr-proj:       1260. kBytes
   fftplans  :     123538. kBytes
   grid      :      67787. kBytes
   one-center:         15. kBytes
   wavefun   :       2184. kBytes
 
  
  
 General timing and accounting informations for this job:
 ========================================================
  
                  Total CPU time used (sec):       36.532
                            User time (sec):       33.333
                          System time (sec):        3.199
                         Elapsed time (sec):       37.571
  
                   Maximum memory used (kb):      558624.
                   Average memory used (kb):          N/A
  
                          Minor page faults:       199450
                          Major page faults:         5471
                 Voluntary context switches:         3132
