 vasp.6.4.2 20Jul23 (build Apr 10 2024 13:39:58) complex                        
  
 executed on             LinuxIFC date 2024.05.18  08:31:34
 running   16 mpi-ranks, on    1 nodes
 distrk:  each k-point on   16 cores,    1 groups
 distr:  one band on NCORE=   2 cores,    8 groups


--------------------------------------------------------------------------------------------------------


 INCAR:
   ISTART = 0
   ISPIN = 1
   LREAL = Auto
   ENCUT = 520
   NPAR = 8
   LPLANE = .TRUE.
   LSCALU = .FALSE.
   NSIM = 4
   LWAVE = .FALSE.
   LCHARG = .FALSE.
   ADDGRID = .TRUE.
   LASPH = .TRUE.
   PREC = Accurate
   ISMEAR = 0
   SIGMA = 0.05
   EDIFF = 1E-06
   NSW = 0
   TEBEG = 300
   TEEND = 700     	
   ISYM = 0
   NWRITE = 2

 POTCAR:   PAW_PBE C 08Apr2002                    
 POTCAR:   PAW_PBE H 15Jun2001                    
 POTCAR:   PAW_PBE C 08Apr2002                    
   VRHFIN =C: s2p2                                                                                  
   LEXCH  = PE                                                                                      
   EATOM  =   147.1560 eV,   10.8157 Ry                                                             
                                                                                                    
   TITEL  = PAW_PBE C 08Apr2002                                                                     
   LULTRA =        F    use ultrasoft PP ?                                                          
   IUNSCR =        0    unscreen: 0-lin 1-nonlin 2-no                                               
   RPACOR =     .000    partial core radius                                                         
   POMASS =   12.011; ZVAL   =    4.000    mass and valenz                                          
   RCORE  =    1.500    outmost cutoff radius                                                       
   RWIGS  =    1.630; RWIGS  =     .863    wigner-seitz radius (au A)                               
   ENMAX  =  400.000; ENMIN  =  300.000 eV                                                          
   ICORE  =        2    local potential                                                             
   LCOR   =        T    correct aug charges                                                         
   LPAW   =        T    paw PP                                                                      
   EAUG   =  644.873                                                                                
   DEXC   =     .000                                                                                
   RMAX   =    2.266    core radius for proj-oper                                                   
   RAUG   =    1.300    factor for augmentation sphere                                              
   RDEP   =    1.501    radius for radial grids                                                     
   RDEPT  =    1.300    core radius for aug-charge                                                  
   QCUT   =   -5.516; QGAM   =   11.032    optimization parameters                                  
                                                                                                    
   Description                                                                                      
     l     E      TYP  RCUT    TYP  RCUT                                                            
     0   .000     23  1.200                                                                         
     0   .000     23  1.200                                                                         
     1   .000     23  1.500                                                                         
     1  2.500     23  1.500                                                                         
     2   .000      7  1.500                                                                         
  local pseudopotential read in
  atomic valenz-charges read in
  non local Contribution for L=           0  read in
    real space projection operators read in
  non local Contribution for L=           0  read in
    real space projection operators read in
  non local Contribution for L=           1  read in
    real space projection operators read in
  non local Contribution for L=           1  read in
    real space projection operators read in
    PAW grid and wavefunctions read in
 
   number of l-projection  operators is LMAX  =           4
   number of lm-projection operators is LMMAX =           8
 
 POTCAR:   PAW_PBE H 15Jun2001                    
   VRHFIN =H: ultrasoft test                                                                        
   LEXCH  = PE                                                                                      
   EATOM  =    12.4884 eV,     .9179 Ry                                                             
                                                                                                    
   TITEL  = PAW_PBE H 15Jun2001                                                                     
   LULTRA =        F    use ultrasoft PP ?                                                          
   IUNSCR =        0    unscreen: 0-lin 1-nonlin 2-no                                               
   RPACOR =     .000    partial core radius                                                         
   POMASS =    1.000; ZVAL   =    1.000    mass and valenz                                          
   RCORE  =    1.100    outmost cutoff radius                                                       
   RWIGS  =     .700; RWIGS  =     .370    wigner-seitz radius (au A)                               
   ENMAX  =  250.000; ENMIN  =  200.000 eV                                                          
   RCLOC  =     .701    cutoff for local pot                                                        
   LCOR   =        T    correct aug charges                                                         
   LPAW   =        T    paw PP                                                                      
   EAUG   =  400.000                                                                                
   RMAX   =    2.174    core radius for proj-oper                                                   
   RAUG   =    1.200    factor for augmentation sphere                                              
   RDEP   =    1.112    radius for radial grids                                                     
   QCUT   =   -5.749; QGAM   =   11.498    optimization parameters                                  
                                                                                                    
   Description                                                                                      
     l     E      TYP  RCUT    TYP  RCUT                                                            
     0   .000     23  1.100                                                                         
     0   .500     23  1.100                                                                         
     1  -.300     23  1.100                                                                         
  local pseudopotential read in
  atomic valenz-charges read in
  non local Contribution for L=           0  read in
    real space projection operators read in
  non local Contribution for L=           0  read in
    real space projection operators read in
  non local Contribution for L=           1  read in
    real space projection operators read in
    PAW grid and wavefunctions read in
 
   number of l-projection  operators is LMAX  =           3
   number of lm-projection operators is LMMAX =           5
 
 Optimization of the real space projectors (new method)

 maximal supplied QI-value         = 25.13
 optimisation between [QCUT,QGAM] = [ 11.56, 23.12] = [ 37.43,149.72] Ry 
 Optimized for a Real-space Cutoff    1.04 Angstroem

   l    n(q)    QCUT    max X(q) W(low)/X(q) W(high)/X(q)  e(spline) 
   0      7    11.561     5.582    0.47E-04    0.94E-04    0.17E-07
   0      7    11.561    69.432    0.20E-03    0.59E-03    0.21E-06
   1      7    11.561     2.780    0.24E-04    0.70E-04    0.44E-07
   1      7    11.561     4.549    0.18E-03    0.25E-03    0.12E-06
 Optimization of the real space projectors (new method)

 maximal supplied QI-value         = 34.20
 optimisation between [QCUT,QGAM] = [ 11.63, 23.26] = [ 37.87,151.49] Ry 
 Optimized for a Real-space Cutoff    1.21 Angstroem

   l    n(q)    QCUT    max X(q) W(low)/X(q) W(high)/X(q)  e(spline) 
   0      8    11.629     4.436    0.19E-04    0.32E-04    0.47E-07
   0      8    11.629    16.131    0.16E-03    0.33E-03    0.21E-06
   1      8    11.629     4.654    0.18E-03    0.16E-03    0.26E-06
 PAW_PBE C 08Apr2002                    :
 energy of atom  1       EATOM= -147.1560
 kinetic energy error for atom=    0.0071 (will be added to EATOM!!)
 PAW_PBE H 15Jun2001                    :
 energy of atom  2       EATOM=  -12.4884
 kinetic energy error for atom=    0.0014 (will be added to EATOM!!)
 
 
 POSCAR:  C  H
  positions in cartesian coordinates
  No initial velocities read in
 exchange correlation table for  LEXCH =        8
   RHO(1)=    0.500       N(1)  =     2000
   RHO(2)=  100.500       N(2)  =     4000

 VTST: version 4.1, (05/19/21)

 CHAIN: initializing optimizer
 
 OPT: Using VASP Dynamics algorithm
 CHAIN: Read ICHAIN            0
 
 POSCAR:  C  H
  positions in cartesian coordinates
  No initial velocities read in
 


--------------------------------------------------------------------------------------------------------


 ion  position               nearest neighbor table
   1  0.526  0.475  0.418-   5 1.07   6 1.10   2 1.34
   2  0.486  0.549  0.449-   7 1.11   1 1.34   3 1.50
   3  0.489  0.551  0.549-   8 1.11   4 1.40   2 1.50
   4  0.486  0.464  0.581-   9 1.07  10 1.16   3 1.40
   5  0.525  0.461  0.349-   1 1.07
   6  0.575  0.438  0.459-   1 1.10
   7  0.451  0.597  0.406-   2 1.11
   8  0.499  0.610  0.593-   3 1.11
   9  0.467  0.409  0.540-   4 1.07
  10  0.496  0.447  0.656-   4 1.16
 

IMPORTANT INFORMATION: All symmetrisations will be switched off!
NOSYMM: (Re-)initialisation of all symmetry stuff for point group C_1.


----------------------------------------------------------------------------------------

                                     Primitive cell                                     

  volume of cell :    3375.0000

  direct lattice vectors                    reciprocal lattice vectors
    15.000000000  0.000000000  0.000000000     0.066666667  0.000000000  0.000000000
     0.000000000 15.000000000  0.000000000     0.000000000  0.066666667  0.000000000
     0.000000000  0.000000000 15.000000000     0.000000000  0.000000000  0.066666667

  length of vectors
    15.000000000 15.000000000 15.000000000     0.066666667  0.066666667  0.066666667

  position of ions in fractional coordinates (direct lattice)
     0.526399994  0.474866676  0.418400002
     0.486266677  0.548533312  0.448933347
     0.488533338  0.551133347  0.548733330
     0.485733318  0.463733323  0.581200027
     0.525133324  0.460999997  0.348666668
     0.575133324  0.438466676  0.459399986
     0.450733344  0.596933365  0.405799993
     0.498733330  0.609866651  0.592866643
     0.467199993  0.408600012  0.540133349
     0.496199989  0.446933333  0.655866687

  ion indices of the primitive-cell ions
   primitive index   ion index
                 1           1
                 2           2
                 3           3
                 4           4
                 5           5
                 6           6
                 7           7
                 8           8
                 9           9
                10          10

----------------------------------------------------------------------------------------

 
 
 KPOINTS: K-Spacing Value to Generate K-Mesh: 1.00

Automatic generation of k-mesh.
 Grid dimensions read from file:
 generate k-points for:    1    1    1

 Generating k-lattice:

  Cartesian coordinates                     Fractional coordinates (reciprocal lattice)
     0.066666667  0.000000000  0.000000000     1.000000000  0.000000000  0.000000000
     0.000000000  0.066666667  0.000000000     0.000000000  1.000000000  0.000000000
     0.000000000  0.000000000  0.066666667     0.000000000  0.000000000  1.000000000

  Length of vectors
     0.066666667  0.066666667  0.066666667

  Shift w.r.t. Gamma in fractional coordinates (k-lattice)
     0.000000000  0.000000000  0.000000000

 
 Subroutine IBZKPT returns following result:
 ===========================================
 
 Found      1 irreducible k-points:
 
 Following reciprocal coordinates:
            Coordinates               Weight
  0.000000  0.000000  0.000000      1.000000
 
 Following cartesian coordinates:
            Coordinates               Weight
  0.000000  0.000000  0.000000      1.000000
 


--------------------------------------------------------------------------------------------------------




 Dimension of arrays:
   k-points           NKPTS =      1   k-points in BZ     NKDIM =      1   number of bands    NBANDS=     24
   number of dos      NEDOS =    301   number of ions     NIONS =     10
   non local maximal  LDIM  =      4   non local SUM 2l+1 LMDIM =      8
   total plane-waves  NPLWV = ******
   max r-space proj   IRMAX =   3145   max aug-charges    IRDMAX=  39494
   dimension x,y,z NGX =   112 NGY =  112 NGZ =  112
   dimension x,y,z NGXF=   224 NGYF=  224 NGZF=  224
   support grid    NGXF=   448 NGYF=  448 NGZF=  448
   ions per type =               4   6
   NGX,Y,Z   is equivalent  to a cutoff of  12.41, 12.41, 12.41 a.u.
   NGXF,Y,Z  is equivalent  to a cutoff of  24.83, 24.83, 24.83 a.u.

 SYSTEM =  unknown system                          
 POSCAR =   C  H                                   

 Startparameter for this run:
   NWRITE =      2    write-flag & timer
   PREC   = accura    normal or accurate (medium, high low for compatibility)
   ISTART =      0    job   : 0-new  1-cont  2-samecut
   ICHARG =      2    charge: 1-file 2-atom 10-const
   ISPIN  =      1    spin polarized calculation?
   LNONCOLLINEAR =      F non collinear calculations
   LSORBIT =      F    spin-orbit coupling
   INIWAV =      1    electr: 0-lowe 1-rand  2-diag
   LASPH  =      T    aspherical Exc in radial PAW
 Electronic Relaxation 1
   ENCUT  =  520.0 eV  38.22 Ry    6.18 a.u.  27.89 27.89 27.89*2*pi/ulx,y,z
   ENINI  =  520.0     initial cutoff
   ENAUG  =  644.9 eV  augmentation charge cutoff
   NELM   =     60;   NELMIN=  2; NELMDL= -5     # of ELM steps 
   EDIFF  = 0.1E-05   stopping-criterion for ELM
   LREAL  =      T    real-space projection
   NLSPLINE    = F    spline interpolate recip. space projectors
   LCOMPAT=      F    compatible to vasp.4.4
   GGA_COMPAT  = T    GGA compatible to vasp.4.4-vasp.4.6
   LMAXPAW     = -100 max onsite density
   LMAXMIX     =    2 max onsite mixed and CHGCAR
   VOSKOWN=      0    Vosko Wilk Nusair interpolation
   ROPT   =   -0.00025  -0.00025
 Ionic relaxation
   EDIFFG = 0.1E-04   stopping-criterion for IOM
   NSW    =      0    number of steps for IOM
   NBLOCK =      1;   KBLOCK =      1    inner block; outer block 
   IBRION =     -1    ionic relax: 0-MD 1-quasi-New 2-CG
   NFREE  =      0    steps in history (QN), initial steepest desc. (CG)
   ISIF   =      2    stress and relaxation
   IWAVPR =     10    prediction:  0-non 1-charg 2-wave 3-comb
   ISYM   =      0    0-nonsym 1-usesym 2-fastsym
   LCORR  =      T    Harris-Foulkes like correction to forces

   POTIM  = 0.5000    time-step for ionic-motion
   TEIN   =    0.0    initial temperature
   TEBEG  =  300.0;   TEEND  = 700.0 temperature during run
   SMASS  =  -3.00    Nose mass-parameter (am)
   estimated Nose-frequenzy (Omega)   =  0.10E-29 period in steps = 0.13E+47 mass=  -0.514E-26a.u.
   SCALEE = 1.0000    scale energy and forces
   NPACO  =    256;   APACO  = 10.0  distance and # of slots for P.C.
   PSTRESS=    0.0 pullay stress

  Mass of Ions in am
   POMASS =  12.01  1.00
  Ionic Valenz
   ZVAL   =   4.00  1.00
  Atomic Wigner-Seitz radii
   RWIGS  =  -1.00 -1.00
  virtual crystal weights 
   VCA    =   1.00  1.00
   NELECT =      22.0000    total number of electrons
   NUPDOWN=      -1.0000    fix difference up-down

 DOS related values:
   EMIN   =  10.00;   EMAX   =-10.00  energy-range for DOS
   EFERMI =   0.00;   METHOD = LEGACY      
   ISMEAR =     0;   SIGMA  =   0.05  broadening in eV -4-tet -1-fermi 0-gaus

 Electronic relaxation 2 (details)
   IALGO  =     38    algorithm
   LDIAG  =      T    sub-space diagonalisation (order eigenvalues)
   LSUBROT=      F    optimize rotation matrix (better conditioning)
   TURBO    =      0    0=normal 1=particle mesh
   IRESTART =      0    0=no restart 2=restart with 2 vectors
   NREBOOT  =      0    no. of reboots
   NMIN     =      0    reboot dimension
   EREF     =   0.00    reference energy to select bands
   IMIX   =      4    mixing-type and parameters
     AMIX     =   0.40;   BMIX     =  1.00
     AMIX_MAG =   1.60;   BMIX_MAG =  1.00
     AMIN     =   0.10
     WC   =   100.;   INIMIX=   1;  MIXPRE=   1;  MAXMIX= -45

 Intra band minimization:
   WEIMIN = 0.0000     energy-eigenvalue tresh-hold
   EBREAK =  0.10E-07  absolut break condition
   DEPER  =   0.30     relativ break condition  

   TIME   =   0.40     timestep for ELM

  volume/ion in A,a.u.               =     337.50      2277.56
  Fermi-wavevector in a.u.,A,eV,Ry     =   0.305814  0.577905  1.272449  0.093522
  Thomas-Fermi vector in A             =   1.179187
 
 Write flags
   LWAVE        =      F    write WAVECAR
   LDOWNSAMPLE  =      F    k-point downsampling of WAVECAR
   LCHARG       =      F    write CHGCAR
   LVTOT        =      F    write LOCPOT, total local potential
   LVHAR        =      F    write LOCPOT, Hartree potential only
   LELF         =      F    write electronic localiz. function (ELF)
   LORBIT       =      0    0 simple, 1 ext, 2 COOP (PROOUT), +10 PAW based schemes


 Dipole corrections
   LMONO  =      F    monopole corrections only (constant potential shift)
   LDIPOL =      F    correct potential (dipole corrections)
   IDIPOL =      0    1-x, 2-y, 3-z, 4-all directions 
   EPSILON=  1.0000000 bulk dielectric constant

 Exchange correlation treatment:
   GGA     =    --    GGA type
   LEXCH   =     8    internal setting for exchange type
   LIBXC   =     F    Libxc                    
   VOSKOWN =     0    Vosko Wilk Nusair interpolation
   LHFCALC =     F    Hartree Fock is set to
   LHFONE  =     F    Hartree Fock one center treatment
   AEXX    =    0.0000 exact exchange contribution

 Linear response parameters
   LEPSILON=     F    determine dielectric tensor
   LRPA    =     F    only Hartree local field effects (RPA)
   LNABLA  =     F    use nabla operator in PAW spheres
   LVEL    =     F    velocity operator in full k-point grid
   CSHIFT  =0.1000    complex shift for real part using Kramers Kronig
   OMEGAMAX=  -1.0    maximum frequency
   DEG_THRESHOLD= 0.2000000E-02 threshold for treating states as degnerate
   RTIME   =   -0.100 relaxation time in fs
  (WPLASMAI=    0.000 imaginary part of plasma frequency in eV, 0.658/RTIME)
   DFIELD  = 0.0000000 0.0000000 0.0000000 field for delta impulse in time
 
  Optional k-point grid parameters
   LKPOINTS_OPT  =     F    use optional k-point grid
   KPOINTS_OPT_MODE=     1    mode for optional k-point grid
 
 Orbital magnetization related:
   ORBITALMAG=     F  switch on orbital magnetization
   LCHIMAG   =     F  perturbation theory with respect to B field
   DQ        =  0.001000  dq finite difference perturbation B field
   LLRAUG    =     F  two centre corrections for induced B field
   LBONE     =     F  B-component reconstruction in AE one-centre
   LVGVCALC  =     T  calculate vGv susceptibility
   LVGVAPPL  =     F  apply vGv susceptibility instead of pGv for G=0

 Random number generation:
   RANDOM_GENERATOR = DEFAULT
   PCG_SEED         = not used


--------------------------------------------------------------------------------------------------------


 Static calculation
 charge density and potential will be updated during run
 non-spin polarized calculation
 Variant of blocked Davidson
 Davidson routine will perform the subspace rotation
 perform sub-space diagonalisation
    after iterative eigenvector-optimisation
 modified Broyden-mixing scheme, WC =      100.0
 initial mixing is a Kerker type mixing with AMIX =  0.4000 and BMIX =      1.0000
 Hartree-type preconditioning will be used
 using additional bands           13
 real space projection scheme for non local part
 calculate Harris-corrections to forces 
   (improved forces if not selfconsistent)
 use gradient corrections 
 use of overlap-Matrix (Vanderbilt PP)
 Gauss-broadening in eV      SIGMA  =   0.05


--------------------------------------------------------------------------------------------------------


  energy-cutoff  :      520.00
  volume of cell :     3375.00
      direct lattice vectors                 reciprocal lattice vectors
    15.000000000  0.000000000  0.000000000     0.066666667  0.000000000  0.000000000
     0.000000000 15.000000000  0.000000000     0.000000000  0.066666667  0.000000000
     0.000000000  0.000000000 15.000000000     0.000000000  0.000000000  0.066666667

  length of vectors
    15.000000000 15.000000000 15.000000000     0.066666667  0.066666667  0.066666667


 
 k-points in units of 2pi/SCALE and weight: K-Spacing Value to Generate K-Mesh: 1.00
   0.00000000  0.00000000  0.00000000       1.000
 
 k-points in reciprocal lattice and weights: K-Spacing Value to Generate K-Mesh: 1.00
   0.00000000  0.00000000  0.00000000       1.000
 
 position of ions in fractional coordinates (direct lattice) 
   0.52639999  0.47486668  0.41840000
   0.48626668  0.54853331  0.44893335
   0.48853334  0.55113335  0.54873333
   0.48573332  0.46373332  0.58120003
   0.52513332  0.46100000  0.34866667
   0.57513332  0.43846668  0.45939999
   0.45073334  0.59693336  0.40579999
   0.49873333  0.60986665  0.59286664
   0.46719999  0.40860001  0.54013335
   0.49619999  0.44693333  0.65586669
 
 position of ions in cartesian coordinates  (Angst):
   7.89599991  7.12300014  6.27600002
   7.29400015  8.22799969  6.73400021
   7.32800007  8.26700020  8.23099995
   7.28599977  6.95599985  8.71800041
   7.87699986  6.91499996  5.23000002
   8.62699986  6.57700014  6.89099979
   6.76100016  8.95400047  6.08699989
   7.48099995  9.14799976  8.89299965
   7.00799990  6.12900019  8.10200024
   7.44299984  6.70400000  9.83800030
 


--------------------------------------------------------------------------------------------------------


 k-point   1 :   0.0000 0.0000 0.0000  plane waves:   90879

 maximum and minimum number of plane-waves per node :     45467    45412

 maximum number of plane-waves:     90879
 maximum index in each direction: 
   IXMAX=   27   IYMAX=   27   IZMAX=   27
   IXMIN=  -27   IYMIN=  -27   IZMIN=  -27


 real space projection operators:
  total allocation   :       1186.75 KBytes
  max/ min on nodes  :        595.27        591.48


 parallel 3D FFT for wavefunctions:
    minimum data exchange during FFTs selected (reduces bandwidth)
 parallel 3D FFT for charge:
    minimum data exchange during FFTs selected (reduces bandwidth)


 total amount of memory used by VASP MPI-rank0   224785. kBytes
=======================================================================

   base      :      30000. kBytes
   nonlr-proj:       1261. kBytes
   fftplans  :     123538. kBytes
   grid      :      67787. kBytes
   one-center:         15. kBytes
   wavefun   :       2184. kBytes
 
     INWAV:  cpu time      0.0000: real time      0.0000
 Broyden mixing: mesh for mixing (old mesh)
   NGX = 55   NGY = 55   NGZ = 55
  (NGX  =224   NGY  =224   NGZ  =224)
  gives a total of 166375 points

 initial charge density was supplied:
 charge density of overlapping atoms calculated
 number of electron      22.0000000 magnetization 
 keeping initial charge density in first step


--------------------------------------------------------------------------------------------------------


 Maximum index for non-local projection operator         1519
 Maximum index for augmentation-charges         2331 (set IRDMAX)


--------------------------------------------------------------------------------------------------------


 First call to EWALD:  gamma=   0.118
 Maximum number of real-space cells 3x 3x 3
 Maximum number of reciprocal cells 3x 3x 3

    FEWALD:  cpu time      0.0012: real time      0.0012


--------------------------------------- Ionic step        1  -------------------------------------------




--------------------------------------- Iteration      1(   1)  ---------------------------------------


    POTLOK:  cpu time      0.3388: real time      0.3407
    SETDIJ:  cpu time      0.1942: real time      0.1951
     EDDAV:  cpu time      0.4209: real time      0.4232
       DOS:  cpu time      0.0003: real time      0.0003
    --------------------------------------------
      LOOP:  cpu time      0.9541: real time      0.9592

 eigenvalue-minimisations  :    64
 total energy-change (2. order) : 0.1049139E+03  (-0.5257535E+03)
 number of electron      22.0000000 magnetization 
 augmentation part       22.0000000 magnetization 

 Free energy of the ion-electron system (eV)
  ---------------------------------------------------
  alpha Z        PSCENC =         0.62641250
  Ewald energy   TEWEN  =       923.60984309
  -Hartree energ DENC   =     -1350.28932040
  -exchange      EXHF   =         0.00000000
  -V(xc)+E(xc)   XCENC  =        67.27122230
  PAW double counting   =       156.01372664     -160.66969168
  entropy T*S    EENTRO =        -0.00284692
  eigenvalues    EBANDS =      -195.16283049
  atomic energy  EATOM  =       663.51739852
  Solvation  Ediel_sol  =         0.00000000
  ---------------------------------------------------
  free energy    TOTEN  =       104.91391357 eV

  energy without entropy =      104.91676049  energy(sigma->0) =      104.91533703


--------------------------------------------------------------------------------------------------------




--------------------------------------- Iteration      1(   2)  ---------------------------------------


     EDDAV:  cpu time      0.4864: real time      0.4892
       DOS:  cpu time      0.0002: real time      0.0002
    --------------------------------------------
      LOOP:  cpu time      0.4866: real time      0.4893

 eigenvalue-minimisations  :    80
 total energy-change (2. order) :-0.1258044E+03  (-0.1231336E+03)
 number of electron      22.0000000 magnetization 
 augmentation part       22.0000000 magnetization 

 Free energy of the ion-electron system (eV)
  ---------------------------------------------------
  alpha Z        PSCENC =         0.62641250
  Ewald energy   TEWEN  =       923.60984309
  -Hartree energ DENC   =     -1350.28932040
  -exchange      EXHF   =         0.00000000
  -V(xc)+E(xc)   XCENC  =        67.27122230
  PAW double counting   =       156.01372664     -160.66969168
  entropy T*S    EENTRO =        -0.00000000
  eigenvalues    EBANDS =      -320.97009948
  atomic energy  EATOM  =       663.51739852
  Solvation  Ediel_sol  =         0.00000000
  ---------------------------------------------------
  free energy    TOTEN  =       -20.89050850 eV

  energy without entropy =      -20.89050850  energy(sigma->0) =      -20.89050850


--------------------------------------------------------------------------------------------------------




--------------------------------------- Iteration      1(   3)  ---------------------------------------


     EDDAV:  cpu time      0.4466: real time      0.4491
       DOS:  cpu time      0.0001: real time      0.0001
    --------------------------------------------
      LOOP:  cpu time      0.4467: real time      0.4492

 eigenvalue-minimisations  :    72
 total energy-change (2. order) :-0.3936501E+02  (-0.3929518E+02)
 number of electron      22.0000000 magnetization 
 augmentation part       22.0000000 magnetization 

 Free energy of the ion-electron system (eV)
  ---------------------------------------------------
  alpha Z        PSCENC =         0.62641250
  Ewald energy   TEWEN  =       923.60984309
  -Hartree energ DENC   =     -1350.28932040
  -exchange      EXHF   =         0.00000000
  -V(xc)+E(xc)   XCENC  =        67.27122230
  PAW double counting   =       156.01372664     -160.66969168
  entropy T*S    EENTRO =        -0.00000000
  eigenvalues    EBANDS =      -360.33510753
  atomic energy  EATOM  =       663.51739852
  Solvation  Ediel_sol  =         0.00000000
  ---------------------------------------------------
  free energy    TOTEN  =       -60.25551655 eV

  energy without entropy =      -60.25551655  energy(sigma->0) =      -60.25551655


--------------------------------------------------------------------------------------------------------




--------------------------------------- Iteration      1(   4)  ---------------------------------------


     EDDAV:  cpu time      0.4461: real time      0.4486
       DOS:  cpu time      0.0001: real time      0.0001
    --------------------------------------------
      LOOP:  cpu time      0.4462: real time      0.4488

 eigenvalue-minimisations  :    72
 total energy-change (2. order) :-0.2067174E+01  (-0.2065233E+01)
 number of electron      22.0000000 magnetization 
 augmentation part       22.0000000 magnetization 

 Free energy of the ion-electron system (eV)
  ---------------------------------------------------
  alpha Z        PSCENC =         0.62641250
  Ewald energy   TEWEN  =       923.60984309
  -Hartree energ DENC   =     -1350.28932040
  -exchange      EXHF   =         0.00000000
  -V(xc)+E(xc)   XCENC  =        67.27122230
  PAW double counting   =       156.01372664     -160.66969168
  entropy T*S    EENTRO =        -0.00000000
  eigenvalues    EBANDS =      -362.40228116
  atomic energy  EATOM  =       663.51739852
  Solvation  Ediel_sol  =         0.00000000
  ---------------------------------------------------
  free energy    TOTEN  =       -62.32269018 eV

  energy without entropy =      -62.32269018  energy(sigma->0) =      -62.32269018


--------------------------------------------------------------------------------------------------------




--------------------------------------- Iteration      1(   5)  ---------------------------------------


     EDDAV:  cpu time      0.4088: real time      0.4112
       DOS:  cpu time      0.0001: real time      0.0001
    CHARGE:  cpu time      0.1971: real time      0.1979
    MIXING:  cpu time      0.0144: real time      0.0145
    --------------------------------------------
      LOOP:  cpu time      0.6205: real time      0.6238

 eigenvalue-minimisations  :    64
 total energy-change (2. order) :-0.1752816E-01  (-0.1752314E-01)
 number of electron      22.0000000 magnetization 
 augmentation part        0.5664271 magnetization 

 Broyden mixing:
  rms(total) = 0.11664E+01    rms(broyden)= 0.11662E+01
  rms(prec ) = 0.14012E+01
  weight for this iteration     100.00

 Free energy of the ion-electron system (eV)
  ---------------------------------------------------
  alpha Z        PSCENC =         0.62641250
  Ewald energy   TEWEN  =       923.60984309
  -Hartree energ DENC   =     -1350.28932040
  -exchange      EXHF   =         0.00000000
  -V(xc)+E(xc)   XCENC  =        67.27122230
  PAW double counting   =       156.01372664     -160.66969168
  entropy T*S    EENTRO =        -0.00000000
  eigenvalues    EBANDS =      -362.41980932
  atomic energy  EATOM  =       663.51739852
  Solvation  Ediel_sol  =         0.00000000
  ---------------------------------------------------
  free energy    TOTEN  =       -62.34021834 eV

  energy without entropy =      -62.34021834  energy(sigma->0) =      -62.34021834


--------------------------------------------------------------------------------------------------------




--------------------------------------- Iteration      1(   6)  ---------------------------------------


    POTLOK:  cpu time      0.3110: real time      0.3128
    SETDIJ:  cpu time      0.1916: real time      0.1924
     EDDAV:  cpu time      0.4084: real time      0.4108
       DOS:  cpu time      0.0001: real time      0.0001
    CHARGE:  cpu time      0.1989: real time      0.1996
    MIXING:  cpu time      0.0078: real time      0.0078
    --------------------------------------------
      LOOP:  cpu time      1.1178: real time      1.1235

 eigenvalue-minimisations  :    64
 total energy-change (2. order) : 0.4998523E+01  (-0.7609040E+00)
 number of electron      22.0000000 magnetization 
 augmentation part        0.5196574 magnetization 

 Broyden mixing:
  rms(total) = 0.56510E+00    rms(broyden)= 0.56507E+00
  rms(prec ) = 0.67075E+00
  weight for this iteration     100.00

 eigenvalues of (default mixing * dielectric matrix)
  average eigenvalue GAMMA=   1.6038
  1.6038

 Free energy of the ion-electron system (eV)
  ---------------------------------------------------
  alpha Z        PSCENC =         0.62641250
  Ewald energy   TEWEN  =       923.60984309
  -Hartree energ DENC   =     -1396.37474396
  -exchange      EXHF   =         0.00000000
  -V(xc)+E(xc)   XCENC  =        69.59785635
  PAW double counting   =       226.66478758     -231.85217416
  entropy T*S    EENTRO =        -0.00000000
  eigenvalues    EBANDS =      -313.13107534
  atomic energy  EATOM  =       663.51739852
  Solvation  Ediel_sol  =         0.00000000
  ---------------------------------------------------
  free energy    TOTEN  =       -57.34169541 eV

  energy without entropy =      -57.34169541  energy(sigma->0) =      -57.34169541


--------------------------------------------------------------------------------------------------------




--------------------------------------- Iteration      1(   7)  ---------------------------------------


    POTLOK:  cpu time      0.3115: real time      0.3131
    SETDIJ:  cpu time      0.1938: real time      0.1947
     EDDAV:  cpu time      0.4107: real time      0.4129
       DOS:  cpu time      0.0001: real time      0.0001
    CHARGE:  cpu time      0.2009: real time      0.2016
    MIXING:  cpu time      0.0088: real time      0.0088
    --------------------------------------------
      LOOP:  cpu time      1.1257: real time      1.1313

 eigenvalue-minimisations  :    64
 total energy-change (2. order) : 0.1187247E+01  (-0.4169284E+00)
 number of electron      22.0000000 magnetization 
 augmentation part        0.4889858 magnetization 

 Broyden mixing:
  rms(total) = 0.22554E+00    rms(broyden)= 0.22548E+00
  rms(prec ) = 0.25979E+00
  weight for this iteration     100.00

 eigenvalues of (default mixing * dielectric matrix)
  average eigenvalue GAMMA=   1.6486
  1.6486  1.6486

 Free energy of the ion-electron system (eV)
  ---------------------------------------------------
  alpha Z        PSCENC =         0.62641250
  Ewald energy   TEWEN  =       923.60984309
  -Hartree energ DENC   =     -1433.55302691
  -exchange      EXHF   =         0.00000000
  -V(xc)+E(xc)   XCENC  =        71.68340899
  PAW double counting   =       285.24884764     -290.68305954
  entropy T*S    EENTRO =        -0.00000000
  eigenvalues    EBANDS =      -276.60427280
  atomic energy  EATOM  =       663.51739852
  Solvation  Ediel_sol  =         0.00000000
  ---------------------------------------------------
  free energy    TOTEN  =       -56.15444850 eV

  energy without entropy =      -56.15444850  energy(sigma->0) =      -56.15444850


--------------------------------------------------------------------------------------------------------




--------------------------------------- Iteration      1(   8)  ---------------------------------------


    POTLOK:  cpu time      0.3160: real time      0.3176
    SETDIJ:  cpu time      0.1903: real time      0.1911
     EDDAV:  cpu time      0.4479: real time      0.4504
       DOS:  cpu time      0.0001: real time      0.0001
    CHARGE:  cpu time      0.1990: real time      0.1998
    MIXING:  cpu time      0.0084: real time      0.0084
    --------------------------------------------
      LOOP:  cpu time      1.1617: real time      1.1675

 eigenvalue-minimisations  :    72
 total energy-change (2. order) : 0.1553414E+00  (-0.2155607E-01)
 number of electron      22.0000000 magnetization 
 augmentation part        0.4887032 magnetization 

 Broyden mixing:
  rms(total) = 0.80709E-01    rms(broyden)= 0.80703E-01
  rms(prec ) = 0.10605E+00
  weight for this iteration     100.00

 eigenvalues of (default mixing * dielectric matrix)
  average eigenvalue GAMMA=   1.6249
  2.4055  0.8788  1.5905

 Free energy of the ion-electron system (eV)
  ---------------------------------------------------
  alpha Z        PSCENC =         0.62641250
  Ewald energy   TEWEN  =       923.60984309
  -Hartree energ DENC   =     -1439.70079510
  -exchange      EXHF   =         0.00000000
  -V(xc)+E(xc)   XCENC  =        72.15054766
  PAW double counting   =       291.18511067     -296.52800711
  entropy T*S    EENTRO =        -0.00000000
  eigenvalues    EBANDS =      -270.85961730
  atomic energy  EATOM  =       663.51739852
  Solvation  Ediel_sol  =         0.00000000
  ---------------------------------------------------
  free energy    TOTEN  =       -55.99910708 eV

  energy without entropy =      -55.99910708  energy(sigma->0) =      -55.99910708


--------------------------------------------------------------------------------------------------------




--------------------------------------- Iteration      1(   9)  ---------------------------------------


    POTLOK:  cpu time      0.3158: real time      0.3174
    SETDIJ:  cpu time      0.1932: real time      0.1940
     EDDAV:  cpu time      0.3649: real time      0.3668
       DOS:  cpu time      0.0001: real time      0.0001
    CHARGE:  cpu time      0.1997: real time      0.2005
    MIXING:  cpu time      0.0085: real time      0.0085
    --------------------------------------------
      LOOP:  cpu time      1.0821: real time      1.0874

 eigenvalue-minimisations  :    56
 total energy-change (2. order) : 0.4512964E-01  (-0.7035813E-02)
 number of electron      22.0000000 magnetization 
 augmentation part        0.4869518 magnetization 

 Broyden mixing:
  rms(total) = 0.27504E-01    rms(broyden)= 0.27498E-01
  rms(prec ) = 0.50338E-01
  weight for this iteration     100.00

 eigenvalues of (default mixing * dielectric matrix)
  average eigenvalue GAMMA=   1.4299
  2.2337  1.5915  0.9471  0.9471

 Free energy of the ion-electron system (eV)
  ---------------------------------------------------
  alpha Z        PSCENC =         0.62641250
  Ewald energy   TEWEN  =       923.60984309
  -Hartree energ DENC   =     -1446.23281692
  -exchange      EXHF   =         0.00000000
  -V(xc)+E(xc)   XCENC  =        72.52761077
  PAW double counting   =       296.10388210     -301.40623288
  entropy T*S    EENTRO =        -0.00000000
  eigenvalues    EBANDS =      -264.70007463
  atomic energy  EATOM  =       663.51739852
  Solvation  Ediel_sol  =         0.00000000
  ---------------------------------------------------
  free energy    TOTEN  =       -55.95397744 eV

  energy without entropy =      -55.95397744  energy(sigma->0) =      -55.95397744


--------------------------------------------------------------------------------------------------------




--------------------------------------- Iteration      1(  10)  ---------------------------------------


    POTLOK:  cpu time      0.3180: real time      0.3196
    SETDIJ:  cpu time      0.1929: real time      0.1938
     EDDAV:  cpu time      0.4064: real time      0.4087
       DOS:  cpu time      0.0002: real time      0.0002
    CHARGE:  cpu time      0.1988: real time      0.1996
    MIXING:  cpu time      0.0090: real time      0.0090
    --------------------------------------------
      LOOP:  cpu time      1.1252: real time      1.1308

 eigenvalue-minimisations  :    64
 total energy-change (2. order) : 0.4694816E-02  (-0.1933491E-02)
 number of electron      22.0000000 magnetization 
 augmentation part        0.4855732 magnetization 

 Broyden mixing:
  rms(total) = 0.18253E-01    rms(broyden)= 0.18250E-01
  rms(prec ) = 0.36638E-01
  weight for this iteration     100.00

 eigenvalues of (default mixing * dielectric matrix)
  average eigenvalue GAMMA=   1.6756
  2.7491  2.3160  1.0092  1.0092  1.2944

 Free energy of the ion-electron system (eV)
  ---------------------------------------------------
  alpha Z        PSCENC =         0.62641250
  Ewald energy   TEWEN  =       923.60984309
  -Hartree energ DENC   =     -1448.62594666
  -exchange      EXHF   =         0.00000000
  -V(xc)+E(xc)   XCENC  =        72.56183059
  PAW double counting   =       295.75770200     -301.07205006
  entropy T*S    EENTRO =        -0.00000000
  eigenvalues    EBANDS =      -262.32447262
  atomic energy  EATOM  =       663.51739852
  Solvation  Ediel_sol  =         0.00000000
  ---------------------------------------------------
  free energy    TOTEN  =       -55.94928263 eV

  energy without entropy =      -55.94928263  energy(sigma->0) =      -55.94928263


--------------------------------------------------------------------------------------------------------




--------------------------------------- Iteration      1(  11)  ---------------------------------------


    POTLOK:  cpu time      0.3178: real time      0.3195
    SETDIJ:  cpu time      0.1922: real time      0.1931
     EDDAV:  cpu time      0.3681: real time      0.3702
       DOS:  cpu time      0.0001: real time      0.0001
    CHARGE:  cpu time      0.1927: real time      0.1935
    MIXING:  cpu time      0.0158: real time      0.0158
    --------------------------------------------
      LOOP:  cpu time      1.0868: real time      1.0922

 eigenvalue-minimisations  :    56
 total energy-change (2. order) : 0.1302099E-01  (-0.9538895E-03)
 number of electron      22.0000000 magnetization 
 augmentation part        0.4851805 magnetization 

 Broyden mixing:
  rms(total) = 0.78417E-02    rms(broyden)= 0.78414E-02
  rms(prec ) = 0.17672E-01
  weight for this iteration     100.00

 eigenvalues of (default mixing * dielectric matrix)
  average eigenvalue GAMMA=   1.7034
  3.1299  2.5128  1.3935  1.0634  1.0604  1.0604

 Free energy of the ion-electron system (eV)
  ---------------------------------------------------
  alpha Z        PSCENC =         0.62641250
  Ewald energy   TEWEN  =       923.60984309
  -Hartree energ DENC   =     -1453.43938396
  -exchange      EXHF   =         0.00000000
  -V(xc)+E(xc)   XCENC  =        72.69128031
  PAW double counting   =       294.45885503     -299.75665474
  entropy T*S    EENTRO =        -0.00000000
  eigenvalues    EBANDS =      -257.64401238
  atomic energy  EATOM  =       663.51739852
  Solvation  Ediel_sol  =         0.00000000
  ---------------------------------------------------
  free energy    TOTEN  =       -55.93626163 eV

  energy without entropy =      -55.93626163  energy(sigma->0) =      -55.93626163


--------------------------------------------------------------------------------------------------------




--------------------------------------- Iteration      1(  12)  ---------------------------------------


    POTLOK:  cpu time      0.3157: real time      0.3174
    SETDIJ:  cpu time      0.1919: real time      0.1927
     EDDAV:  cpu time      0.4052: real time      0.4076
       DOS:  cpu time      0.0001: real time      0.0001
    CHARGE:  cpu time      0.1991: real time      0.1999
    MIXING:  cpu time      0.0084: real time      0.0084
    --------------------------------------------
      LOOP:  cpu time      1.1204: real time      1.1260

 eigenvalue-minimisations  :    64
 total energy-change (2. order) :-0.2383304E-02  (-0.1417205E-03)
 number of electron      22.0000000 magnetization 
 augmentation part        0.4849151 magnetization 

 Broyden mixing:
  rms(total) = 0.57349E-02    rms(broyden)= 0.57348E-02
  rms(prec ) = 0.11540E-01
  weight for this iteration     100.00

 eigenvalues of (default mixing * dielectric matrix)
  average eigenvalue GAMMA=   1.8839
  4.2688  2.4829  2.0847  1.4065  1.0041  1.0041  0.9364

 Free energy of the ion-electron system (eV)
  ---------------------------------------------------
  alpha Z        PSCENC =         0.62641250
  Ewald energy   TEWEN  =       923.60984309
  -Hartree energ DENC   =     -1455.14385513
  -exchange      EXHF   =         0.00000000
  -V(xc)+E(xc)   XCENC  =        72.71506338
  PAW double counting   =       293.90895182     -299.20794882
  entropy T*S    EENTRO =        -0.00000000
  eigenvalues    EBANDS =      -255.96451031
  atomic energy  EATOM  =       663.51739852
  Solvation  Ediel_sol  =         0.00000000
  ---------------------------------------------------
  free energy    TOTEN  =       -55.93864494 eV

  energy without entropy =      -55.93864494  energy(sigma->0) =      -55.93864494


--------------------------------------------------------------------------------------------------------




--------------------------------------- Iteration      1(  13)  ---------------------------------------


    POTLOK:  cpu time      0.3122: real time      0.3138
    SETDIJ:  cpu time      0.1925: real time      0.1933
     EDDAV:  cpu time      0.4055: real time      0.4077
       DOS:  cpu time      0.0001: real time      0.0001
    CHARGE:  cpu time      0.2040: real time      0.2058
    MIXING:  cpu time      0.0101: real time      0.0101
    --------------------------------------------
      LOOP:  cpu time      1.1243: real time      1.1309

 eigenvalue-minimisations  :    64
 total energy-change (2. order) :-0.8265273E-02  (-0.1313100E-03)
 number of electron      22.0000000 magnetization 
 augmentation part        0.4848651 magnetization 

 Broyden mixing:
  rms(total) = 0.30587E-02    rms(broyden)= 0.30586E-02
  rms(prec ) = 0.66407E-02
  weight for this iteration     100.00

 eigenvalues of (default mixing * dielectric matrix)
  average eigenvalue GAMMA=   1.9946
  5.1342  2.7273  2.1667  1.4834  1.4834  0.9512  1.0052  1.0052

 Free energy of the ion-electron system (eV)
  ---------------------------------------------------
  alpha Z        PSCENC =         0.62641250
  Ewald energy   TEWEN  =       923.60984309
  -Hartree energ DENC   =     -1455.98191417
  -exchange      EXHF   =         0.00000000
  -V(xc)+E(xc)   XCENC  =        72.72062639
  PAW double counting   =       293.87733706     -299.17639357
  entropy T*S    EENTRO =        -0.00000000
  eigenvalues    EBANDS =      -255.14022003
  atomic energy  EATOM  =       663.51739852
  Solvation  Ediel_sol  =         0.00000000
  ---------------------------------------------------
  free energy    TOTEN  =       -55.94691021 eV

  energy without entropy =      -55.94691021  energy(sigma->0) =      -55.94691021


--------------------------------------------------------------------------------------------------------




--------------------------------------- Iteration      1(  14)  ---------------------------------------


    POTLOK:  cpu time      0.3180: real time      0.3197
    SETDIJ:  cpu time      0.1932: real time      0.1941
     EDDAV:  cpu time      0.4228: real time      0.4252
       DOS:  cpu time      0.0001: real time      0.0001
    CHARGE:  cpu time      0.2015: real time      0.2023
    MIXING:  cpu time      0.0088: real time      0.0088
    --------------------------------------------
      LOOP:  cpu time      1.1445: real time      1.1503

 eigenvalue-minimisations  :    64
 total energy-change (2. order) :-0.7073108E-02  (-0.1094600E-03)
 number of electron      22.0000000 magnetization 
 augmentation part        0.4847294 magnetization 

 Broyden mixing:
  rms(total) = 0.18643E-02    rms(broyden)= 0.18642E-02
  rms(prec ) = 0.37144E-02
  weight for this iteration     100.00

 eigenvalues of (default mixing * dielectric matrix)
  average eigenvalue GAMMA=   2.1577
  6.1763  3.4756  2.3420  1.9477  1.3033  1.3033  0.9765  0.9765  0.9181

 Free energy of the ion-electron system (eV)
  ---------------------------------------------------
  alpha Z        PSCENC =         0.62641250
  Ewald energy   TEWEN  =       923.60984309
  -Hartree energ DENC   =     -1456.39296175
  -exchange      EXHF   =         0.00000000
  -V(xc)+E(xc)   XCENC  =        72.71362576
  PAW double counting   =       293.98253865     -299.28237210
  entropy T*S    EENTRO =        -0.00000000
  eigenvalues    EBANDS =      -254.72846799
  atomic energy  EATOM  =       663.51739852
  Solvation  Ediel_sol  =         0.00000000
  ---------------------------------------------------
  free energy    TOTEN  =       -55.95398332 eV

  energy without entropy =      -55.95398332  energy(sigma->0) =      -55.95398332


--------------------------------------------------------------------------------------------------------




--------------------------------------- Iteration      1(  15)  ---------------------------------------


    POTLOK:  cpu time      0.3130: real time      0.3147
    SETDIJ:  cpu time      0.1910: real time      0.1918
     EDDAV:  cpu time      0.4579: real time      0.4604
       DOS:  cpu time      0.0001: real time      0.0001
    CHARGE:  cpu time      0.2005: real time      0.2013
    MIXING:  cpu time      0.0090: real time      0.0090
    --------------------------------------------
      LOOP:  cpu time      1.1716: real time      1.1774

 eigenvalue-minimisations  :    72
 total energy-change (2. order) :-0.4008683E-02  (-0.6837200E-04)
 number of electron      22.0000000 magnetization 
 augmentation part        0.4847798 magnetization 

 Broyden mixing:
  rms(total) = 0.13543E-02    rms(broyden)= 0.13542E-02
  rms(prec ) = 0.21352E-02
  weight for this iteration     100.00

 eigenvalues of (default mixing * dielectric matrix)
  average eigenvalue GAMMA=   2.2033
  6.6511  3.9496  2.4289  2.0172  1.5468  1.3949  0.9955  0.9955  1.1465  0.9071

 Free energy of the ion-electron system (eV)
  ---------------------------------------------------
  alpha Z        PSCENC =         0.62641250
  Ewald energy   TEWEN  =       923.60984309
  -Hartree energ DENC   =     -1456.32254932
  -exchange      EXHF   =         0.00000000
  -V(xc)+E(xc)   XCENC  =        72.70169146
  PAW double counting   =       293.95647491     -299.25464793
  entropy T*S    EENTRO =        -0.00000000
  eigenvalues    EBANDS =      -254.79261523
  atomic energy  EATOM  =       663.51739852
  Solvation  Ediel_sol  =         0.00000000
  ---------------------------------------------------
  free energy    TOTEN  =       -55.95799200 eV

  energy without entropy =      -55.95799200  energy(sigma->0) =      -55.95799200


--------------------------------------------------------------------------------------------------------




--------------------------------------- Iteration      1(  16)  ---------------------------------------


    POTLOK:  cpu time      0.3125: real time      0.3142
    SETDIJ:  cpu time      0.1982: real time      0.1990
     EDDAV:  cpu time      0.4613: real time      0.4639
       DOS:  cpu time      0.0001: real time      0.0001
    CHARGE:  cpu time      0.1990: real time      0.1998
    MIXING:  cpu time      0.0129: real time      0.0129
    --------------------------------------------
      LOOP:  cpu time      1.1839: real time      1.1899

 eigenvalue-minimisations  :    72
 total energy-change (2. order) :-0.1291511E-02  (-0.1211306E-04)
 number of electron      22.0000000 magnetization 
 augmentation part        0.4846986 magnetization 

 Broyden mixing:
  rms(total) = 0.57163E-03    rms(broyden)= 0.57149E-03
  rms(prec ) = 0.10267E-02
  weight for this iteration     100.00

 eigenvalues of (default mixing * dielectric matrix)
  average eigenvalue GAMMA=   2.2598
  7.6475  4.3870  2.5156  2.3081  1.7109  1.3609  0.9996  0.9996  1.0638  0.9322
  0.9322

 Free energy of the ion-electron system (eV)
  ---------------------------------------------------
  alpha Z        PSCENC =         0.62641250
  Ewald energy   TEWEN  =       923.60984309
  -Hartree energ DENC   =     -1456.41651173
  -exchange      EXHF   =         0.00000000
  -V(xc)+E(xc)   XCENC  =        72.70240799
  PAW double counting   =       294.00348384     -299.30202568
  entropy T*S    EENTRO =        -0.00000000
  eigenvalues    EBANDS =      -254.70029205
  atomic energy  EATOM  =       663.51739852
  Solvation  Ediel_sol  =         0.00000000
  ---------------------------------------------------
  free energy    TOTEN  =       -55.95928351 eV

  energy without entropy =      -55.95928351  energy(sigma->0) =      -55.95928351


--------------------------------------------------------------------------------------------------------




--------------------------------------- Iteration      1(  17)  ---------------------------------------


    POTLOK:  cpu time      0.3105: real time      0.3122
    SETDIJ:  cpu time      0.1913: real time      0.1921
     EDDAV:  cpu time      0.4601: real time      0.4626
       DOS:  cpu time      0.0001: real time      0.0001
    CHARGE:  cpu time      0.1964: real time      0.1972
    MIXING:  cpu time      0.0124: real time      0.0124
    --------------------------------------------
      LOOP:  cpu time      1.1709: real time      1.1767

 eigenvalue-minimisations  :    72
 total energy-change (2. order) :-0.4897955E-03  (-0.2658787E-05)
 number of electron      22.0000000 magnetization 
 augmentation part        0.4846938 magnetization 

 Broyden mixing:
  rms(total) = 0.38749E-03    rms(broyden)= 0.38744E-03
  rms(prec ) = 0.68919E-03
  weight for this iteration     100.00

 eigenvalues of (default mixing * dielectric matrix)
  average eigenvalue GAMMA=   2.2604
  7.8733  4.6069  2.4614  2.4104  1.6878  1.6878  1.2614  1.2614  0.9960  0.9960
  0.9895  0.8935

 Free energy of the ion-electron system (eV)
  ---------------------------------------------------
  alpha Z        PSCENC =         0.62641250
  Ewald energy   TEWEN  =       923.60984309
  -Hartree energ DENC   =     -1456.41540899
  -exchange      EXHF   =         0.00000000
  -V(xc)+E(xc)   XCENC  =        72.70095515
  PAW double counting   =       293.97890837     -299.27746571
  entropy T*S    EENTRO =        -0.00000000
  eigenvalues    EBANDS =      -254.70041624
  atomic energy  EATOM  =       663.51739852
  Solvation  Ediel_sol  =         0.00000000
  ---------------------------------------------------
  free energy    TOTEN  =       -55.95977331 eV

  energy without entropy =      -55.95977331  energy(sigma->0) =      -55.95977331


--------------------------------------------------------------------------------------------------------




--------------------------------------- Iteration      1(  18)  ---------------------------------------


    POTLOK:  cpu time      0.3091: real time      0.3107
    SETDIJ:  cpu time      0.1907: real time      0.1916
     EDDAV:  cpu time      0.4568: real time      0.4593
       DOS:  cpu time      0.0001: real time      0.0001
    CHARGE:  cpu time      0.1962: real time      0.1970
    MIXING:  cpu time      0.0145: real time      0.0145
    --------------------------------------------
      LOOP:  cpu time      1.1674: real time      1.1732

 eigenvalue-minimisations  :    72
 total energy-change (2. order) :-0.3114813E-03  (-0.1484040E-05)
 number of electron      22.0000000 magnetization 
 augmentation part        0.4846864 magnetization 

 Broyden mixing:
  rms(total) = 0.23784E-03    rms(broyden)= 0.23778E-03
  rms(prec ) = 0.40525E-03
  weight for this iteration     100.00

 eigenvalues of (default mixing * dielectric matrix)
  average eigenvalue GAMMA=   2.2937
  8.4518  5.0519  3.0827  2.4338  2.0156  1.3836  1.3836  1.0853  1.0853  0.8968
  1.0124  0.9679  0.9679

 Free energy of the ion-electron system (eV)
  ---------------------------------------------------
  alpha Z        PSCENC =         0.62641250
  Ewald energy   TEWEN  =       923.60984309
  -Hartree energ DENC   =     -1456.42960344
  -exchange      EXHF   =         0.00000000
  -V(xc)+E(xc)   XCENC  =        72.70090956
  PAW double counting   =       293.96849462     -299.26712879
  entropy T*S    EENTRO =        -0.00000000
  eigenvalues    EBANDS =      -254.68641085
  atomic energy  EATOM  =       663.51739852
  Solvation  Ediel_sol  =         0.00000000
  ---------------------------------------------------
  free energy    TOTEN  =       -55.96008479 eV

  energy without entropy =      -55.96008479  energy(sigma->0) =      -55.96008479


--------------------------------------------------------------------------------------------------------




--------------------------------------- Iteration      1(  19)  ---------------------------------------


    POTLOK:  cpu time      0.3078: real time      0.3095
    SETDIJ:  cpu time      0.1913: real time      0.1921
     EDDAV:  cpu time      0.4185: real time      0.4208
       DOS:  cpu time      0.0001: real time      0.0001
    CHARGE:  cpu time      0.1969: real time      0.1977
    MIXING:  cpu time      0.0128: real time      0.0129
    --------------------------------------------
      LOOP:  cpu time      1.1275: real time      1.1331

 eigenvalue-minimisations  :    64
 total energy-change (2. order) :-0.1098632E-03  (-0.4752956E-06)
 number of electron      22.0000000 magnetization 
 augmentation part        0.4846831 magnetization 

 Broyden mixing:
  rms(total) = 0.17880E-03    rms(broyden)= 0.17875E-03
  rms(prec ) = 0.27935E-03
  weight for this iteration     100.00

 eigenvalues of (default mixing * dielectric matrix)
  average eigenvalue GAMMA=   2.3045
  8.5651  5.2886  3.3281  2.4745  2.0833  1.8246  1.2000  1.2000  1.3688  1.0002
  1.0002  0.9099  1.0097  1.0097

 Free energy of the ion-electron system (eV)
  ---------------------------------------------------
  alpha Z        PSCENC =         0.62641250
  Ewald energy   TEWEN  =       923.60984309
  -Hartree energ DENC   =     -1456.43283888
  -exchange      EXHF   =         0.00000000
  -V(xc)+E(xc)   XCENC  =        72.70085817
  PAW double counting   =       293.96293642     -299.26159201
  entropy T*S    EENTRO =        -0.00000000
  eigenvalues    EBANDS =      -254.68321246
  atomic energy  EATOM  =       663.51739852
  Solvation  Ediel_sol  =         0.00000000
  ---------------------------------------------------
  free energy    TOTEN  =       -55.96019465 eV

  energy without entropy =      -55.96019465  energy(sigma->0) =      -55.96019465


--------------------------------------------------------------------------------------------------------




--------------------------------------- Iteration      1(  20)  ---------------------------------------


    POTLOK:  cpu time      0.3098: real time      0.3114
    SETDIJ:  cpu time      0.1901: real time      0.1908
     EDDAV:  cpu time      0.3757: real time      0.3777
       DOS:  cpu time      0.0002: real time      0.0002
    CHARGE:  cpu time      0.1967: real time      0.1975
    MIXING:  cpu time      0.0136: real time      0.0137
    --------------------------------------------
      LOOP:  cpu time      1.0861: real time      1.0914

 eigenvalue-minimisations  :    56
 total energy-change (2. order) :-0.6969594E-04  (-0.2092478E-06)
 number of electron      22.0000000 magnetization 
 augmentation part        0.4846863 magnetization 

 Broyden mixing:
  rms(total) = 0.66059E-04    rms(broyden)= 0.65968E-04
  rms(prec ) = 0.12530E-03
  weight for this iteration     100.00

 eigenvalues of (default mixing * dielectric matrix)
  average eigenvalue GAMMA=   2.3354
  8.8169  5.6278  3.8196  2.6423  2.3838  1.8919  1.1740  1.1740  1.3442  1.2646
  0.9888  0.9888  1.0476  0.8944  0.9726

 Free energy of the ion-electron system (eV)
  ---------------------------------------------------
  alpha Z        PSCENC =         0.62641250
  Ewald energy   TEWEN  =       923.60984309
  -Hartree energ DENC   =     -1456.43529158
  -exchange      EXHF   =         0.00000000
  -V(xc)+E(xc)   XCENC  =        72.70075890
  PAW double counting   =       293.96212858     -299.26075474
  entropy T*S    EENTRO =        -0.00000000
  eigenvalues    EBANDS =      -254.68075963
  atomic energy  EATOM  =       663.51739852
  Solvation  Ediel_sol  =         0.00000000
  ---------------------------------------------------
  free energy    TOTEN  =       -55.96026435 eV

  energy without entropy =      -55.96026435  energy(sigma->0) =      -55.96026435


--------------------------------------------------------------------------------------------------------




--------------------------------------- Iteration      1(  21)  ---------------------------------------


    POTLOK:  cpu time      0.3149: real time      0.3166
    SETDIJ:  cpu time      0.1914: real time      0.1922
     EDDAV:  cpu time      0.4153: real time      0.4175
       DOS:  cpu time      0.0002: real time      0.0002
    CHARGE:  cpu time      0.1970: real time      0.1978
    MIXING:  cpu time      0.0152: real time      0.0153
    --------------------------------------------
      LOOP:  cpu time      1.1339: real time      1.1394

 eigenvalue-minimisations  :    64
 total energy-change (2. order) :-0.2497373E-04  (-0.5204107E-07)
 number of electron      22.0000000 magnetization 
 augmentation part        0.4846884 magnetization 

 Broyden mixing:
  rms(total) = 0.82567E-04    rms(broyden)= 0.82499E-04
  rms(prec ) = 0.11130E-03
  weight for this iteration     100.00

 eigenvalues of (default mixing * dielectric matrix)
  average eigenvalue GAMMA=   2.3611
  8.8844  5.8785  4.1183  2.7614  2.4943  1.8900  1.8900  1.2790  1.2790  1.3647
  0.9989  0.9989  1.0308  1.0308  0.9110  0.9685

 Free energy of the ion-electron system (eV)
  ---------------------------------------------------
  alpha Z        PSCENC =         0.62641250
  Ewald energy   TEWEN  =       923.60984309
  -Hartree energ DENC   =     -1456.43657765
  -exchange      EXHF   =         0.00000000
  -V(xc)+E(xc)   XCENC  =        72.70070968
  PAW double counting   =       293.96311120     -299.26171980
  entropy T*S    EENTRO =        -0.00000000
  eigenvalues    EBANDS =      -254.67946686
  atomic energy  EATOM  =       663.51739852
  Solvation  Ediel_sol  =         0.00000000
  ---------------------------------------------------
  free energy    TOTEN  =       -55.96028932 eV

  energy without entropy =      -55.96028932  energy(sigma->0) =      -55.96028932


--------------------------------------------------------------------------------------------------------




--------------------------------------- Iteration      1(  22)  ---------------------------------------


    POTLOK:  cpu time      0.3231: real time      0.3248
    SETDIJ:  cpu time      0.1906: real time      0.1914
     EDDAV:  cpu time      0.4190: real time      0.4213
       DOS:  cpu time      0.0002: real time      0.0002
    CHARGE:  cpu time      0.2000: real time      0.2008
    MIXING:  cpu time      0.0113: real time      0.0114
    --------------------------------------------
      LOOP:  cpu time      1.1442: real time      1.1497

 eigenvalue-minimisations  :    64
 total energy-change (2. order) :-0.1255934E-04  (-0.2212867E-07)
 number of electron      22.0000000 magnetization 
 augmentation part        0.4846878 magnetization 

 Broyden mixing:
  rms(total) = 0.27175E-04    rms(broyden)= 0.26987E-04
  rms(prec ) = 0.40718E-04
  weight for this iteration     100.00

 eigenvalues of (default mixing * dielectric matrix)
  average eigenvalue GAMMA=   2.4049
  9.0846  6.2449  4.6398  3.2086  2.5113  2.2545  1.8508  1.2703  1.2703  1.3888
  0.9923  0.9923  1.1473  1.1473  0.9150  0.9451  1.0200

 Free energy of the ion-electron system (eV)
  ---------------------------------------------------
  alpha Z        PSCENC =         0.62641250
  Ewald energy   TEWEN  =       923.60984309
  -Hartree energ DENC   =     -1456.43872547
  -exchange      EXHF   =         0.00000000
  -V(xc)+E(xc)   XCENC  =        72.70073153
  PAW double counting   =       293.96505537     -299.26366596
  entropy T*S    EENTRO =        -0.00000000
  eigenvalues    EBANDS =      -254.67735146
  atomic energy  EATOM  =       663.51739852
  Solvation  Ediel_sol  =         0.00000000
  ---------------------------------------------------
  free energy    TOTEN  =       -55.96030188 eV

  energy without entropy =      -55.96030188  energy(sigma->0) =      -55.96030188


--------------------------------------------------------------------------------------------------------




--------------------------------------- Iteration      1(  23)  ---------------------------------------


    POTLOK:  cpu time      0.3193: real time      0.3211
    SETDIJ:  cpu time      0.1910: real time      0.1919
     EDDAV:  cpu time      0.4135: real time      0.4157
       DOS:  cpu time      0.0001: real time      0.0001
    CHARGE:  cpu time      0.1993: real time      0.2001
    MIXING:  cpu time      0.0110: real time      0.0111
    --------------------------------------------
      LOOP:  cpu time      1.1344: real time      1.1399

 eigenvalue-minimisations  :    64
 total energy-change (2. order) :-0.3834368E-05  (-0.9492402E-08)
 number of electron      22.0000000 magnetization 
 augmentation part        0.4846878 magnetization 

 Broyden mixing:
  rms(total) = 0.30055E-04    rms(broyden)= 0.29887E-04
  rms(prec ) = 0.38030E-04
  weight for this iteration     100.00

 eigenvalues of (default mixing * dielectric matrix)
  average eigenvalue GAMMA=   2.3842
  9.0895  6.4330  4.7924  3.2706  2.3868  2.3868  1.8732  1.7076  1.3070  1.3070
  1.3138  1.1682  0.9962  0.9962  1.0280  1.0280  0.9348  0.8959

 Free energy of the ion-electron system (eV)
  ---------------------------------------------------
  alpha Z        PSCENC =         0.62641250
  Ewald energy   TEWEN  =       923.60984309
  -Hartree energ DENC   =     -1456.43910908
  -exchange      EXHF   =         0.00000000
  -V(xc)+E(xc)   XCENC  =        72.70069951
  PAW double counting   =       293.96490348     -299.26352060
  entropy T*S    EENTRO =        -0.00000000
  eigenvalues    EBANDS =      -254.67693314
  atomic energy  EATOM  =       663.51739852
  Solvation  Ediel_sol  =         0.00000000
  ---------------------------------------------------
  free energy    TOTEN  =       -55.96030571 eV

  energy without entropy =      -55.96030571  energy(sigma->0) =      -55.96030571


--------------------------------------------------------------------------------------------------------




--------------------------------------- Iteration      1(  24)  ---------------------------------------


    POTLOK:  cpu time      0.3184: real time      0.3202
    SETDIJ:  cpu time      0.1903: real time      0.1911
     EDDAV:  cpu time      0.4181: real time      0.4203
       DOS:  cpu time      0.0001: real time      0.0001
    CHARGE:  cpu time      0.2010: real time      0.2018
    MIXING:  cpu time      0.0125: real time      0.0126
    --------------------------------------------
      LOOP:  cpu time      1.1405: real time      1.1461

 eigenvalue-minimisations  :    64
 total energy-change (2. order) :-0.1617907E-05  (-0.3336609E-08)
 number of electron      22.0000000 magnetization 
 augmentation part        0.4846877 magnetization 

 Broyden mixing:
  rms(total) = 0.73165E-05    rms(broyden)= 0.66036E-05
  rms(prec ) = 0.12660E-04
  weight for this iteration     100.00

 eigenvalues of (default mixing * dielectric matrix)
  average eigenvalue GAMMA=   2.4066
  9.1578  6.7396  5.0573  3.5618  2.6662  2.4567  2.0243  1.8399  1.3225  1.3225
  1.3215  1.2144  0.9934  0.9934  1.1132  1.1132  1.0018  0.9126  0.9126

 Free energy of the ion-electron system (eV)
  ---------------------------------------------------
  alpha Z        PSCENC =         0.62641250
  Ewald energy   TEWEN  =       923.60984309
  -Hartree energ DENC   =     -1456.43958003
  -exchange      EXHF   =         0.00000000
  -V(xc)+E(xc)   XCENC  =        72.70070673
  PAW double counting   =       293.96445157     -299.26307223
  entropy T*S    EENTRO =        -0.00000000
  eigenvalues    EBANDS =      -254.67646749
  atomic energy  EATOM  =       663.51739852
  Solvation  Ediel_sol  =         0.00000000
  ---------------------------------------------------
  free energy    TOTEN  =       -55.96030733 eV

  energy without entropy =      -55.96030733  energy(sigma->0) =      -55.96030733


--------------------------------------------------------------------------------------------------------




--------------------------------------- Iteration      1(  25)  ---------------------------------------


    POTLOK:  cpu time      0.3239: real time      0.3256
    SETDIJ:  cpu time      0.1906: real time      0.1914
     EDDAV:  cpu time      0.3782: real time      0.3803
       DOS:  cpu time      0.0001: real time      0.0001
    --------------------------------------------
      LOOP:  cpu time      0.8927: real time      0.8974

 eigenvalue-minimisations  :    56
 total energy-change (2. order) :-0.8087543E-06  (-0.1955012E-08)
 number of electron      22.0000000 magnetization 
 augmentation part        0.4846877 magnetization 

 Free energy of the ion-electron system (eV)
  ---------------------------------------------------
  alpha Z        PSCENC =         0.62641250
  Ewald energy   TEWEN  =       923.60984309
  -Hartree energ DENC   =     -1456.43977621
  -exchange      EXHF   =         0.00000000
  -V(xc)+E(xc)   XCENC  =        72.70071212
  PAW double counting   =       293.96436836     -299.26298823
  entropy T*S    EENTRO =        -0.00000000
  eigenvalues    EBANDS =      -254.67627829
  atomic energy  EATOM  =       663.51739852
  Solvation  Ediel_sol  =         0.00000000
  ---------------------------------------------------
  free energy    TOTEN  =       -55.96030814 eV

  energy without entropy =      -55.96030814  energy(sigma->0) =      -55.96030814


--------------------------------------------------------------------------------------------------------




 average (electrostatic) potential at core
  the test charge radii are     0.6991  0.5201
  (the norm of the test charge is              1.0000)
       1 -58.3802       2 -58.8226       3 -58.8834       4 -58.5426       5 -41.9647
       6 -41.8319       7 -42.0798       8 -42.0787       9 -42.1196      10 -41.2984
 
 
 
 E-fermi :  -5.4441     XC(G=0):  -0.4342     alpha+bet : -0.1681

 Fermi energy:        -5.4441389585

 k-point     1 :       0.0000    0.0000    0.0000
  band No.  band energies     occupation 
      1     -20.0905      2.00000
      2     -17.2947      2.00000
      3     -14.9098      2.00000
      4     -12.9052      2.00000
      5     -11.9692      2.00000
      6     -10.3695      2.00000
      7      -9.8157      2.00000
      8      -9.0415      2.00000
      9      -8.2547      2.00000
     10      -6.9801      2.00000
     11      -5.7073      2.00000
     12      -1.8770      0.00000
     13      -0.3752      0.00000
     14      -0.1445      0.00000
     15       0.1127      0.00000
     16       0.2333      0.00000
     17       0.4116      0.00000
     18       0.4303      0.00000
     19       0.5617      0.00000
     20       0.6752      0.00000
     21       0.8795      0.00000
     22       0.9601      0.00000
     23       1.0071      0.00000
     24       1.1086      0.00000


--------------------------------------------------------------------------------------------------------


 soft charge-density along one line, spin component           1
         0         1         2         3         4         5         6         7         8         9
 total charge-density along one line
 
 pseudopotential strength for first ion, spin component:           1
 10.244   0.019  -0.002  -0.001  -0.000  -0.002  -0.000   0.001
  0.019  -0.001   0.000   0.000  -0.000  -0.000  -0.000   0.000
 -0.002   0.000  -4.353  -0.005   0.010  -0.018  -0.001   0.003
 -0.001   0.000  -0.005  -4.355  -0.001  -0.001  -0.019  -0.000
 -0.000  -0.000   0.010  -0.001  -4.344   0.003  -0.000  -0.016
 -0.002  -0.000  -0.018  -0.001   0.003  -0.772  -0.000   0.000
 -0.000  -0.000  -0.001  -0.019  -0.000  -0.000  -0.772  -0.000
  0.001   0.000   0.003  -0.000  -0.016   0.000  -0.000  -0.772
 total augmentation occupancy for first ion, spin component:           1
  1.508  -1.106   0.041   0.021  -0.013   0.030   0.002  -0.005
 -1.106   0.938  -0.135   0.004   0.021  -0.052  -0.011   0.015
  0.041  -0.135   1.117   0.081  -0.157   0.179   0.026  -0.062
  0.021   0.004   0.081   1.202   0.031   0.026   0.196   0.011
 -0.013   0.021  -0.157   0.031   1.045  -0.062   0.011   0.143
  0.030  -0.052   0.179   0.026  -0.062   0.033   0.007  -0.016
  0.002  -0.011   0.026   0.196   0.011   0.007   0.034   0.002
 -0.005   0.015  -0.062   0.011   0.143  -0.016   0.002   0.022


------------------------ aborting loop because EDIFF is reached ----------------------------------------


    CHARGE:  cpu time      0.2021: real time      0.2029
    FORLOC:  cpu time      0.0296: real time      0.0297
    FORNL :  cpu time      1.0715: real time      1.0764
    STRESS:  cpu time      3.3793: real time      3.3950
    FORHAR:  cpu time      0.1131: real time      0.1137
    MIXING:  cpu time      0.0118: real time      0.0119
    OFIELD:  cpu time      0.0001: real time      0.0001

  FORCE on cell =-STRESS in cart. coord.  units (eV):
  Direction    XX          YY          ZZ          XY          YZ          ZX
  --------------------------------------------------------------------------------------
  Alpha Z     0.62641     0.62641     0.62641
  Ewald     -81.71811   392.38787   612.93979  -123.30959    -4.70284   -39.46504
  Hartree   265.92730   503.71200   686.80050   -59.57326   -12.34056   -46.61022
  E(xc)     -77.33670   -75.88768   -75.50677    -0.39527     0.03831     0.14752
  Local    -401.03666 -1086.64544 -1489.10430   175.36148    20.20883    91.39196
  n-local   -28.23904   -29.72428   -30.46998     0.38054    -0.31687    -0.46455
  augment    -0.52355    -0.64318    -0.63755     0.03794    -0.02457    -0.03177
  Kinetic   322.11330   291.97240   296.21057     7.88687    -0.78550    -7.19574
  Fock        0.00000     0.00000     0.00000     0.00000     0.00000     0.00000
  -------------------------------------------------------------------------------------
  Total      -0.18704    -4.20189     0.85866     0.38871     2.07680    -2.22783
  in kB      -0.08879    -1.99472     0.40762     0.18453     0.98590    -1.05759
  external pressure =       -0.56 kB  Pullay stress =        0.00 kB


 VOLUME and BASIS-vectors are now :
 -----------------------------------------------------------------------------
  energy-cutoff  :      520.00
  volume of cell :     3375.00
      direct lattice vectors                 reciprocal lattice vectors
    15.000000000  0.000000000  0.000000000     0.066666667  0.000000000  0.000000000
     0.000000000 15.000000000  0.000000000     0.000000000  0.066666667  0.000000000
     0.000000000  0.000000000 15.000000000     0.000000000  0.000000000  0.066666667

  length of vectors
    15.000000000 15.000000000 15.000000000     0.066666667  0.066666667  0.066666667


 FORCES acting on ions
    electron-ion (+dipol)            ewald-force                    non-local-force                 convergence-correction
 -----------------------------------------------------------------------------------------------
   -.564E+02 0.975E+02 0.106E+03   0.576E+02 -.982E+02 -.106E+03   0.199E-02 0.127E+01 -.910E+00   -.182E-04 -.163E-05 0.358E-04
   0.487E+02 -.117E+03 0.748E+02   -.489E+02 0.118E+03 -.751E+02   0.791E-01 -.591E+00 0.175E+01   -.228E-04 0.508E-04 0.139E-03
   0.124E+02 -.121E+03 -.793E+02   -.123E+02 0.121E+03 0.800E+02   -.166E+00 -.193E+01 -.731E+00   0.117E-04 -.502E-04 0.103E-04
   0.118E+02 0.995E+02 -.112E+03   -.122E+02 -.986E+02 0.113E+03   0.348E+00 0.151E+01 0.188E+01   0.117E-04 0.550E-04 -.817E-04
   -.437E+01 0.198E+02 0.679E+02   0.424E+01 -.213E+02 -.748E+02   0.989E-01 0.112E+01 0.597E+01   -.151E-05 -.553E-05 -.165E-04
   -.530E+02 0.405E+02 -.116E+02   0.563E+02 -.431E+02 0.144E+02   -.382E+01 0.271E+01 -.316E+01   0.888E-05 -.106E-04 0.200E-04
   0.323E+02 -.479E+02 0.415E+02   -.347E+02 0.511E+02 -.443E+02   0.262E+01 -.357E+01 0.323E+01   -.245E-05 0.591E-05 0.590E-05
   -.722E+01 -.562E+02 -.415E+02   0.781E+01 0.599E+02 0.443E+02   -.768E+00 -.426E+01 -.329E+01   -.153E-05 -.257E-04 -.265E-04
   0.225E+02 0.627E+02 0.123E+02   -.244E+02 -.678E+02 -.162E+02   0.166E+01 0.479E+01 0.355E+01   0.829E-05 0.216E-04 0.134E-04
   -.606E+01 0.201E+02 -.615E+02   0.649E+01 -.207E+02 0.644E+02   -.631E+00 0.106E+01 -.460E+01   -.129E-06 -.227E-06 -.307E-04
 -----------------------------------------------------------------------------------------------
   0.589E+00 -.209E+01 -.368E+01   0.124E-13 -.355E-14 0.142E-13   -.584E+00 0.209E+01 0.368E+01   -.608E-05 0.394E-04 0.686E-04
 
 
 POSITION                                       TOTAL-FORCE (eV/Angst)
 -----------------------------------------------------------------------------------
      7.89600      7.12300      6.27600         1.150208      0.516415     -1.102459
      7.29400      8.22800      6.73400        -0.146481      0.428947      1.443694
      7.32800      8.26700      8.23100        -0.091477     -2.303583      0.012706
      7.28600      6.95600      8.71800        -0.028809      2.424463      3.058705
      7.87700      6.91500      5.23000        -0.032764     -0.419104     -0.935949
      8.62700      6.57700      6.89100        -0.469386      0.085466     -0.385807
      6.76100      8.95400      6.08700         0.231428     -0.379542      0.398705
      7.48100      9.14800      8.89300        -0.178395     -0.502770     -0.560209
      7.00800      6.12900      8.10200        -0.234538     -0.390589     -0.294689
      7.44300      6.70400      9.83800        -0.199785      0.540297     -1.634697
 -----------------------------------------------------------------------------------
    total drift:                                0.005082      0.004937      0.000413


--------------------------------------------------------------------------------------------------------



  FREE ENERGIE OF THE ION-ELECTRON SYSTEM (eV)
  ---------------------------------------------------
  free  energy   TOTEN  =       -55.96030814 eV

  energy  without entropy=      -55.96030814  energy(sigma->0) =      -55.96030814
 


--------------------------------------------------------------------------------------------------------


    POTLOK:  cpu time      0.5152: real time      0.5176


--------------------------------------------------------------------------------------------------------


 stress matrix after NEB project (eV)
     -0.18704      0.38872     -2.22783
      0.38871     -4.20189      2.07680
     -2.22783      2.07680      0.85866
  FORCES: max atom, RMS     3.903143    1.769944
  FORCE total and by dimension    5.597055    3.058705
  Stress total and by dimension    6.105981    4.201892
     LOOP+:  cpu time     30.9112: real time     31.0656
    4ORBIT:  cpu time      0.0000: real time      0.0000

 total amount of memory used by VASP MPI-rank0   224785. kBytes
=======================================================================

   base      :      30000. kBytes
   nonlr-proj:       1261. kBytes
   fftplans  :     123538. kBytes
   grid      :      67787. kBytes
   one-center:         15. kBytes
   wavefun   :       2184. kBytes
 
  
  
 General timing and accounting informations for this job:
 ========================================================
  
                  Total CPU time used (sec):       37.527
                            User time (sec):       34.286
                          System time (sec):        3.241
                         Elapsed time (sec):       38.885
  
                   Maximum memory used (kb):      561096.
                   Average memory used (kb):          N/A
  
                          Minor page faults:       178766
                          Major page faults:         5436
                 Voluntary context switches:         3125
