 vasp.6.4.2 20Jul23 (build Apr 10 2024 13:39:58) complex                        
  
 executed on             LinuxIFC date 2024.05.18  03:19:41
 running   16 mpi-ranks, on    1 nodes
 distrk:  each k-point on   16 cores,    1 groups
 distr:  one band on NCORE=   2 cores,    8 groups


--------------------------------------------------------------------------------------------------------


 INCAR:
   ISTART = 0
   ISPIN = 1
   LREAL = Auto
   ENCUT = 520
   NPAR = 8
   LPLANE = .TRUE.
   LSCALU = .FALSE.
   NSIM = 4
   LWAVE = .FALSE.
   LCHARG = .FALSE.
   ADDGRID = .TRUE.
   LASPH = .TRUE.
   PREC = Accurate
   ISMEAR = 0
   SIGMA = 0.05
   EDIFF = 1E-06
   NSW = 0
   TEBEG = 300
   TEEND = 700     	
   ISYM = 0
   NWRITE = 2

 POTCAR:   PAW_PBE C 08Apr2002                    
 POTCAR:   PAW_PBE H 15Jun2001                    
 POTCAR:   PAW_PBE C 08Apr2002                    
   VRHFIN =C: s2p2                                                                                  
   LEXCH  = PE                                                                                      
   EATOM  =   147.1560 eV,   10.8157 Ry                                                             
                                                                                                    
   TITEL  = PAW_PBE C 08Apr2002                                                                     
   LULTRA =        F    use ultrasoft PP ?                                                          
   IUNSCR =        0    unscreen: 0-lin 1-nonlin 2-no                                               
   RPACOR =     .000    partial core radius                                                         
   POMASS =   12.011; ZVAL   =    4.000    mass and valenz                                          
   RCORE  =    1.500    outmost cutoff radius                                                       
   RWIGS  =    1.630; RWIGS  =     .863    wigner-seitz radius (au A)                               
   ENMAX  =  400.000; ENMIN  =  300.000 eV                                                          
   ICORE  =        2    local potential                                                             
   LCOR   =        T    correct aug charges                                                         
   LPAW   =        T    paw PP                                                                      
   EAUG   =  644.873                                                                                
   DEXC   =     .000                                                                                
   RMAX   =    2.266    core radius for proj-oper                                                   
   RAUG   =    1.300    factor for augmentation sphere                                              
   RDEP   =    1.501    radius for radial grids                                                     
   RDEPT  =    1.300    core radius for aug-charge                                                  
   QCUT   =   -5.516; QGAM   =   11.032    optimization parameters                                  
                                                                                                    
   Description                                                                                      
     l     E      TYP  RCUT    TYP  RCUT                                                            
     0   .000     23  1.200                                                                         
     0   .000     23  1.200                                                                         
     1   .000     23  1.500                                                                         
     1  2.500     23  1.500                                                                         
     2   .000      7  1.500                                                                         
  local pseudopotential read in
  atomic valenz-charges read in
  non local Contribution for L=           0  read in
    real space projection operators read in
  non local Contribution for L=           0  read in
    real space projection operators read in
  non local Contribution for L=           1  read in
    real space projection operators read in
  non local Contribution for L=           1  read in
    real space projection operators read in
    PAW grid and wavefunctions read in
 
   number of l-projection  operators is LMAX  =           4
   number of lm-projection operators is LMMAX =           8
 
 POTCAR:   PAW_PBE H 15Jun2001                    
   VRHFIN =H: ultrasoft test                                                                        
   LEXCH  = PE                                                                                      
   EATOM  =    12.4884 eV,     .9179 Ry                                                             
                                                                                                    
   TITEL  = PAW_PBE H 15Jun2001                                                                     
   LULTRA =        F    use ultrasoft PP ?                                                          
   IUNSCR =        0    unscreen: 0-lin 1-nonlin 2-no                                               
   RPACOR =     .000    partial core radius                                                         
   POMASS =    1.000; ZVAL   =    1.000    mass and valenz                                          
   RCORE  =    1.100    outmost cutoff radius                                                       
   RWIGS  =     .700; RWIGS  =     .370    wigner-seitz radius (au A)                               
   ENMAX  =  250.000; ENMIN  =  200.000 eV                                                          
   RCLOC  =     .701    cutoff for local pot                                                        
   LCOR   =        T    correct aug charges                                                         
   LPAW   =        T    paw PP                                                                      
   EAUG   =  400.000                                                                                
   RMAX   =    2.174    core radius for proj-oper                                                   
   RAUG   =    1.200    factor for augmentation sphere                                              
   RDEP   =    1.112    radius for radial grids                                                     
   QCUT   =   -5.749; QGAM   =   11.498    optimization parameters                                  
                                                                                                    
   Description                                                                                      
     l     E      TYP  RCUT    TYP  RCUT                                                            
     0   .000     23  1.100                                                                         
     0   .500     23  1.100                                                                         
     1  -.300     23  1.100                                                                         
  local pseudopotential read in
  atomic valenz-charges read in
  non local Contribution for L=           0  read in
    real space projection operators read in
  non local Contribution for L=           0  read in
    real space projection operators read in
  non local Contribution for L=           1  read in
    real space projection operators read in
    PAW grid and wavefunctions read in
 
   number of l-projection  operators is LMAX  =           3
   number of lm-projection operators is LMMAX =           5
 
 Optimization of the real space projectors (new method)

 maximal supplied QI-value         = 25.13
 optimisation between [QCUT,QGAM] = [ 11.56, 23.12] = [ 37.43,149.72] Ry 
 Optimized for a Real-space Cutoff    1.04 Angstroem

   l    n(q)    QCUT    max X(q) W(low)/X(q) W(high)/X(q)  e(spline) 
   0      7    11.561     5.582    0.47E-04    0.94E-04    0.17E-07
   0      7    11.561    69.432    0.20E-03    0.59E-03    0.21E-06
   1      7    11.561     2.780    0.24E-04    0.70E-04    0.44E-07
   1      7    11.561     4.549    0.18E-03    0.25E-03    0.12E-06
 Optimization of the real space projectors (new method)

 maximal supplied QI-value         = 34.20
 optimisation between [QCUT,QGAM] = [ 11.63, 23.26] = [ 37.87,151.49] Ry 
 Optimized for a Real-space Cutoff    1.21 Angstroem

   l    n(q)    QCUT    max X(q) W(low)/X(q) W(high)/X(q)  e(spline) 
   0      8    11.629     4.436    0.19E-04    0.32E-04    0.47E-07
   0      8    11.629    16.131    0.16E-03    0.33E-03    0.21E-06
   1      8    11.629     4.654    0.18E-03    0.16E-03    0.26E-06
 PAW_PBE C 08Apr2002                    :
 energy of atom  1       EATOM= -147.1560
 kinetic energy error for atom=    0.0071 (will be added to EATOM!!)
 PAW_PBE H 15Jun2001                    :
 energy of atom  2       EATOM=  -12.4884
 kinetic energy error for atom=    0.0014 (will be added to EATOM!!)
 
 
 POSCAR:  C  H
  positions in cartesian coordinates
  No initial velocities read in
 exchange correlation table for  LEXCH =        8
   RHO(1)=    0.500       N(1)  =     2000
   RHO(2)=  100.500       N(2)  =     4000

 VTST: version 4.1, (05/19/21)

 CHAIN: initializing optimizer
 
 OPT: Using VASP Dynamics algorithm
 CHAIN: Read ICHAIN            0
 
 POSCAR:  C  H
  positions in cartesian coordinates
  No initial velocities read in
 


--------------------------------------------------------------------------------------------------------


 ion  position               nearest neighbor table
   1  0.514  0.477  0.401-   5 1.05   6 1.15   2 1.26
   2  0.517  0.544  0.452-   7 1.07   1 1.26   3 1.60
   3  0.505  0.543  0.558-   8 1.05   4 1.36   2 1.60
   4  0.471  0.466  0.592-   9 1.05  10 1.05   3 1.36
   5  0.526  0.486  0.332-   1 1.05
   6  0.510  0.406  0.428-   1 1.15
   7  0.523  0.608  0.421-   2 1.07
   8  0.523  0.598  0.597-   3 1.05
   9  0.446  0.411  0.557-   4 1.05
  10  0.464  0.460  0.662-   4 1.05
 

IMPORTANT INFORMATION: All symmetrisations will be switched off!
NOSYMM: (Re-)initialisation of all symmetry stuff for point group C_1.


----------------------------------------------------------------------------------------

                                     Primitive cell                                     

  volume of cell :    3375.0000

  direct lattice vectors                    reciprocal lattice vectors
    15.000000000  0.000000000  0.000000000     0.066666667  0.000000000  0.000000000
     0.000000000 15.000000000  0.000000000     0.000000000  0.066666667  0.000000000
     0.000000000  0.000000000 15.000000000     0.000000000  0.000000000  0.066666667

  length of vectors
    15.000000000 15.000000000 15.000000000     0.066666667  0.066666667  0.066666667

  position of ions in fractional coordinates (direct lattice)
     0.514466667  0.477399985  0.400933329
     0.516733329  0.544400024  0.452066676
     0.505266666  0.542533302  0.558066686
     0.470733325  0.466200002  0.592266655
     0.526399994  0.486266677  0.332333342
     0.509933345  0.405600007  0.428000005
     0.523466682  0.608466657  0.420733325
     0.522733339  0.597933324  0.597200012
     0.445799987  0.411333338  0.556533305
     0.464466667  0.459866651  0.661866697

  ion indices of the primitive-cell ions
   primitive index   ion index
                 1           1
                 2           2
                 3           3
                 4           4
                 5           5
                 6           6
                 7           7
                 8           8
                 9           9
                10          10

----------------------------------------------------------------------------------------

 
 
 KPOINTS: K-Spacing Value to Generate K-Mesh: 1.00

Automatic generation of k-mesh.
 Grid dimensions read from file:
 generate k-points for:    1    1    1

 Generating k-lattice:

  Cartesian coordinates                     Fractional coordinates (reciprocal lattice)
     0.066666667  0.000000000  0.000000000     1.000000000  0.000000000  0.000000000
     0.000000000  0.066666667  0.000000000     0.000000000  1.000000000  0.000000000
     0.000000000  0.000000000  0.066666667     0.000000000  0.000000000  1.000000000

  Length of vectors
     0.066666667  0.066666667  0.066666667

  Shift w.r.t. Gamma in fractional coordinates (k-lattice)
     0.000000000  0.000000000  0.000000000

 
 Subroutine IBZKPT returns following result:
 ===========================================
 
 Found      1 irreducible k-points:
 
 Following reciprocal coordinates:
            Coordinates               Weight
  0.000000  0.000000  0.000000      1.000000
 
 Following cartesian coordinates:
            Coordinates               Weight
  0.000000  0.000000  0.000000      1.000000
 


--------------------------------------------------------------------------------------------------------




 Dimension of arrays:
   k-points           NKPTS =      1   k-points in BZ     NKDIM =      1   number of bands    NBANDS=     24
   number of dos      NEDOS =    301   number of ions     NIONS =     10
   non local maximal  LDIM  =      4   non local SUM 2l+1 LMDIM =      8
   total plane-waves  NPLWV = ******
   max r-space proj   IRMAX =   3145   max aug-charges    IRDMAX=  39494
   dimension x,y,z NGX =   112 NGY =  112 NGZ =  112
   dimension x,y,z NGXF=   224 NGYF=  224 NGZF=  224
   support grid    NGXF=   448 NGYF=  448 NGZF=  448
   ions per type =               4   6
   NGX,Y,Z   is equivalent  to a cutoff of  12.41, 12.41, 12.41 a.u.
   NGXF,Y,Z  is equivalent  to a cutoff of  24.83, 24.83, 24.83 a.u.

 SYSTEM =  unknown system                          
 POSCAR =   C  H                                   

 Startparameter for this run:
   NWRITE =      2    write-flag & timer
   PREC   = accura    normal or accurate (medium, high low for compatibility)
   ISTART =      0    job   : 0-new  1-cont  2-samecut
   ICHARG =      2    charge: 1-file 2-atom 10-const
   ISPIN  =      1    spin polarized calculation?
   LNONCOLLINEAR =      F non collinear calculations
   LSORBIT =      F    spin-orbit coupling
   INIWAV =      1    electr: 0-lowe 1-rand  2-diag
   LASPH  =      T    aspherical Exc in radial PAW
 Electronic Relaxation 1
   ENCUT  =  520.0 eV  38.22 Ry    6.18 a.u.  27.89 27.89 27.89*2*pi/ulx,y,z
   ENINI  =  520.0     initial cutoff
   ENAUG  =  644.9 eV  augmentation charge cutoff
   NELM   =     60;   NELMIN=  2; NELMDL= -5     # of ELM steps 
   EDIFF  = 0.1E-05   stopping-criterion for ELM
   LREAL  =      T    real-space projection
   NLSPLINE    = F    spline interpolate recip. space projectors
   LCOMPAT=      F    compatible to vasp.4.4
   GGA_COMPAT  = T    GGA compatible to vasp.4.4-vasp.4.6
   LMAXPAW     = -100 max onsite density
   LMAXMIX     =    2 max onsite mixed and CHGCAR
   VOSKOWN=      0    Vosko Wilk Nusair interpolation
   ROPT   =   -0.00025  -0.00025
 Ionic relaxation
   EDIFFG = 0.1E-04   stopping-criterion for IOM
   NSW    =      0    number of steps for IOM
   NBLOCK =      1;   KBLOCK =      1    inner block; outer block 
   IBRION =     -1    ionic relax: 0-MD 1-quasi-New 2-CG
   NFREE  =      0    steps in history (QN), initial steepest desc. (CG)
   ISIF   =      2    stress and relaxation
   IWAVPR =     10    prediction:  0-non 1-charg 2-wave 3-comb
   ISYM   =      0    0-nonsym 1-usesym 2-fastsym
   LCORR  =      T    Harris-Foulkes like correction to forces

   POTIM  = 0.5000    time-step for ionic-motion
   TEIN   =    0.0    initial temperature
   TEBEG  =  300.0;   TEEND  = 700.0 temperature during run
   SMASS  =  -3.00    Nose mass-parameter (am)
   estimated Nose-frequenzy (Omega)   =  0.10E-29 period in steps = 0.13E+47 mass=  -0.514E-26a.u.
   SCALEE = 1.0000    scale energy and forces
   NPACO  =    256;   APACO  = 10.0  distance and # of slots for P.C.
   PSTRESS=    0.0 pullay stress

  Mass of Ions in am
   POMASS =  12.01  1.00
  Ionic Valenz
   ZVAL   =   4.00  1.00
  Atomic Wigner-Seitz radii
   RWIGS  =  -1.00 -1.00
  virtual crystal weights 
   VCA    =   1.00  1.00
   NELECT =      22.0000    total number of electrons
   NUPDOWN=      -1.0000    fix difference up-down

 DOS related values:
   EMIN   =  10.00;   EMAX   =-10.00  energy-range for DOS
   EFERMI =   0.00;   METHOD = LEGACY      
   ISMEAR =     0;   SIGMA  =   0.05  broadening in eV -4-tet -1-fermi 0-gaus

 Electronic relaxation 2 (details)
   IALGO  =     38    algorithm
   LDIAG  =      T    sub-space diagonalisation (order eigenvalues)
   LSUBROT=      F    optimize rotation matrix (better conditioning)
   TURBO    =      0    0=normal 1=particle mesh
   IRESTART =      0    0=no restart 2=restart with 2 vectors
   NREBOOT  =      0    no. of reboots
   NMIN     =      0    reboot dimension
   EREF     =   0.00    reference energy to select bands
   IMIX   =      4    mixing-type and parameters
     AMIX     =   0.40;   BMIX     =  1.00
     AMIX_MAG =   1.60;   BMIX_MAG =  1.00
     AMIN     =   0.10
     WC   =   100.;   INIMIX=   1;  MIXPRE=   1;  MAXMIX= -45

 Intra band minimization:
   WEIMIN = 0.0000     energy-eigenvalue tresh-hold
   EBREAK =  0.10E-07  absolut break condition
   DEPER  =   0.30     relativ break condition  

   TIME   =   0.40     timestep for ELM

  volume/ion in A,a.u.               =     337.50      2277.56
  Fermi-wavevector in a.u.,A,eV,Ry     =   0.305814  0.577905  1.272449  0.093522
  Thomas-Fermi vector in A             =   1.179187
 
 Write flags
   LWAVE        =      F    write WAVECAR
   LDOWNSAMPLE  =      F    k-point downsampling of WAVECAR
   LCHARG       =      F    write CHGCAR
   LVTOT        =      F    write LOCPOT, total local potential
   LVHAR        =      F    write LOCPOT, Hartree potential only
   LELF         =      F    write electronic localiz. function (ELF)
   LORBIT       =      0    0 simple, 1 ext, 2 COOP (PROOUT), +10 PAW based schemes


 Dipole corrections
   LMONO  =      F    monopole corrections only (constant potential shift)
   LDIPOL =      F    correct potential (dipole corrections)
   IDIPOL =      0    1-x, 2-y, 3-z, 4-all directions 
   EPSILON=  1.0000000 bulk dielectric constant

 Exchange correlation treatment:
   GGA     =    --    GGA type
   LEXCH   =     8    internal setting for exchange type
   LIBXC   =     F    Libxc                    
   VOSKOWN =     0    Vosko Wilk Nusair interpolation
   LHFCALC =     F    Hartree Fock is set to
   LHFONE  =     F    Hartree Fock one center treatment
   AEXX    =    0.0000 exact exchange contribution

 Linear response parameters
   LEPSILON=     F    determine dielectric tensor
   LRPA    =     F    only Hartree local field effects (RPA)
   LNABLA  =     F    use nabla operator in PAW spheres
   LVEL    =     F    velocity operator in full k-point grid
   CSHIFT  =0.1000    complex shift for real part using Kramers Kronig
   OMEGAMAX=  -1.0    maximum frequency
   DEG_THRESHOLD= 0.2000000E-02 threshold for treating states as degnerate
   RTIME   =   -0.100 relaxation time in fs
  (WPLASMAI=    0.000 imaginary part of plasma frequency in eV, 0.658/RTIME)
   DFIELD  = 0.0000000 0.0000000 0.0000000 field for delta impulse in time
 
  Optional k-point grid parameters
   LKPOINTS_OPT  =     F    use optional k-point grid
   KPOINTS_OPT_MODE=     1    mode for optional k-point grid
 
 Orbital magnetization related:
   ORBITALMAG=     F  switch on orbital magnetization
   LCHIMAG   =     F  perturbation theory with respect to B field
   DQ        =  0.001000  dq finite difference perturbation B field
   LLRAUG    =     F  two centre corrections for induced B field
   LBONE     =     F  B-component reconstruction in AE one-centre
   LVGVCALC  =     T  calculate vGv susceptibility
   LVGVAPPL  =     F  apply vGv susceptibility instead of pGv for G=0

 Random number generation:
   RANDOM_GENERATOR = DEFAULT
   PCG_SEED         = not used


--------------------------------------------------------------------------------------------------------


 Static calculation
 charge density and potential will be updated during run
 non-spin polarized calculation
 Variant of blocked Davidson
 Davidson routine will perform the subspace rotation
 perform sub-space diagonalisation
    after iterative eigenvector-optimisation
 modified Broyden-mixing scheme, WC =      100.0
 initial mixing is a Kerker type mixing with AMIX =  0.4000 and BMIX =      1.0000
 Hartree-type preconditioning will be used
 using additional bands           13
 real space projection scheme for non local part
 calculate Harris-corrections to forces 
   (improved forces if not selfconsistent)
 use gradient corrections 
 use of overlap-Matrix (Vanderbilt PP)
 Gauss-broadening in eV      SIGMA  =   0.05


--------------------------------------------------------------------------------------------------------


  energy-cutoff  :      520.00
  volume of cell :     3375.00
      direct lattice vectors                 reciprocal lattice vectors
    15.000000000  0.000000000  0.000000000     0.066666667  0.000000000  0.000000000
     0.000000000 15.000000000  0.000000000     0.000000000  0.066666667  0.000000000
     0.000000000  0.000000000 15.000000000     0.000000000  0.000000000  0.066666667

  length of vectors
    15.000000000 15.000000000 15.000000000     0.066666667  0.066666667  0.066666667


 
 k-points in units of 2pi/SCALE and weight: K-Spacing Value to Generate K-Mesh: 1.00
   0.00000000  0.00000000  0.00000000       1.000
 
 k-points in reciprocal lattice and weights: K-Spacing Value to Generate K-Mesh: 1.00
   0.00000000  0.00000000  0.00000000       1.000
 
 position of ions in fractional coordinates (direct lattice) 
   0.51446667  0.47739998  0.40093333
   0.51673333  0.54440002  0.45206668
   0.50526667  0.54253330  0.55806669
   0.47073332  0.46620000  0.59226665
   0.52639999  0.48626668  0.33233334
   0.50993334  0.40560001  0.42800001
   0.52346668  0.60846666  0.42073332
   0.52273334  0.59793332  0.59720001
   0.44579999  0.41133334  0.55653330
   0.46446667  0.45986665  0.66186670
 
 position of ions in cartesian coordinates  (Angst):
   7.71700001  7.16099977  6.01399994
   7.75099993  8.16600037  6.78100014
   7.57900000  8.13799953  8.37100029
   7.06099987  6.99300003  8.88399982
   7.89599991  7.29400015  4.98500013
   7.64900017  6.08400011  6.42000008
   7.85200024  9.12699986  6.31099987
   7.84100008  8.96899986  8.95800018
   6.68699980  6.17000008  8.34799957
   6.96700001  6.89799976  9.92800045
 


--------------------------------------------------------------------------------------------------------


 k-point   1 :   0.0000 0.0000 0.0000  plane waves:   90879

 maximum and minimum number of plane-waves per node :     45467    45412

 maximum number of plane-waves:     90879
 maximum index in each direction: 
   IXMAX=   27   IYMAX=   27   IZMAX=   27
   IXMIN=  -27   IYMIN=  -27   IZMIN=  -27


 real space projection operators:
  total allocation   :       1183.84 KBytes
  max/ min on nodes  :        593.35        590.48


 parallel 3D FFT for wavefunctions:
    minimum data exchange during FFTs selected (reduces bandwidth)
 parallel 3D FFT for charge:
    minimum data exchange during FFTs selected (reduces bandwidth)


 total amount of memory used by VASP MPI-rank0   224777. kBytes
=======================================================================

   base      :      30000. kBytes
   nonlr-proj:       1253. kBytes
   fftplans  :     123538. kBytes
   grid      :      67787. kBytes
   one-center:         15. kBytes
   wavefun   :       2184. kBytes
 
     INWAV:  cpu time      0.0000: real time      0.0000
 Broyden mixing: mesh for mixing (old mesh)
   NGX = 55   NGY = 55   NGZ = 55
  (NGX  =224   NGY  =224   NGZ  =224)
  gives a total of 166375 points

 initial charge density was supplied:
 charge density of overlapping atoms calculated
 number of electron      22.0000000 magnetization 
 keeping initial charge density in first step


--------------------------------------------------------------------------------------------------------


 Maximum index for non-local projection operator         1509
 Maximum index for augmentation-charges         2442 (set IRDMAX)


--------------------------------------------------------------------------------------------------------


 First call to EWALD:  gamma=   0.118
 Maximum number of real-space cells 3x 3x 3
 Maximum number of reciprocal cells 3x 3x 3

    FEWALD:  cpu time      0.0010: real time      0.0010


--------------------------------------- Ionic step        1  -------------------------------------------




--------------------------------------- Iteration      1(   1)  ---------------------------------------


    POTLOK:  cpu time      0.3342: real time      0.3360
    SETDIJ:  cpu time      0.1922: real time      0.1930
     EDDAV:  cpu time      0.4188: real time      0.4210
       DOS:  cpu time      0.0002: real time      0.0002
    --------------------------------------------
      LOOP:  cpu time      0.9455: real time      0.9503

 eigenvalue-minimisations  :    64
 total energy-change (2. order) : 0.1062268E+03  (-0.5328597E+03)
 number of electron      22.0000000 magnetization 
 augmentation part       22.0000000 magnetization 

 Free energy of the ion-electron system (eV)
  ---------------------------------------------------
  alpha Z        PSCENC =         0.62641250
  Ewald energy   TEWEN  =       900.31640212
  -Hartree energ DENC   =     -1319.39428553
  -exchange      EXHF   =         0.00000000
  -V(xc)+E(xc)   XCENC  =        67.41651884
  PAW double counting   =       156.01372664     -160.66969168
  entropy T*S    EENTRO =        -0.00102816
  eigenvalues    EBANDS =      -201.59865882
  atomic energy  EATOM  =       663.51739852
  Solvation  Ediel_sol  =         0.00000000
  ---------------------------------------------------
  free energy    TOTEN  =       106.22679443 eV

  energy without entropy =      106.22782259  energy(sigma->0) =      106.22730851


--------------------------------------------------------------------------------------------------------




--------------------------------------- Iteration      1(   2)  ---------------------------------------


     EDDAV:  cpu time      0.4847: real time      0.4873
       DOS:  cpu time      0.0001: real time      0.0001
    --------------------------------------------
      LOOP:  cpu time      0.4848: real time      0.4874

 eigenvalue-minimisations  :    80
 total energy-change (2. order) :-0.1292216E+03  (-0.1263199E+03)
 number of electron      22.0000000 magnetization 
 augmentation part       22.0000000 magnetization 

 Free energy of the ion-electron system (eV)
  ---------------------------------------------------
  alpha Z        PSCENC =         0.62641250
  Ewald energy   TEWEN  =       900.31640212
  -Hartree energ DENC   =     -1319.39428553
  -exchange      EXHF   =         0.00000000
  -V(xc)+E(xc)   XCENC  =        67.41651884
  PAW double counting   =       156.01372664     -160.66969168
  entropy T*S    EENTRO =        -0.00000000
  eigenvalues    EBANDS =      -330.82126728
  atomic energy  EATOM  =       663.51739852
  Solvation  Ediel_sol  =         0.00000000
  ---------------------------------------------------
  free energy    TOTEN  =       -22.99478587 eV

  energy without entropy =      -22.99478587  energy(sigma->0) =      -22.99478587


--------------------------------------------------------------------------------------------------------




--------------------------------------- Iteration      1(   3)  ---------------------------------------


     EDDAV:  cpu time      0.4442: real time      0.4467
       DOS:  cpu time      0.0001: real time      0.0001
    --------------------------------------------
      LOOP:  cpu time      0.4443: real time      0.4469

 eigenvalue-minimisations  :    72
 total energy-change (2. order) :-0.3850872E+02  (-0.3841740E+02)
 number of electron      22.0000000 magnetization 
 augmentation part       22.0000000 magnetization 

 Free energy of the ion-electron system (eV)
  ---------------------------------------------------
  alpha Z        PSCENC =         0.62641250
  Ewald energy   TEWEN  =       900.31640212
  -Hartree energ DENC   =     -1319.39428553
  -exchange      EXHF   =         0.00000000
  -V(xc)+E(xc)   XCENC  =        67.41651884
  PAW double counting   =       156.01372664     -160.66969168
  entropy T*S    EENTRO =        -0.00000000
  eigenvalues    EBANDS =      -369.32999042
  atomic energy  EATOM  =       663.51739852
  Solvation  Ediel_sol  =         0.00000000
  ---------------------------------------------------
  free energy    TOTEN  =       -61.50350900 eV

  energy without entropy =      -61.50350900  energy(sigma->0) =      -61.50350900


--------------------------------------------------------------------------------------------------------




--------------------------------------- Iteration      1(   4)  ---------------------------------------


     EDDAV:  cpu time      0.4053: real time      0.4075
       DOS:  cpu time      0.0001: real time      0.0001
    --------------------------------------------
      LOOP:  cpu time      0.4054: real time      0.4076

 eigenvalue-minimisations  :    64
 total energy-change (2. order) :-0.1938343E+01  (-0.1936363E+01)
 number of electron      22.0000000 magnetization 
 augmentation part       22.0000000 magnetization 

 Free energy of the ion-electron system (eV)
  ---------------------------------------------------
  alpha Z        PSCENC =         0.62641250
  Ewald energy   TEWEN  =       900.31640212
  -Hartree energ DENC   =     -1319.39428553
  -exchange      EXHF   =         0.00000000
  -V(xc)+E(xc)   XCENC  =        67.41651884
  PAW double counting   =       156.01372664     -160.66969168
  entropy T*S    EENTRO =        -0.00000000
  eigenvalues    EBANDS =      -371.26833301
  atomic energy  EATOM  =       663.51739852
  Solvation  Ediel_sol  =         0.00000000
  ---------------------------------------------------
  free energy    TOTEN  =       -63.44185159 eV

  energy without entropy =      -63.44185159  energy(sigma->0) =      -63.44185159


--------------------------------------------------------------------------------------------------------




--------------------------------------- Iteration      1(   5)  ---------------------------------------


     EDDAV:  cpu time      0.3672: real time      0.3693
       DOS:  cpu time      0.0001: real time      0.0001
    CHARGE:  cpu time      0.1988: real time      0.1996
    MIXING:  cpu time      0.0103: real time      0.0103
    --------------------------------------------
      LOOP:  cpu time      0.5764: real time      0.5794

 eigenvalue-minimisations  :    56
 total energy-change (2. order) :-0.3068337E-01  (-0.3067260E-01)
 number of electron      22.0000000 magnetization 
 augmentation part        0.5985109 magnetization 

 Broyden mixing:
  rms(total) = 0.12623E+01    rms(broyden)= 0.12620E+01
  rms(prec ) = 0.15066E+01
  weight for this iteration     100.00

 Free energy of the ion-electron system (eV)
  ---------------------------------------------------
  alpha Z        PSCENC =         0.62641250
  Ewald energy   TEWEN  =       900.31640212
  -Hartree energ DENC   =     -1319.39428553
  -exchange      EXHF   =         0.00000000
  -V(xc)+E(xc)   XCENC  =        67.41651884
  PAW double counting   =       156.01372664     -160.66969168
  entropy T*S    EENTRO =        -0.00000000
  eigenvalues    EBANDS =      -371.29901637
  atomic energy  EATOM  =       663.51739852
  Solvation  Ediel_sol  =         0.00000000
  ---------------------------------------------------
  free energy    TOTEN  =       -63.47253496 eV

  energy without entropy =      -63.47253496  energy(sigma->0) =      -63.47253496


--------------------------------------------------------------------------------------------------------




--------------------------------------- Iteration      1(   6)  ---------------------------------------


    POTLOK:  cpu time      0.3078: real time      0.3095
    SETDIJ:  cpu time      0.1939: real time      0.1948
     EDDAV:  cpu time      0.4473: real time      0.4498
       DOS:  cpu time      0.0001: real time      0.0001
    CHARGE:  cpu time      0.1978: real time      0.1986
    MIXING:  cpu time      0.0079: real time      0.0079
    --------------------------------------------
      LOOP:  cpu time      1.1549: real time      1.1607

 eigenvalue-minimisations  :    72
 total energy-change (2. order) : 0.5757348E+01  (-0.8969508E+00)
 number of electron      22.0000000 magnetization 
 augmentation part        0.5474149 magnetization 

 Broyden mixing:
  rms(total) = 0.60565E+00    rms(broyden)= 0.60562E+00
  rms(prec ) = 0.71496E+00
  weight for this iteration     100.00

 eigenvalues of (default mixing * dielectric matrix)
  average eigenvalue GAMMA=   1.5784
  1.5784

 Free energy of the ion-electron system (eV)
  ---------------------------------------------------
  alpha Z        PSCENC =         0.62641250
  Ewald energy   TEWEN  =       900.31640212
  -Hartree energ DENC   =     -1367.76842928
  -exchange      EXHF   =         0.00000000
  -V(xc)+E(xc)   XCENC  =        69.96435167
  PAW double counting   =       234.29372543     -239.53922970
  entropy T*S    EENTRO =        -0.00000000
  eigenvalues    EBANDS =      -319.12581843
  atomic energy  EATOM  =       663.51739852
  Solvation  Ediel_sol  =         0.00000000
  ---------------------------------------------------
  free energy    TOTEN  =       -57.71518717 eV

  energy without entropy =      -57.71518717  energy(sigma->0) =      -57.71518717


--------------------------------------------------------------------------------------------------------




--------------------------------------- Iteration      1(   7)  ---------------------------------------


    POTLOK:  cpu time      0.3094: real time      0.3110
    SETDIJ:  cpu time      0.1923: real time      0.1932
     EDDAV:  cpu time      0.4519: real time      0.4544
       DOS:  cpu time      0.0001: real time      0.0001
    CHARGE:  cpu time      0.2005: real time      0.2013
    MIXING:  cpu time      0.0093: real time      0.0094
    --------------------------------------------
      LOOP:  cpu time      1.1636: real time      1.1695

 eigenvalue-minimisations  :    72
 total energy-change (2. order) : 0.1370650E+01  (-0.4297320E+00)
 number of electron      22.0000000 magnetization 
 augmentation part        0.5149824 magnetization 

 Broyden mixing:
  rms(total) = 0.22704E+00    rms(broyden)= 0.22697E+00
  rms(prec ) = 0.26206E+00
  weight for this iteration     100.00

 eigenvalues of (default mixing * dielectric matrix)
  average eigenvalue GAMMA=   1.5465
  1.3452  1.7479

 Free energy of the ion-electron system (eV)
  ---------------------------------------------------
  alpha Z        PSCENC =         0.62641250
  Ewald energy   TEWEN  =       900.31640212
  -Hartree energ DENC   =     -1406.26515214
  -exchange      EXHF   =         0.00000000
  -V(xc)+E(xc)   XCENC  =        72.17876290
  PAW double counting   =       299.39778988     -304.91459141
  entropy T*S    EENTRO =        -0.00000000
  eigenvalues    EBANDS =      -281.20155921
  atomic energy  EATOM  =       663.51739852
  Solvation  Ediel_sol  =         0.00000000
  ---------------------------------------------------
  free energy    TOTEN  =       -56.34453684 eV

  energy without entropy =      -56.34453684  energy(sigma->0) =      -56.34453684


--------------------------------------------------------------------------------------------------------




--------------------------------------- Iteration      1(   8)  ---------------------------------------


    POTLOK:  cpu time      0.3179: real time      0.3195
    SETDIJ:  cpu time      0.1894: real time      0.1902
     EDDAV:  cpu time      0.4089: real time      0.4112
       DOS:  cpu time      0.0001: real time      0.0001
    CHARGE:  cpu time      0.1934: real time      0.1941
    MIXING:  cpu time      0.0158: real time      0.0158
    --------------------------------------------
      LOOP:  cpu time      1.1255: real time      1.1311

 eigenvalue-minimisations  :    64
 total energy-change (2. order) : 0.1465296E+00  (-0.2440802E-01)
 number of electron      22.0000000 magnetization 
 augmentation part        0.5115803 magnetization 

 Broyden mixing:
  rms(total) = 0.99653E-01    rms(broyden)= 0.99646E-01
  rms(prec ) = 0.12418E+00
  weight for this iteration     100.00

 eigenvalues of (default mixing * dielectric matrix)
  average eigenvalue GAMMA=   1.6399
  2.4007  0.8812  1.6377

 Free energy of the ion-electron system (eV)
  ---------------------------------------------------
  alpha Z        PSCENC =         0.62641250
  Ewald energy   TEWEN  =       900.31640212
  -Hartree energ DENC   =     -1413.98679374
  -exchange      EXHF   =         0.00000000
  -V(xc)+E(xc)   XCENC  =        72.71035791
  PAW double counting   =       309.13040836     -314.58114054
  entropy T*S    EENTRO =        -0.00000000
  eigenvalues    EBANDS =      -273.93105240
  atomic energy  EATOM  =       663.51739852
  Solvation  Ediel_sol  =         0.00000000
  ---------------------------------------------------
  free energy    TOTEN  =       -56.19800727 eV

  energy without entropy =      -56.19800727  energy(sigma->0) =      -56.19800727


--------------------------------------------------------------------------------------------------------




--------------------------------------- Iteration      1(   9)  ---------------------------------------


    POTLOK:  cpu time      0.3234: real time      0.3252
    SETDIJ:  cpu time      0.1918: real time      0.1926
     EDDAV:  cpu time      0.4503: real time      0.4527
       DOS:  cpu time      0.0001: real time      0.0001
    CHARGE:  cpu time      0.2015: real time      0.2023
    MIXING:  cpu time      0.0081: real time      0.0081
    --------------------------------------------
      LOOP:  cpu time      1.1751: real time      1.1810

 eigenvalue-minimisations  :    72
 total energy-change (2. order) : 0.5594256E-01  (-0.7874337E-02)
 number of electron      22.0000000 magnetization 
 augmentation part        0.5104346 magnetization 

 Broyden mixing:
  rms(total) = 0.27054E-01    rms(broyden)= 0.27046E-01
  rms(prec ) = 0.50300E-01
  weight for this iteration     100.00

 eigenvalues of (default mixing * dielectric matrix)
  average eigenvalue GAMMA=   1.4438
  2.2321  1.6419  0.9506  0.9506

 Free energy of the ion-electron system (eV)
  ---------------------------------------------------
  alpha Z        PSCENC =         0.62641250
  Ewald energy   TEWEN  =       900.31640212
  -Hartree energ DENC   =     -1420.51547913
  -exchange      EXHF   =         0.00000000
  -V(xc)+E(xc)   XCENC  =        73.10195877
  PAW double counting   =       313.87651343     -319.26401371
  entropy T*S    EENTRO =        -0.00000000
  eigenvalues    EBANDS =      -267.80125721
  atomic energy  EATOM  =       663.51739852
  Solvation  Ediel_sol  =         0.00000000
  ---------------------------------------------------
  free energy    TOTEN  =       -56.14206471 eV

  energy without entropy =      -56.14206471  energy(sigma->0) =      -56.14206471


--------------------------------------------------------------------------------------------------------




--------------------------------------- Iteration      1(  10)  ---------------------------------------


    POTLOK:  cpu time      0.3202: real time      0.3219
    SETDIJ:  cpu time      0.1885: real time      0.1894
     EDDAV:  cpu time      0.4098: real time      0.4120
       DOS:  cpu time      0.0002: real time      0.0002
    CHARGE:  cpu time      0.1991: real time      0.1999
    MIXING:  cpu time      0.0083: real time      0.0083
    --------------------------------------------
      LOOP:  cpu time      1.1261: real time      1.1317

 eigenvalue-minimisations  :    64
 total energy-change (2. order) : 0.4600456E-02  (-0.1382081E-02)
 number of electron      22.0000000 magnetization 
 augmentation part        0.5096124 magnetization 

 Broyden mixing:
  rms(total) = 0.17309E-01    rms(broyden)= 0.17307E-01
  rms(prec ) = 0.37441E-01
  weight for this iteration     100.00

 eigenvalues of (default mixing * dielectric matrix)
  average eigenvalue GAMMA=   1.6128
  2.4832  2.2800  1.0350  1.0350  1.2307

 Free energy of the ion-electron system (eV)
  ---------------------------------------------------
  alpha Z        PSCENC =         0.62641250
  Ewald energy   TEWEN  =       900.31640212
  -Hartree energ DENC   =     -1422.56398184
  -exchange      EXHF   =         0.00000000
  -V(xc)+E(xc)   XCENC  =        73.13585772
  PAW double counting   =       313.59521179     -318.99274029
  entropy T*S    EENTRO =        -0.00000000
  eigenvalues    EBANDS =      -265.77202478
  atomic energy  EATOM  =       663.51739852
  Solvation  Ediel_sol  =         0.00000000
  ---------------------------------------------------
  free energy    TOTEN  =       -56.13746425 eV

  energy without entropy =      -56.13746425  energy(sigma->0) =      -56.13746425


--------------------------------------------------------------------------------------------------------




--------------------------------------- Iteration      1(  11)  ---------------------------------------


    POTLOK:  cpu time      0.3197: real time      0.3214
    SETDIJ:  cpu time      0.1919: real time      0.1927
     EDDAV:  cpu time      0.3678: real time      0.3697
       DOS:  cpu time      0.0002: real time      0.0002
    CHARGE:  cpu time      0.1938: real time      0.1946
    MIXING:  cpu time      0.0152: real time      0.0152
    --------------------------------------------
      LOOP:  cpu time      1.0886: real time      1.0938

 eigenvalue-minimisations  :    56
 total energy-change (2. order) : 0.1158413E-01  (-0.9122760E-03)
 number of electron      22.0000000 magnetization 
 augmentation part        0.5091154 magnetization 

 Broyden mixing:
  rms(total) = 0.88547E-02    rms(broyden)= 0.88537E-02
  rms(prec ) = 0.19536E-01
  weight for this iteration     100.00

 eigenvalues of (default mixing * dielectric matrix)
  average eigenvalue GAMMA=   1.6214
  2.8489  2.4656  1.3668  0.9235  1.0619  1.0619

 Free energy of the ion-electron system (eV)
  ---------------------------------------------------
  alpha Z        PSCENC =         0.62641250
  Ewald energy   TEWEN  =       900.31640212
  -Hartree energ DENC   =     -1427.23502441
  -exchange      EXHF   =         0.00000000
  -V(xc)+E(xc)   XCENC  =        73.25898344
  PAW double counting   =       312.34005641     -317.72415999
  entropy T*S    EENTRO =        -0.00000000
  eigenvalues    EBANDS =      -261.22594872
  atomic energy  EATOM  =       663.51739852
  Solvation  Ediel_sol  =         0.00000000
  ---------------------------------------------------
  free energy    TOTEN  =       -56.12588012 eV

  energy without entropy =      -56.12588012  energy(sigma->0) =      -56.12588012


--------------------------------------------------------------------------------------------------------




--------------------------------------- Iteration      1(  12)  ---------------------------------------


    POTLOK:  cpu time      0.3199: real time      0.3216
    SETDIJ:  cpu time      0.1914: real time      0.1922
     EDDAV:  cpu time      0.4072: real time      0.4094
       DOS:  cpu time      0.0001: real time      0.0001
    CHARGE:  cpu time      0.1974: real time      0.1981
    MIXING:  cpu time      0.0110: real time      0.0111
    --------------------------------------------
      LOOP:  cpu time      1.1270: real time      1.1325

 eigenvalue-minimisations  :    64
 total energy-change (2. order) : 0.1752840E-04  (-0.1555916E-03)
 number of electron      22.0000000 magnetization 
 augmentation part        0.5088495 magnetization 

 Broyden mixing:
  rms(total) = 0.60813E-02    rms(broyden)= 0.60811E-02
  rms(prec ) = 0.13517E-01
  weight for this iteration     100.00

 eigenvalues of (default mixing * dielectric matrix)
  average eigenvalue GAMMA=   1.7904
  3.8620  2.4473  1.8115  1.4949  1.0081  1.0081  0.9010

 Free energy of the ion-electron system (eV)
  ---------------------------------------------------
  alpha Z        PSCENC =         0.62641250
  Ewald energy   TEWEN  =       900.31640212
  -Hartree energ DENC   =     -1428.82127266
  -exchange      EXHF   =         0.00000000
  -V(xc)+E(xc)   XCENC  =        73.28568828
  PAW double counting   =       311.89829546     -317.28340888
  entropy T*S    EENTRO =        -0.00000000
  eigenvalues    EBANDS =      -259.66537793
  atomic energy  EATOM  =       663.51739852
  Solvation  Ediel_sol  =         0.00000000
  ---------------------------------------------------
  free energy    TOTEN  =       -56.12586259 eV

  energy without entropy =      -56.12586259  energy(sigma->0) =      -56.12586259


--------------------------------------------------------------------------------------------------------




--------------------------------------- Iteration      1(  13)  ---------------------------------------


    POTLOK:  cpu time      0.3154: real time      0.3171
    SETDIJ:  cpu time      0.1919: real time      0.1927
     EDDAV:  cpu time      0.3683: real time      0.3703
       DOS:  cpu time      0.0001: real time      0.0001
    CHARGE:  cpu time      0.1948: real time      0.1956
    MIXING:  cpu time      0.0141: real time      0.0141
    --------------------------------------------
      LOOP:  cpu time      1.0845: real time      1.0898

 eigenvalue-minimisations  :    56
 total energy-change (2. order) :-0.7447913E-02  (-0.1569050E-03)
 number of electron      22.0000000 magnetization 
 augmentation part        0.5086628 magnetization 

 Broyden mixing:
  rms(total) = 0.37981E-02    rms(broyden)= 0.37978E-02
  rms(prec ) = 0.79026E-02
  weight for this iteration     100.00

 eigenvalues of (default mixing * dielectric matrix)
  average eigenvalue GAMMA=   1.8575
  4.6284  2.4849  1.7203  1.5502  1.5502  0.9188  1.0036  1.0036

 Free energy of the ion-electron system (eV)
  ---------------------------------------------------
  alpha Z        PSCENC =         0.62641250
  Ewald energy   TEWEN  =       900.31640212
  -Hartree energ DENC   =     -1430.17622245
  -exchange      EXHF   =         0.00000000
  -V(xc)+E(xc)   XCENC  =        73.29968339
  PAW double counting   =       311.63932202     -317.02481434
  entropy T*S    EENTRO =        -0.00000000
  eigenvalues    EBANDS =      -258.33149226
  atomic energy  EATOM  =       663.51739852
  Solvation  Ediel_sol  =         0.00000000
  ---------------------------------------------------
  free energy    TOTEN  =       -56.13331051 eV

  energy without entropy =      -56.13331051  energy(sigma->0) =      -56.13331051


--------------------------------------------------------------------------------------------------------




--------------------------------------- Iteration      1(  14)  ---------------------------------------


    POTLOK:  cpu time      0.3155: real time      0.3172
    SETDIJ:  cpu time      0.1908: real time      0.1917
     EDDAV:  cpu time      0.4090: real time      0.4111
       DOS:  cpu time      0.0001: real time      0.0001
    CHARGE:  cpu time      0.1981: real time      0.1989
    MIXING:  cpu time      0.0089: real time      0.0089
    --------------------------------------------
      LOOP:  cpu time      1.1225: real time      1.1280

 eigenvalue-minimisations  :    64
 total energy-change (2. order) :-0.6592012E-02  (-0.8116660E-04)
 number of electron      22.0000000 magnetization 
 augmentation part        0.5085523 magnetization 

 Broyden mixing:
  rms(total) = 0.23670E-02    rms(broyden)= 0.23667E-02
  rms(prec ) = 0.49466E-02
  weight for this iteration     100.00

 eigenvalues of (default mixing * dielectric matrix)
  average eigenvalue GAMMA=   2.0386
  5.7182  3.1159  2.3253  1.5867  1.3432  1.3432  0.9131  1.0009  1.0009

 Free energy of the ion-electron system (eV)
  ---------------------------------------------------
  alpha Z        PSCENC =         0.62641250
  Ewald energy   TEWEN  =       900.31640212
  -Hartree energ DENC   =     -1430.57838209
  -exchange      EXHF   =         0.00000000
  -V(xc)+E(xc)   XCENC  =        73.29352052
  PAW double counting   =       311.67291066     -317.05891519
  entropy T*S    EENTRO =        -0.00000000
  eigenvalues    EBANDS =      -257.92924955
  atomic energy  EATOM  =       663.51739852
  Solvation  Ediel_sol  =         0.00000000
  ---------------------------------------------------
  free energy    TOTEN  =       -56.13990252 eV

  energy without entropy =      -56.13990252  energy(sigma->0) =      -56.13990252


--------------------------------------------------------------------------------------------------------




--------------------------------------- Iteration      1(  15)  ---------------------------------------


    POTLOK:  cpu time      0.3105: real time      0.3122
    SETDIJ:  cpu time      0.1929: real time      0.1937
     EDDAV:  cpu time      0.4073: real time      0.4096
       DOS:  cpu time      0.0001: real time      0.0001
    CHARGE:  cpu time      0.1975: real time      0.1983
    MIXING:  cpu time      0.0097: real time      0.0097
    --------------------------------------------
      LOOP:  cpu time      1.1181: real time      1.1236

 eigenvalue-minimisations  :    64
 total energy-change (2. order) :-0.5434834E-02  (-0.9136030E-04)
 number of electron      22.0000000 magnetization 
 augmentation part        0.5085847 magnetization 

 Broyden mixing:
  rms(total) = 0.14743E-02    rms(broyden)= 0.14741E-02
  rms(prec ) = 0.25663E-02
  weight for this iteration     100.00

 eigenvalues of (default mixing * dielectric matrix)
  average eigenvalue GAMMA=   2.0081
  6.0767  3.3639  2.3141  1.5226  1.4666  1.4666  1.0011  1.0011  0.9342  0.9342

 Free energy of the ion-electron system (eV)
  ---------------------------------------------------
  alpha Z        PSCENC =         0.62641250
  Ewald energy   TEWEN  =       900.31640212
  -Hartree energ DENC   =     -1430.71278181
  -exchange      EXHF   =         0.00000000
  -V(xc)+E(xc)   XCENC  =        73.28373593
  PAW double counting   =       311.70185305     -317.08681337
  entropy T*S    EENTRO =        -0.00000000
  eigenvalues    EBANDS =      -257.79154429
  atomic energy  EATOM  =       663.51739852
  Solvation  Ediel_sol  =         0.00000000
  ---------------------------------------------------
  free energy    TOTEN  =       -56.14533735 eV

  energy without entropy =      -56.14533735  energy(sigma->0) =      -56.14533735


--------------------------------------------------------------------------------------------------------




--------------------------------------- Iteration      1(  16)  ---------------------------------------


    POTLOK:  cpu time      0.3098: real time      0.3115
    SETDIJ:  cpu time      0.1923: real time      0.1931
     EDDAV:  cpu time      0.4880: real time      0.4907
       DOS:  cpu time      0.0001: real time      0.0001
    CHARGE:  cpu time      0.1975: real time      0.1983
    MIXING:  cpu time      0.0115: real time      0.0116
    --------------------------------------------
      LOOP:  cpu time      1.1993: real time      1.2053

 eigenvalue-minimisations  :    80
 total energy-change (2. order) :-0.1387560E-02  (-0.1276008E-04)
 number of electron      22.0000000 magnetization 
 augmentation part        0.5085214 magnetization 

 Broyden mixing:
  rms(total) = 0.94772E-03    rms(broyden)= 0.94759E-03
  rms(prec ) = 0.17092E-02
  weight for this iteration     100.00

 eigenvalues of (default mixing * dielectric matrix)
  average eigenvalue GAMMA=   2.1828
  7.4718  3.9506  2.2715  2.2715  1.4867  1.4867  1.1389  1.1389  0.9011  0.9465
  0.9465

 Free energy of the ion-electron system (eV)
  ---------------------------------------------------
  alpha Z        PSCENC =         0.62641250
  Ewald energy   TEWEN  =       900.31640212
  -Hartree energ DENC   =     -1430.75608515
  -exchange      EXHF   =         0.00000000
  -V(xc)+E(xc)   XCENC  =        73.28209898
  PAW double counting   =       311.73134349     -317.11644068
  entropy T*S    EENTRO =        -0.00000000
  eigenvalues    EBANDS =      -257.74785468
  atomic energy  EATOM  =       663.51739852
  Solvation  Ediel_sol  =         0.00000000
  ---------------------------------------------------
  free energy    TOTEN  =       -56.14672491 eV

  energy without entropy =      -56.14672491  energy(sigma->0) =      -56.14672491


--------------------------------------------------------------------------------------------------------




--------------------------------------- Iteration      1(  17)  ---------------------------------------


    POTLOK:  cpu time      0.3064: real time      0.3080
    SETDIJ:  cpu time      0.1915: real time      0.1923
     EDDAV:  cpu time      0.3251: real time      0.3268
       DOS:  cpu time      0.0001: real time      0.0001
    CHARGE:  cpu time      0.1954: real time      0.1962
    MIXING:  cpu time      0.0117: real time      0.0118
    --------------------------------------------
      LOOP:  cpu time      1.0303: real time      1.0353

 eigenvalue-minimisations  :    48
 total energy-change (2. order) :-0.1406738E-02  (-0.1441558E-04)
 number of electron      22.0000000 magnetization 
 augmentation part        0.5085283 magnetization 

 Broyden mixing:
  rms(total) = 0.49030E-03    rms(broyden)= 0.49024E-03
  rms(prec ) = 0.87408E-03
  weight for this iteration     100.00

 eigenvalues of (default mixing * dielectric matrix)
  average eigenvalue GAMMA=   2.2098
  7.6385  4.6173  2.6651  2.2273  1.5761  1.3868  1.3868  0.8949  0.9648  0.9648
  1.0974  1.0974

 Free energy of the ion-electron system (eV)
  ---------------------------------------------------
  alpha Z        PSCENC =         0.62641250
  Ewald energy   TEWEN  =       900.31640212
  -Hartree energ DENC   =     -1430.73910200
  -exchange      EXHF   =         0.00000000
  -V(xc)+E(xc)   XCENC  =        73.27806149
  PAW double counting   =       311.71524381     -317.10001724
  entropy T*S    EENTRO =        -0.00000000
  eigenvalues    EBANDS =      -257.76253084
  atomic energy  EATOM  =       663.51739852
  Solvation  Ediel_sol  =         0.00000000
  ---------------------------------------------------
  free energy    TOTEN  =       -56.14813165 eV

  energy without entropy =      -56.14813165  energy(sigma->0) =      -56.14813165


--------------------------------------------------------------------------------------------------------




--------------------------------------- Iteration      1(  18)  ---------------------------------------


    POTLOK:  cpu time      0.3036: real time      0.3052
    SETDIJ:  cpu time      0.1911: real time      0.1919
     EDDAV:  cpu time      0.4470: real time      0.4493
       DOS:  cpu time      0.0001: real time      0.0001
    CHARGE:  cpu time      0.1952: real time      0.1960
    MIXING:  cpu time      0.0126: real time      0.0126
    --------------------------------------------
      LOOP:  cpu time      1.1496: real time      1.1552

 eigenvalue-minimisations  :    72
 total energy-change (2. order) :-0.3825516E-03  (-0.2818189E-05)
 number of electron      22.0000000 magnetization 
 augmentation part        0.5084840 magnetization 

 Broyden mixing:
  rms(total) = 0.33578E-03    rms(broyden)= 0.33572E-03
  rms(prec ) = 0.55867E-03
  weight for this iteration     100.00

 eigenvalues of (default mixing * dielectric matrix)
  average eigenvalue GAMMA=   2.2324
  8.2395  4.8931  2.7329  2.4457  1.5745  1.5745  1.5610  1.1433  1.1433  0.9658
  0.9658  0.8617  0.9196

 Free energy of the ion-electron system (eV)
  ---------------------------------------------------
  alpha Z        PSCENC =         0.62641250
  Ewald energy   TEWEN  =       900.31640212
  -Hartree energ DENC   =     -1430.79169148
  -exchange      EXHF   =         0.00000000
  -V(xc)+E(xc)   XCENC  =        73.27972948
  PAW double counting   =       311.74570172     -317.13069240
  entropy T*S    EENTRO =        -0.00000000
  eigenvalues    EBANDS =      -257.71177466
  atomic energy  EATOM  =       663.51739852
  Solvation  Ediel_sol  =         0.00000000
  ---------------------------------------------------
  free energy    TOTEN  =       -56.14851420 eV

  energy without entropy =      -56.14851420  energy(sigma->0) =      -56.14851420


--------------------------------------------------------------------------------------------------------




--------------------------------------- Iteration      1(  19)  ---------------------------------------


    POTLOK:  cpu time      0.3021: real time      0.3038
    SETDIJ:  cpu time      0.1912: real time      0.1920
     EDDAV:  cpu time      0.4076: real time      0.4098
       DOS:  cpu time      0.0001: real time      0.0001
    CHARGE:  cpu time      0.1950: real time      0.1957
    MIXING:  cpu time      0.0139: real time      0.0140
    --------------------------------------------
      LOOP:  cpu time      1.1100: real time      1.1154

 eigenvalue-minimisations  :    64
 total energy-change (2. order) :-0.2103133E-03  (-0.9888613E-06)
 number of electron      22.0000000 magnetization 
 augmentation part        0.5084970 magnetization 

 Broyden mixing:
  rms(total) = 0.18439E-03    rms(broyden)= 0.18433E-03
  rms(prec ) = 0.30324E-03
  weight for this iteration     100.00

 eigenvalues of (default mixing * dielectric matrix)
  average eigenvalue GAMMA=   2.2422
  8.5250  5.2045  3.0883  2.4175  2.0612  1.4774  1.2040  1.2040  1.3345  1.0272
  1.0272  0.8834  0.9682  0.9682

 Free energy of the ion-electron system (eV)
  ---------------------------------------------------
  alpha Z        PSCENC =         0.62641250
  Ewald energy   TEWEN  =       900.31640212
  -Hartree energ DENC   =     -1430.77498109
  -exchange      EXHF   =         0.00000000
  -V(xc)+E(xc)   XCENC  =        73.27842264
  PAW double counting   =       311.70883954     -317.09381578
  entropy T*S    EENTRO =        -0.00000000
  eigenvalues    EBANDS =      -257.72740297
  atomic energy  EATOM  =       663.51739852
  Solvation  Ediel_sol  =         0.00000000
  ---------------------------------------------------
  free energy    TOTEN  =       -56.14872451 eV

  energy without entropy =      -56.14872451  energy(sigma->0) =      -56.14872451


--------------------------------------------------------------------------------------------------------




--------------------------------------- Iteration      1(  20)  ---------------------------------------


    POTLOK:  cpu time      0.3055: real time      0.3072
    SETDIJ:  cpu time      0.1921: real time      0.1929
     EDDAV:  cpu time      0.3672: real time      0.3692
       DOS:  cpu time      0.0001: real time      0.0001
    CHARGE:  cpu time      0.1959: real time      0.1967
    MIXING:  cpu time      0.0128: real time      0.0129
    --------------------------------------------
      LOOP:  cpu time      1.0737: real time      1.0791

 eigenvalue-minimisations  :    56
 total energy-change (2. order) :-0.6932221E-04  (-0.2016566E-06)
 number of electron      22.0000000 magnetization 
 augmentation part        0.5084978 magnetization 

 Broyden mixing:
  rms(total) = 0.91632E-04    rms(broyden)= 0.91533E-04
  rms(prec ) = 0.17291E-03
  weight for this iteration     100.00

 eigenvalues of (default mixing * dielectric matrix)
  average eigenvalue GAMMA=   2.3285
  8.8683  5.5644  3.7735  2.5913  2.2902  1.6833  1.6833  1.1944  1.1944  1.1698
  1.1698  0.9683  0.9683  0.8801  0.9284

 Free energy of the ion-electron system (eV)
  ---------------------------------------------------
  alpha Z        PSCENC =         0.62641250
  Ewald energy   TEWEN  =       900.31640212
  -Hartree energ DENC   =     -1430.77999514
  -exchange      EXHF   =         0.00000000
  -V(xc)+E(xc)   XCENC  =        73.27851542
  PAW double counting   =       311.70888021     -317.09383134
  entropy T*S    EENTRO =        -0.00000000
  eigenvalues    EBANDS =      -257.72257613
  atomic energy  EATOM  =       663.51739852
  Solvation  Ediel_sol  =         0.00000000
  ---------------------------------------------------
  free energy    TOTEN  =       -56.14879384 eV

  energy without entropy =      -56.14879384  energy(sigma->0) =      -56.14879384


--------------------------------------------------------------------------------------------------------




--------------------------------------- Iteration      1(  21)  ---------------------------------------


    POTLOK:  cpu time      0.3112: real time      0.3130
    SETDIJ:  cpu time      0.1916: real time      0.1925
     EDDAV:  cpu time      0.3710: real time      0.3730
       DOS:  cpu time      0.0001: real time      0.0001
    CHARGE:  cpu time      0.1963: real time      0.1971
    MIXING:  cpu time      0.0131: real time      0.0131
    --------------------------------------------
      LOOP:  cpu time      1.0834: real time      1.0889

 eigenvalue-minimisations  :    56
 total energy-change (2. order) :-0.4883607E-04  (-0.1215386E-06)
 number of electron      22.0000000 magnetization 
 augmentation part        0.5084980 magnetization 

 Broyden mixing:
  rms(total) = 0.79413E-04    rms(broyden)= 0.79301E-04
  rms(prec ) = 0.11101E-03
  weight for this iteration     100.00

 eigenvalues of (default mixing * dielectric matrix)
  average eigenvalue GAMMA=   2.2812
  8.8971  5.7021  3.9071  2.5276  2.4542  1.8819  1.4846  1.2341  1.2341  1.3096
  1.0657  1.0657  0.9702  0.9702  0.8828  0.9123

 Free energy of the ion-electron system (eV)
  ---------------------------------------------------
  alpha Z        PSCENC =         0.62641250
  Ewald energy   TEWEN  =       900.31640212
  -Hartree energ DENC   =     -1430.78565038
  -exchange      EXHF   =         0.00000000
  -V(xc)+E(xc)   XCENC  =        73.27850637
  PAW double counting   =       311.71249238     -317.09746991
  entropy T*S    EENTRO =        -0.00000000
  eigenvalues    EBANDS =      -257.71693427
  atomic energy  EATOM  =       663.51739852
  Solvation  Ediel_sol  =         0.00000000
  ---------------------------------------------------
  free energy    TOTEN  =       -56.14884267 eV

  energy without entropy =      -56.14884267  energy(sigma->0) =      -56.14884267


--------------------------------------------------------------------------------------------------------




--------------------------------------- Iteration      1(  22)  ---------------------------------------


    POTLOK:  cpu time      0.3134: real time      0.3151
    SETDIJ:  cpu time      0.1927: real time      0.1935
     EDDAV:  cpu time      0.3700: real time      0.3720
       DOS:  cpu time      0.0001: real time      0.0001
    CHARGE:  cpu time      0.1964: real time      0.1972
    MIXING:  cpu time      0.0132: real time      0.0133
    --------------------------------------------
      LOOP:  cpu time      1.0859: real time      1.0911

 eigenvalue-minimisations  :    56
 total energy-change (2. order) :-0.9711244E-05  (-0.1440256E-07)
 number of electron      22.0000000 magnetization 
 augmentation part        0.5084993 magnetization 

 Broyden mixing:
  rms(total) = 0.38122E-04    rms(broyden)= 0.37905E-04
  rms(prec ) = 0.59643E-04
  weight for this iteration     100.00

 eigenvalues of (default mixing * dielectric matrix)
  average eigenvalue GAMMA=   2.3599
  8.9961  6.1693  4.4025  3.0320  2.4740  1.9338  1.9338  1.5580  1.3122  1.3122
  1.1220  1.1220  0.9809  0.9809  0.8773  0.9557  0.9557

 Free energy of the ion-electron system (eV)
  ---------------------------------------------------
  alpha Z        PSCENC =         0.62641250
  Ewald energy   TEWEN  =       900.31640212
  -Hartree energ DENC   =     -1430.78528108
  -exchange      EXHF   =         0.00000000
  -V(xc)+E(xc)   XCENC  =        73.27845894
  PAW double counting   =       311.71293822     -317.09788427
  entropy T*S    EENTRO =        -0.00000000
  eigenvalues    EBANDS =      -257.71729734
  atomic energy  EATOM  =       663.51739852
  Solvation  Ediel_sol  =         0.00000000
  ---------------------------------------------------
  free energy    TOTEN  =       -56.14885238 eV

  energy without entropy =      -56.14885238  energy(sigma->0) =      -56.14885238


--------------------------------------------------------------------------------------------------------




--------------------------------------- Iteration      1(  23)  ---------------------------------------


    POTLOK:  cpu time      0.3119: real time      0.3135
    SETDIJ:  cpu time      0.1923: real time      0.1931
     EDDAV:  cpu time      0.3693: real time      0.3713
       DOS:  cpu time      0.0001: real time      0.0001
    CHARGE:  cpu time      0.1953: real time      0.1961
    MIXING:  cpu time      0.0140: real time      0.0140
    --------------------------------------------
      LOOP:  cpu time      1.0829: real time      1.0882

 eigenvalue-minimisations  :    56
 total energy-change (2. order) :-0.8101853E-05  (-0.1879629E-07)
 number of electron      22.0000000 magnetization 
 augmentation part        0.5084989 magnetization 

 Broyden mixing:
  rms(total) = 0.37614E-04    rms(broyden)= 0.37393E-04
  rms(prec ) = 0.47757E-04
  weight for this iteration     100.00

 eigenvalues of (default mixing * dielectric matrix)
  average eigenvalue GAMMA=   2.3333
  9.0890  6.3402  4.6589  3.1606  2.3419  2.3086  1.8049  1.5467  1.2918  1.2918
  1.1311  1.1311  1.0722  1.0722  0.9798  0.9798  0.9227  0.8768

 Free energy of the ion-electron system (eV)
  ---------------------------------------------------
  alpha Z        PSCENC =         0.62641250
  Ewald energy   TEWEN  =       900.31640212
  -Hartree energ DENC   =     -1430.78695626
  -exchange      EXHF   =         0.00000000
  -V(xc)+E(xc)   XCENC  =        73.27846644
  PAW double counting   =       311.71414143     -317.09909783
  entropy T*S    EENTRO =        -0.00000000
  eigenvalues    EBANDS =      -257.71562741
  atomic energy  EATOM  =       663.51739852
  Solvation  Ediel_sol  =         0.00000000
  ---------------------------------------------------
  free energy    TOTEN  =       -56.14886049 eV

  energy without entropy =      -56.14886049  energy(sigma->0) =      -56.14886049


--------------------------------------------------------------------------------------------------------




--------------------------------------- Iteration      1(  24)  ---------------------------------------


    POTLOK:  cpu time      0.3100: real time      0.3116
    SETDIJ:  cpu time      0.1908: real time      0.1917
     EDDAV:  cpu time      0.3677: real time      0.3697
       DOS:  cpu time      0.0001: real time      0.0001
    CHARGE:  cpu time      0.1955: real time      0.1963
    MIXING:  cpu time      0.0163: real time      0.0164
    --------------------------------------------
      LOOP:  cpu time      1.0804: real time      1.0857

 eigenvalue-minimisations  :    56
 total energy-change (2. order) :-0.1533249E-05  (-0.2937693E-08)
 number of electron      22.0000000 magnetization 
 augmentation part        0.5084987 magnetization 

 Broyden mixing:
  rms(total) = 0.13456E-04    rms(broyden)= 0.12836E-04
  rms(prec ) = 0.19534E-04
  weight for this iteration     100.00

 eigenvalues of (default mixing * dielectric matrix)
  average eigenvalue GAMMA=   2.3807
  9.1174  6.6981  4.9317  3.4429  2.5534  2.4510  1.9107  1.9107  1.3745  1.3745
  1.4136  1.1247  1.1247  1.0050  1.0050  0.9933  0.9933  0.8843  0.9251

 Free energy of the ion-electron system (eV)
  ---------------------------------------------------
  alpha Z        PSCENC =         0.62641250
  Ewald energy   TEWEN  =       900.31640212
  -Hartree energ DENC   =     -1430.78743272
  -exchange      EXHF   =         0.00000000
  -V(xc)+E(xc)   XCENC  =        73.27846603
  PAW double counting   =       311.71384161     -317.09880686
  entropy T*S    EENTRO =        -0.00000000
  eigenvalues    EBANDS =      -257.71514322
  atomic energy  EATOM  =       663.51739852
  Solvation  Ediel_sol  =         0.00000000
  ---------------------------------------------------
  free energy    TOTEN  =       -56.14886202 eV

  energy without entropy =      -56.14886202  energy(sigma->0) =      -56.14886202


--------------------------------------------------------------------------------------------------------




--------------------------------------- Iteration      1(  25)  ---------------------------------------


    POTLOK:  cpu time      0.3154: real time      0.3170
    SETDIJ:  cpu time      0.1930: real time      0.1938
     EDDAV:  cpu time      0.2891: real time      0.2907
       DOS:  cpu time      0.0001: real time      0.0001
    CHARGE:  cpu time      0.1974: real time      0.1982
    MIXING:  cpu time      0.0153: real time      0.0153
    --------------------------------------------
      LOOP:  cpu time      1.0103: real time      1.0152

 eigenvalue-minimisations  :    40
 total energy-change (2. order) :-0.1508741E-05  (-0.4522621E-08)
 number of electron      22.0000000 magnetization 
 augmentation part        0.5084983 magnetization 

 Broyden mixing:
  rms(total) = 0.13720E-04    rms(broyden)= 0.13113E-04
  rms(prec ) = 0.17219E-04
  weight for this iteration     100.00

 eigenvalues of (default mixing * dielectric matrix)
  average eigenvalue GAMMA=   2.3580
  9.1767  6.8208  5.1068  3.6007  2.7662  2.4729  1.9260  1.9260  1.3282  1.3282
  1.4878  1.1435  1.1435  1.1137  1.1137  0.9723  0.9723  0.9406  0.9406  0.8803

 Free energy of the ion-electron system (eV)
  ---------------------------------------------------
  alpha Z        PSCENC =         0.62641250
  Ewald energy   TEWEN  =       900.31640212
  -Hartree energ DENC   =     -1430.78803054
  -exchange      EXHF   =         0.00000000
  -V(xc)+E(xc)   XCENC  =        73.27848576
  PAW double counting   =       311.71369466     -317.09865976
  entropy T*S    EENTRO =        -0.00000000
  eigenvalues    EBANDS =      -257.71456679
  atomic energy  EATOM  =       663.51739852
  Solvation  Ediel_sol  =         0.00000000
  ---------------------------------------------------
  free energy    TOTEN  =       -56.14886353 eV

  energy without entropy =      -56.14886353  energy(sigma->0) =      -56.14886353


--------------------------------------------------------------------------------------------------------




--------------------------------------- Iteration      1(  26)  ---------------------------------------


    POTLOK:  cpu time      0.3163: real time      0.3179
    SETDIJ:  cpu time      0.1915: real time      0.1923
     EDDAV:  cpu time      0.3694: real time      0.3713
       DOS:  cpu time      0.0001: real time      0.0001
    --------------------------------------------
      LOOP:  cpu time      0.8772: real time      0.8816

 eigenvalue-minimisations  :    56
 total energy-change (2. order) :-0.3972572E-06  (-0.6102443E-09)
 number of electron      22.0000000 magnetization 
 augmentation part        0.5084983 magnetization 

 Free energy of the ion-electron system (eV)
  ---------------------------------------------------
  alpha Z        PSCENC =         0.62641250
  Ewald energy   TEWEN  =       900.31640212
  -Hartree energ DENC   =     -1430.78807509
  -exchange      EXHF   =         0.00000000
  -V(xc)+E(xc)   XCENC  =        73.27848658
  PAW double counting   =       311.71353794     -317.09850032
  entropy T*S    EENTRO =        -0.00000000
  eigenvalues    EBANDS =      -257.71452618
  atomic energy  EATOM  =       663.51739852
  Solvation  Ediel_sol  =         0.00000000
  ---------------------------------------------------
  free energy    TOTEN  =       -56.14886392 eV

  energy without entropy =      -56.14886392  energy(sigma->0) =      -56.14886392


--------------------------------------------------------------------------------------------------------




 average (electrostatic) potential at core
  the test charge radii are     0.6991  0.5201
  (the norm of the test charge is              1.0000)
       1 -58.3563       2 -58.6445       3 -58.8556       4 -58.4233       5 -42.2504
       6 -41.4622       7 -42.0260       8 -42.5901       9 -42.4029      10 -42.1622
 
 
 
 E-fermi :  -5.6320     XC(G=0):  -0.4309     alpha+bet : -0.1681

 Fermi energy:        -5.6320392646

 k-point     1 :       0.0000    0.0000    0.0000
  band No.  band energies     occupation 
      1     -19.7528      2.00000
      2     -18.1234      2.00000
      3     -14.8471      2.00000
      4     -12.9807      2.00000
      5     -12.0415      2.00000
      6     -10.5408      2.00000
      7     -10.1755      2.00000
      8      -8.9660      2.00000
      9      -7.9180      2.00000
     10      -7.6074      2.00000
     11      -5.9040      2.00000
     12      -1.7406      0.00000
     13      -0.3236      0.00000
     14       0.0668      0.00000
     15       0.2531      0.00000
     16       0.3937      0.00000
     17       0.4678      0.00000
     18       0.5425      0.00000
     19       0.5754      0.00000
     20       0.6969      0.00000
     21       0.8902      0.00000
     22       0.9404      0.00000
     23       1.0272      0.00000
     24       1.1288      0.00000


--------------------------------------------------------------------------------------------------------


 soft charge-density along one line, spin component           1
         0         1         2         3         4         5         6         7         8         9
 total charge-density along one line
 
 pseudopotential strength for first ion, spin component:           1
 10.247   0.019  -0.004  -0.001  -0.000  -0.005  -0.002  -0.001
  0.019  -0.001   0.000   0.000   0.000  -0.000  -0.000  -0.000
 -0.004   0.000  -4.355  -0.009  -0.001  -0.021  -0.002  -0.000
 -0.001   0.000  -0.009  -4.355   0.002  -0.002  -0.021   0.001
 -0.000   0.000  -0.001   0.002  -4.331  -0.000   0.001  -0.015
 -0.005  -0.000  -0.021  -0.002  -0.000  -0.773  -0.000  -0.000
 -0.002  -0.000  -0.002  -0.021   0.001  -0.000  -0.772   0.000
 -0.001  -0.000  -0.000   0.001  -0.015  -0.000   0.000  -0.772
 total augmentation occupancy for first ion, spin component:           1
  1.512  -1.183   0.111   0.035   0.008   0.046   0.020   0.008
 -1.183   1.035  -0.182  -0.090  -0.042  -0.069  -0.037  -0.011
  0.111  -0.182   1.250   0.108   0.009   0.223   0.030   0.006
  0.035  -0.090   0.108   1.267  -0.025   0.030   0.223  -0.012
  0.008  -0.042   0.009  -0.025   0.940   0.006  -0.012   0.102
  0.046  -0.069   0.223   0.030   0.006   0.043   0.008   0.002
  0.020  -0.037   0.030   0.223  -0.012   0.008   0.042  -0.003
  0.008  -0.011   0.006  -0.012   0.102   0.002  -0.003   0.012


------------------------ aborting loop because EDIFF is reached ----------------------------------------


    CHARGE:  cpu time      0.1967: real time      0.1975
    FORLOC:  cpu time      0.0327: real time      0.0328
    FORNL :  cpu time      1.0734: real time      1.0784
    STRESS:  cpu time      3.3999: real time      3.4156
    FORHAR:  cpu time      0.1102: real time      0.1107
    MIXING:  cpu time      0.0124: real time      0.0124
    OFIELD:  cpu time      0.0001: real time      0.0001

  FORCE on cell =-STRESS in cart. coord.  units (eV):
  Direction    XX          YY          ZZ          XY          YZ          ZX
  --------------------------------------------------------------------------------------
  Alpha Z     0.62641     0.62641     0.62641
  Ewald    -147.13887   398.93075   648.52423   147.93236    25.49949  -118.75452
  Hartree   232.88481   483.92218   713.98108    69.84203     2.42963   -80.35709
  E(xc)     -78.25273   -76.30425   -76.25369     0.50793     0.08092    -0.21627
  Local    -308.79542 -1065.01338 -1549.97906  -207.56834   -22.67012   197.18130
  n-local   -29.47296   -32.30577   -31.77719    -0.75829    -0.21492     0.11769
  augment    -0.53440    -0.77296    -0.73265    -0.05773    -0.04479     0.00454
  Kinetic   330.59927   294.31833   298.09851    -9.72791    -0.69804     2.46373
  Fock        0.00000     0.00000     0.00000     0.00000     0.00000     0.00000
  -------------------------------------------------------------------------------------
  Total      -0.08389     3.40131     2.48765     0.17004     4.38217     0.43938
  in kB      -0.03982     1.61467     1.18094     0.08072     2.08030     0.20858
  external pressure =        0.92 kB  Pullay stress =        0.00 kB


 VOLUME and BASIS-vectors are now :
 -----------------------------------------------------------------------------
  energy-cutoff  :      520.00
  volume of cell :     3375.00
      direct lattice vectors                 reciprocal lattice vectors
    15.000000000  0.000000000  0.000000000     0.066666667  0.000000000  0.000000000
     0.000000000 15.000000000  0.000000000     0.000000000  0.066666667  0.000000000
     0.000000000  0.000000000 15.000000000     0.000000000  0.000000000  0.066666667

  length of vectors
    15.000000000 15.000000000 15.000000000     0.066666667  0.066666667  0.066666667


 FORCES acting on ions
    electron-ion (+dipol)            ewald-force                    non-local-force                 convergence-correction
 -----------------------------------------------------------------------------------------------
   -.248E+00 0.101E+03 0.123E+03   -.194E+00 -.106E+03 -.124E+03   0.554E+00 -.113E+01 0.553E+00   -.163E-05 -.337E-04 -.107E-04
   -.216E+02 -.107E+03 0.170E+02   0.218E+02 0.110E+03 -.135E+02   -.606E+00 0.105E+01 0.182E+01   -.523E-05 0.299E-04 0.859E-04
   -.303E+02 -.972E+02 -.551E+02   0.301E+02 0.960E+02 0.536E+02   -.664E+00 -.180E+01 -.225E+01   -.176E-04 -.243E-04 0.437E-04
   0.485E+02 0.913E+02 -.907E+02   -.482E+02 -.903E+02 0.906E+02   0.537E+00 0.127E+01 0.345E+00   0.226E-04 0.537E-04 -.217E-04
   -.109E+02 0.855E+00 0.699E+02   0.120E+02 -.120E+00 -.775E+02   -.114E+01 -.850E+00 0.615E+01   0.183E-05 -.152E-05 -.597E-05
   0.204E+00 0.626E+02 0.103E+01   -.401E+00 -.656E+02 -.568E-01   0.242E+00 0.448E+01 -.172E+01   -.109E-05 -.100E-04 0.547E-05
   -.780E+01 -.651E+02 0.315E+02   0.850E+01 0.712E+02 -.342E+02   -.529E+00 -.529E+01 0.270E+01   0.104E-05 0.136E-04 0.154E-06
   -.176E+02 -.569E+02 -.415E+02   0.196E+02 0.631E+02 0.459E+02   -.157E+01 -.508E+01 -.364E+01   -.847E-05 -.248E-04 -.182E-04
   0.299E+02 0.581E+02 0.121E+02   -.325E+02 -.641E+02 -.164E+02   0.235E+01 0.502E+01 0.315E+01   0.681E-05 0.149E-04 0.984E-05
   0.999E+01 0.140E+02 -.678E+02   -.107E+02 -.147E+02 0.756E+02   0.548E+00 0.561E+00 -.626E+01   0.232E-05 0.276E-05 -.268E-04
 -----------------------------------------------------------------------------------------------
   0.258E+00 0.177E+01 -.866E+00   -.107E-13 0.675E-13 -.426E-13   -.271E+00 -.177E+01 0.855E+00   0.566E-06 0.206E-04 0.617E-04
 
 
 POSITION                                       TOTAL-FORCE (eV/Angst)
 -----------------------------------------------------------------------------------
      7.71700      7.16100      6.01400         0.113076     -5.443659     -0.822394
      7.75100      8.16600      6.78100        -0.386364      3.796632      5.333969
      7.57900      8.13800      8.37100        -0.822544     -2.945350     -3.704900
      7.06100      6.99300      8.88400         0.856628      2.357572      0.205167
      7.89600      7.29400      4.98500        -0.024734     -0.114790     -1.443554
      7.64900      6.08400      6.42000         0.046852      1.473825     -0.745391
      7.85200      9.12700      6.31100         0.178838      0.813487      0.040311
      7.84100      8.96900      8.95800         0.488403      1.105102      0.712961
      6.68700      6.17000      8.34800        -0.280985     -0.959743     -1.094829
      6.96700      6.89800      9.92800        -0.169170     -0.083075      1.518660
 -----------------------------------------------------------------------------------
    total drift:                               -0.012912     -0.004464     -0.010795


--------------------------------------------------------------------------------------------------------



  FREE ENERGIE OF THE ION-ELECTRON SYSTEM (eV)
  ---------------------------------------------------
  free  energy   TOTEN  =       -56.14886392 eV

  energy  without entropy=      -56.14886392  energy(sigma->0) =      -56.14886392
 


--------------------------------------------------------------------------------------------------------


    POTLOK:  cpu time      0.5088: real time      0.5113


--------------------------------------------------------------------------------------------------------


 stress matrix after NEB project (eV)
     -0.08389      0.17004      0.43938
      0.17004      3.40131      4.38217
      0.43938      4.38217      2.48765
  FORCES: max atom, RMS     6.558576    3.387936
  FORCE total and by dimension   10.713593    5.443659
  Stress total and by dimension    7.524302    4.382170
     LOOP+:  cpu time     31.4539: real time     31.6088
    4ORBIT:  cpu time      0.0000: real time      0.0000

 total amount of memory used by VASP MPI-rank0   224777. kBytes
=======================================================================

   base      :      30000. kBytes
   nonlr-proj:       1253. kBytes
   fftplans  :     123538. kBytes
   grid      :      67787. kBytes
   one-center:         15. kBytes
   wavefun   :       2184. kBytes
 
  
  
 General timing and accounting informations for this job:
 ========================================================
  
                  Total CPU time used (sec):       38.050
                            User time (sec):       34.750
                          System time (sec):        3.299
                         Elapsed time (sec):       39.612
  
                   Maximum memory used (kb):      550832.
                   Average memory used (kb):          N/A
  
                          Minor page faults:       179595
                          Major page faults:         5445
                 Voluntary context switches:         3095
