 vasp.6.4.2 20Jul23 (build Apr 10 2024 13:39:58) complex                        
  
 executed on             LinuxIFC date 2024.05.17  23:43:18
 running   16 mpi-ranks, on    1 nodes
 distrk:  each k-point on   16 cores,    1 groups
 distr:  one band on NCORE=   2 cores,    8 groups


--------------------------------------------------------------------------------------------------------


 INCAR:
   ISTART = 0
   ISPIN = 1
   LREAL = Auto
   ENCUT = 520
   NPAR = 8
   LPLANE = .TRUE.
   LSCALU = .FALSE.
   NSIM = 4
   LWAVE = .FALSE.
   LCHARG = .FALSE.
   ADDGRID = .TRUE.
   LASPH = .TRUE.
   PREC = Accurate
   ISMEAR = 0
   SIGMA = 0.05
   EDIFF = 1E-06
   NSW = 0
   TEBEG = 300
   TEEND = 700     	
   ISYM = 0
   NWRITE = 2

 POTCAR:   PAW_PBE C 08Apr2002                    
 POTCAR:   PAW_PBE H 15Jun2001                    
 POTCAR:   PAW_PBE C 08Apr2002                    
   VRHFIN =C: s2p2                                                                                  
   LEXCH  = PE                                                                                      
   EATOM  =   147.1560 eV,   10.8157 Ry                                                             
                                                                                                    
   TITEL  = PAW_PBE C 08Apr2002                                                                     
   LULTRA =        F    use ultrasoft PP ?                                                          
   IUNSCR =        0    unscreen: 0-lin 1-nonlin 2-no                                               
   RPACOR =     .000    partial core radius                                                         
   POMASS =   12.011; ZVAL   =    4.000    mass and valenz                                          
   RCORE  =    1.500    outmost cutoff radius                                                       
   RWIGS  =    1.630; RWIGS  =     .863    wigner-seitz radius (au A)                               
   ENMAX  =  400.000; ENMIN  =  300.000 eV                                                          
   ICORE  =        2    local potential                                                             
   LCOR   =        T    correct aug charges                                                         
   LPAW   =        T    paw PP                                                                      
   EAUG   =  644.873                                                                                
   DEXC   =     .000                                                                                
   RMAX   =    2.266    core radius for proj-oper                                                   
   RAUG   =    1.300    factor for augmentation sphere                                              
   RDEP   =    1.501    radius for radial grids                                                     
   RDEPT  =    1.300    core radius for aug-charge                                                  
   QCUT   =   -5.516; QGAM   =   11.032    optimization parameters                                  
                                                                                                    
   Description                                                                                      
     l     E      TYP  RCUT    TYP  RCUT                                                            
     0   .000     23  1.200                                                                         
     0   .000     23  1.200                                                                         
     1   .000     23  1.500                                                                         
     1  2.500     23  1.500                                                                         
     2   .000      7  1.500                                                                         
  local pseudopotential read in
  atomic valenz-charges read in
  non local Contribution for L=           0  read in
    real space projection operators read in
  non local Contribution for L=           0  read in
    real space projection operators read in
  non local Contribution for L=           1  read in
    real space projection operators read in
  non local Contribution for L=           1  read in
    real space projection operators read in
    PAW grid and wavefunctions read in
 
   number of l-projection  operators is LMAX  =           4
   number of lm-projection operators is LMMAX =           8
 
 POTCAR:   PAW_PBE H 15Jun2001                    
   VRHFIN =H: ultrasoft test                                                                        
   LEXCH  = PE                                                                                      
   EATOM  =    12.4884 eV,     .9179 Ry                                                             
                                                                                                    
   TITEL  = PAW_PBE H 15Jun2001                                                                     
   LULTRA =        F    use ultrasoft PP ?                                                          
   IUNSCR =        0    unscreen: 0-lin 1-nonlin 2-no                                               
   RPACOR =     .000    partial core radius                                                         
   POMASS =    1.000; ZVAL   =    1.000    mass and valenz                                          
   RCORE  =    1.100    outmost cutoff radius                                                       
   RWIGS  =     .700; RWIGS  =     .370    wigner-seitz radius (au A)                               
   ENMAX  =  250.000; ENMIN  =  200.000 eV                                                          
   RCLOC  =     .701    cutoff for local pot                                                        
   LCOR   =        T    correct aug charges                                                         
   LPAW   =        T    paw PP                                                                      
   EAUG   =  400.000                                                                                
   RMAX   =    2.174    core radius for proj-oper                                                   
   RAUG   =    1.200    factor for augmentation sphere                                              
   RDEP   =    1.112    radius for radial grids                                                     
   QCUT   =   -5.749; QGAM   =   11.498    optimization parameters                                  
                                                                                                    
   Description                                                                                      
     l     E      TYP  RCUT    TYP  RCUT                                                            
     0   .000     23  1.100                                                                         
     0   .500     23  1.100                                                                         
     1  -.300     23  1.100                                                                         
  local pseudopotential read in
  atomic valenz-charges read in
  non local Contribution for L=           0  read in
    real space projection operators read in
  non local Contribution for L=           0  read in
    real space projection operators read in
  non local Contribution for L=           1  read in
    real space projection operators read in
    PAW grid and wavefunctions read in
 
   number of l-projection  operators is LMAX  =           3
   number of lm-projection operators is LMMAX =           5
 
 Optimization of the real space projectors (new method)

 maximal supplied QI-value         = 25.13
 optimisation between [QCUT,QGAM] = [ 11.56, 23.12] = [ 37.43,149.72] Ry 
 Optimized for a Real-space Cutoff    1.04 Angstroem

   l    n(q)    QCUT    max X(q) W(low)/X(q) W(high)/X(q)  e(spline) 
   0      7    11.561     5.582    0.47E-04    0.94E-04    0.17E-07
   0      7    11.561    69.432    0.20E-03    0.59E-03    0.21E-06
   1      7    11.561     2.780    0.24E-04    0.70E-04    0.44E-07
   1      7    11.561     4.549    0.18E-03    0.25E-03    0.12E-06
 Optimization of the real space projectors (new method)

 maximal supplied QI-value         = 34.20
 optimisation between [QCUT,QGAM] = [ 11.63, 23.26] = [ 37.87,151.49] Ry 
 Optimized for a Real-space Cutoff    1.21 Angstroem

   l    n(q)    QCUT    max X(q) W(low)/X(q) W(high)/X(q)  e(spline) 
   0      8    11.629     4.436    0.19E-04    0.32E-04    0.47E-07
   0      8    11.629    16.131    0.16E-03    0.33E-03    0.21E-06
   1      8    11.629     4.654    0.18E-03    0.16E-03    0.26E-06
 PAW_PBE C 08Apr2002                    :
 energy of atom  1       EATOM= -147.1560
 kinetic energy error for atom=    0.0071 (will be added to EATOM!!)
 PAW_PBE H 15Jun2001                    :
 energy of atom  2       EATOM=  -12.4884
 kinetic energy error for atom=    0.0014 (will be added to EATOM!!)
 
 
 POSCAR:  C  H
  positions in cartesian coordinates
  No initial velocities read in
 exchange correlation table for  LEXCH =        8
   RHO(1)=    0.500       N(1)  =     2000
   RHO(2)=  100.500       N(2)  =     4000

 VTST: version 4.1, (05/19/21)

 CHAIN: initializing optimizer
 
 OPT: Using VASP Dynamics algorithm
 CHAIN: Read ICHAIN            0
 
 POSCAR:  C  H
  positions in cartesian coordinates
  No initial velocities read in
 


--------------------------------------------------------------------------------------------------------


 ion  position               nearest neighbor table
   1  0.533  0.478  0.396-   5 1.10   6 1.11   2 1.32
   2  0.493  0.537  0.448-   7 1.14   1 1.32   3 1.52
   3  0.491  0.538  0.549-   8 1.13   4 1.38   2 1.52
   4  0.480  0.465  0.605-  10 1.06   9 1.09   3 1.38
   5  0.528  0.488  0.324-   1 1.10
   6  0.571  0.422  0.425-   1 1.11
   7  0.460  0.598  0.417-   2 1.14
   8  0.499  0.606  0.580-   3 1.13
   9  0.474  0.396  0.583-   4 1.09
  10  0.473  0.472  0.675-   4 1.06
 

IMPORTANT INFORMATION: All symmetrisations will be switched off!
NOSYMM: (Re-)initialisation of all symmetry stuff for point group C_1.


----------------------------------------------------------------------------------------

                                     Primitive cell                                     

  volume of cell :    3375.0000

  direct lattice vectors                    reciprocal lattice vectors
    15.000000000  0.000000000  0.000000000     0.066666667  0.000000000  0.000000000
     0.000000000 15.000000000  0.000000000     0.000000000  0.066666667  0.000000000
     0.000000000  0.000000000 15.000000000     0.000000000  0.000000000  0.066666667

  length of vectors
    15.000000000 15.000000000 15.000000000     0.066666667  0.066666667  0.066666667

  position of ions in fractional coordinates (direct lattice)
     0.532999992  0.478333346  0.395733325
     0.492666658  0.536733309  0.448266665
     0.490533320  0.537800026  0.549400012
     0.479666678  0.465200011  0.604600016
     0.527866681  0.488333321  0.323533344
     0.571066666  0.421800009  0.424733321
     0.459600004  0.597599983  0.416799990
     0.498600006  0.606200027  0.579533323
     0.473799992  0.396000004  0.582866669
     0.473200003  0.472066657  0.674533335

  ion indices of the primitive-cell ions
   primitive index   ion index
                 1           1
                 2           2
                 3           3
                 4           4
                 5           5
                 6           6
                 7           7
                 8           8
                 9           9
                10          10

----------------------------------------------------------------------------------------

 
 
 KPOINTS: K-Spacing Value to Generate K-Mesh: 1.00

Automatic generation of k-mesh.
 Grid dimensions read from file:
 generate k-points for:    1    1    1

 Generating k-lattice:

  Cartesian coordinates                     Fractional coordinates (reciprocal lattice)
     0.066666667  0.000000000  0.000000000     1.000000000  0.000000000  0.000000000
     0.000000000  0.066666667  0.000000000     0.000000000  1.000000000  0.000000000
     0.000000000  0.000000000  0.066666667     0.000000000  0.000000000  1.000000000

  Length of vectors
     0.066666667  0.066666667  0.066666667

  Shift w.r.t. Gamma in fractional coordinates (k-lattice)
     0.000000000  0.000000000  0.000000000

 
 Subroutine IBZKPT returns following result:
 ===========================================
 
 Found      1 irreducible k-points:
 
 Following reciprocal coordinates:
            Coordinates               Weight
  0.000000  0.000000  0.000000      1.000000
 
 Following cartesian coordinates:
            Coordinates               Weight
  0.000000  0.000000  0.000000      1.000000
 


--------------------------------------------------------------------------------------------------------




 Dimension of arrays:
   k-points           NKPTS =      1   k-points in BZ     NKDIM =      1   number of bands    NBANDS=     24
   number of dos      NEDOS =    301   number of ions     NIONS =     10
   non local maximal  LDIM  =      4   non local SUM 2l+1 LMDIM =      8
   total plane-waves  NPLWV = ******
   max r-space proj   IRMAX =   3145   max aug-charges    IRDMAX=  39494
   dimension x,y,z NGX =   112 NGY =  112 NGZ =  112
   dimension x,y,z NGXF=   224 NGYF=  224 NGZF=  224
   support grid    NGXF=   448 NGYF=  448 NGZF=  448
   ions per type =               4   6
   NGX,Y,Z   is equivalent  to a cutoff of  12.41, 12.41, 12.41 a.u.
   NGXF,Y,Z  is equivalent  to a cutoff of  24.83, 24.83, 24.83 a.u.

 SYSTEM =  unknown system                          
 POSCAR =   C  H                                   

 Startparameter for this run:
   NWRITE =      2    write-flag & timer
   PREC   = accura    normal or accurate (medium, high low for compatibility)
   ISTART =      0    job   : 0-new  1-cont  2-samecut
   ICHARG =      2    charge: 1-file 2-atom 10-const
   ISPIN  =      1    spin polarized calculation?
   LNONCOLLINEAR =      F non collinear calculations
   LSORBIT =      F    spin-orbit coupling
   INIWAV =      1    electr: 0-lowe 1-rand  2-diag
   LASPH  =      T    aspherical Exc in radial PAW
 Electronic Relaxation 1
   ENCUT  =  520.0 eV  38.22 Ry    6.18 a.u.  27.89 27.89 27.89*2*pi/ulx,y,z
   ENINI  =  520.0     initial cutoff
   ENAUG  =  644.9 eV  augmentation charge cutoff
   NELM   =     60;   NELMIN=  2; NELMDL= -5     # of ELM steps 
   EDIFF  = 0.1E-05   stopping-criterion for ELM
   LREAL  =      T    real-space projection
   NLSPLINE    = F    spline interpolate recip. space projectors
   LCOMPAT=      F    compatible to vasp.4.4
   GGA_COMPAT  = T    GGA compatible to vasp.4.4-vasp.4.6
   LMAXPAW     = -100 max onsite density
   LMAXMIX     =    2 max onsite mixed and CHGCAR
   VOSKOWN=      0    Vosko Wilk Nusair interpolation
   ROPT   =   -0.00025  -0.00025
 Ionic relaxation
   EDIFFG = 0.1E-04   stopping-criterion for IOM
   NSW    =      0    number of steps for IOM
   NBLOCK =      1;   KBLOCK =      1    inner block; outer block 
   IBRION =     -1    ionic relax: 0-MD 1-quasi-New 2-CG
   NFREE  =      0    steps in history (QN), initial steepest desc. (CG)
   ISIF   =      2    stress and relaxation
   IWAVPR =     10    prediction:  0-non 1-charg 2-wave 3-comb
   ISYM   =      0    0-nonsym 1-usesym 2-fastsym
   LCORR  =      T    Harris-Foulkes like correction to forces

   POTIM  = 0.5000    time-step for ionic-motion
   TEIN   =    0.0    initial temperature
   TEBEG  =  300.0;   TEEND  = 700.0 temperature during run
   SMASS  =  -3.00    Nose mass-parameter (am)
   estimated Nose-frequenzy (Omega)   =  0.10E-29 period in steps = 0.13E+47 mass=  -0.514E-26a.u.
   SCALEE = 1.0000    scale energy and forces
   NPACO  =    256;   APACO  = 10.0  distance and # of slots for P.C.
   PSTRESS=    0.0 pullay stress

  Mass of Ions in am
   POMASS =  12.01  1.00
  Ionic Valenz
   ZVAL   =   4.00  1.00
  Atomic Wigner-Seitz radii
   RWIGS  =  -1.00 -1.00
  virtual crystal weights 
   VCA    =   1.00  1.00
   NELECT =      22.0000    total number of electrons
   NUPDOWN=      -1.0000    fix difference up-down

 DOS related values:
   EMIN   =  10.00;   EMAX   =-10.00  energy-range for DOS
   EFERMI =   0.00;   METHOD = LEGACY      
   ISMEAR =     0;   SIGMA  =   0.05  broadening in eV -4-tet -1-fermi 0-gaus

 Electronic relaxation 2 (details)
   IALGO  =     38    algorithm
   LDIAG  =      T    sub-space diagonalisation (order eigenvalues)
   LSUBROT=      F    optimize rotation matrix (better conditioning)
   TURBO    =      0    0=normal 1=particle mesh
   IRESTART =      0    0=no restart 2=restart with 2 vectors
   NREBOOT  =      0    no. of reboots
   NMIN     =      0    reboot dimension
   EREF     =   0.00    reference energy to select bands
   IMIX   =      4    mixing-type and parameters
     AMIX     =   0.40;   BMIX     =  1.00
     AMIX_MAG =   1.60;   BMIX_MAG =  1.00
     AMIN     =   0.10
     WC   =   100.;   INIMIX=   1;  MIXPRE=   1;  MAXMIX= -45

 Intra band minimization:
   WEIMIN = 0.0000     energy-eigenvalue tresh-hold
   EBREAK =  0.10E-07  absolut break condition
   DEPER  =   0.30     relativ break condition  

   TIME   =   0.40     timestep for ELM

  volume/ion in A,a.u.               =     337.50      2277.56
  Fermi-wavevector in a.u.,A,eV,Ry     =   0.305814  0.577905  1.272449  0.093522
  Thomas-Fermi vector in A             =   1.179187
 
 Write flags
   LWAVE        =      F    write WAVECAR
   LDOWNSAMPLE  =      F    k-point downsampling of WAVECAR
   LCHARG       =      F    write CHGCAR
   LVTOT        =      F    write LOCPOT, total local potential
   LVHAR        =      F    write LOCPOT, Hartree potential only
   LELF         =      F    write electronic localiz. function (ELF)
   LORBIT       =      0    0 simple, 1 ext, 2 COOP (PROOUT), +10 PAW based schemes


 Dipole corrections
   LMONO  =      F    monopole corrections only (constant potential shift)
   LDIPOL =      F    correct potential (dipole corrections)
   IDIPOL =      0    1-x, 2-y, 3-z, 4-all directions 
   EPSILON=  1.0000000 bulk dielectric constant

 Exchange correlation treatment:
   GGA     =    --    GGA type
   LEXCH   =     8    internal setting for exchange type
   LIBXC   =     F    Libxc                    
   VOSKOWN =     0    Vosko Wilk Nusair interpolation
   LHFCALC =     F    Hartree Fock is set to
   LHFONE  =     F    Hartree Fock one center treatment
   AEXX    =    0.0000 exact exchange contribution

 Linear response parameters
   LEPSILON=     F    determine dielectric tensor
   LRPA    =     F    only Hartree local field effects (RPA)
   LNABLA  =     F    use nabla operator in PAW spheres
   LVEL    =     F    velocity operator in full k-point grid
   CSHIFT  =0.1000    complex shift for real part using Kramers Kronig
   OMEGAMAX=  -1.0    maximum frequency
   DEG_THRESHOLD= 0.2000000E-02 threshold for treating states as degnerate
   RTIME   =   -0.100 relaxation time in fs
  (WPLASMAI=    0.000 imaginary part of plasma frequency in eV, 0.658/RTIME)
   DFIELD  = 0.0000000 0.0000000 0.0000000 field for delta impulse in time
 
  Optional k-point grid parameters
   LKPOINTS_OPT  =     F    use optional k-point grid
   KPOINTS_OPT_MODE=     1    mode for optional k-point grid
 
 Orbital magnetization related:
   ORBITALMAG=     F  switch on orbital magnetization
   LCHIMAG   =     F  perturbation theory with respect to B field
   DQ        =  0.001000  dq finite difference perturbation B field
   LLRAUG    =     F  two centre corrections for induced B field
   LBONE     =     F  B-component reconstruction in AE one-centre
   LVGVCALC  =     T  calculate vGv susceptibility
   LVGVAPPL  =     F  apply vGv susceptibility instead of pGv for G=0

 Random number generation:
   RANDOM_GENERATOR = DEFAULT
   PCG_SEED         = not used


--------------------------------------------------------------------------------------------------------


 Static calculation
 charge density and potential will be updated during run
 non-spin polarized calculation
 Variant of blocked Davidson
 Davidson routine will perform the subspace rotation
 perform sub-space diagonalisation
    after iterative eigenvector-optimisation
 modified Broyden-mixing scheme, WC =      100.0
 initial mixing is a Kerker type mixing with AMIX =  0.4000 and BMIX =      1.0000
 Hartree-type preconditioning will be used
 using additional bands           13
 real space projection scheme for non local part
 calculate Harris-corrections to forces 
   (improved forces if not selfconsistent)
 use gradient corrections 
 use of overlap-Matrix (Vanderbilt PP)
 Gauss-broadening in eV      SIGMA  =   0.05


--------------------------------------------------------------------------------------------------------


  energy-cutoff  :      520.00
  volume of cell :     3375.00
      direct lattice vectors                 reciprocal lattice vectors
    15.000000000  0.000000000  0.000000000     0.066666667  0.000000000  0.000000000
     0.000000000 15.000000000  0.000000000     0.000000000  0.066666667  0.000000000
     0.000000000  0.000000000 15.000000000     0.000000000  0.000000000  0.066666667

  length of vectors
    15.000000000 15.000000000 15.000000000     0.066666667  0.066666667  0.066666667


 
 k-points in units of 2pi/SCALE and weight: K-Spacing Value to Generate K-Mesh: 1.00
   0.00000000  0.00000000  0.00000000       1.000
 
 k-points in reciprocal lattice and weights: K-Spacing Value to Generate K-Mesh: 1.00
   0.00000000  0.00000000  0.00000000       1.000
 
 position of ions in fractional coordinates (direct lattice) 
   0.53299999  0.47833335  0.39573332
   0.49266666  0.53673331  0.44826667
   0.49053332  0.53780003  0.54940001
   0.47966668  0.46520001  0.60460002
   0.52786668  0.48833332  0.32353334
   0.57106667  0.42180001  0.42473332
   0.45960000  0.59759998  0.41679999
   0.49860001  0.60620003  0.57953332
   0.47379999  0.39600000  0.58286667
   0.47320000  0.47206666  0.67453334
 
 position of ions in cartesian coordinates  (Angst):
   7.99499989  7.17500019  5.93599987
   7.38999987  8.05099964  6.72399998
   7.35799980  8.06700039  8.24100018
   7.19500017  6.97800016  9.06900024
   7.91800022  7.32499981  4.85300016
   8.56599998  6.32700014  6.37099981
   6.89400005  8.96399975  6.25199986
   7.47900009  9.09300041  8.69299984
   7.10699987  5.94000006  8.74300003
   7.09800005  7.08099985 10.11800003
 


--------------------------------------------------------------------------------------------------------


 k-point   1 :   0.0000 0.0000 0.0000  plane waves:   90879

 maximum and minimum number of plane-waves per node :     45467    45412

 maximum number of plane-waves:     90879
 maximum index in each direction: 
   IXMAX=   27   IYMAX=   27   IZMAX=   27
   IXMIN=  -27   IYMIN=  -27   IZMIN=  -27


 real space projection operators:
  total allocation   :       1183.80 KBytes
  max/ min on nodes  :        592.26        591.54


 parallel 3D FFT for wavefunctions:
    minimum data exchange during FFTs selected (reduces bandwidth)
 parallel 3D FFT for charge:
    minimum data exchange during FFTs selected (reduces bandwidth)


 total amount of memory used by VASP MPI-rank0   224779. kBytes
=======================================================================

   base      :      30000. kBytes
   nonlr-proj:       1255. kBytes
   fftplans  :     123538. kBytes
   grid      :      67787. kBytes
   one-center:         15. kBytes
   wavefun   :       2184. kBytes
 
     INWAV:  cpu time      0.0000: real time      0.0000
 Broyden mixing: mesh for mixing (old mesh)
   NGX = 55   NGY = 55   NGZ = 55
  (NGX  =224   NGY  =224   NGZ  =224)
  gives a total of 166375 points

 initial charge density was supplied:
 charge density of overlapping atoms calculated
 number of electron      22.0000000 magnetization 
 keeping initial charge density in first step


--------------------------------------------------------------------------------------------------------


 Maximum index for non-local projection operator         1513
 Maximum index for augmentation-charges         2494 (set IRDMAX)


--------------------------------------------------------------------------------------------------------


 First call to EWALD:  gamma=   0.118
 Maximum number of real-space cells 3x 3x 3
 Maximum number of reciprocal cells 3x 3x 3

    FEWALD:  cpu time      0.0013: real time      0.0013


--------------------------------------- Ionic step        1  -------------------------------------------




--------------------------------------- Iteration      1(   1)  ---------------------------------------


    POTLOK:  cpu time      0.3355: real time      0.3375
    SETDIJ:  cpu time      0.1930: real time      0.1938
     EDDAV:  cpu time      0.4194: real time      0.4219
       DOS:  cpu time      0.0002: real time      0.0002
    --------------------------------------------
      LOOP:  cpu time      0.9482: real time      0.9534

 eigenvalue-minimisations  :    64
 total energy-change (2. order) : 0.9915266E+02  (-0.5304825E+03)
 number of electron      22.0000000 magnetization 
 augmentation part       22.0000000 magnetization 

 Free energy of the ion-electron system (eV)
  ---------------------------------------------------
  alpha Z        PSCENC =         0.62641250
  Ewald energy   TEWEN  =       864.05429253
  -Hartree energ DENC   =     -1291.67193268
  -exchange      EXHF   =         0.00000000
  -V(xc)+E(xc)   XCENC  =        66.98031778
  PAW double counting   =       156.01372664     -160.66969168
  entropy T*S    EENTRO =        -0.00127816
  eigenvalues    EBANDS =      -199.69658620
  atomic energy  EATOM  =       663.51739852
  Solvation  Ediel_sol  =         0.00000000
  ---------------------------------------------------
  free energy    TOTEN  =        99.15265926 eV

  energy without entropy =       99.15393742  energy(sigma->0) =       99.15329834


--------------------------------------------------------------------------------------------------------




--------------------------------------- Iteration      1(   2)  ---------------------------------------


     EDDAV:  cpu time      0.4837: real time      0.4865
       DOS:  cpu time      0.0002: real time      0.0002
    --------------------------------------------
      LOOP:  cpu time      0.4839: real time      0.4867

 eigenvalue-minimisations  :    80
 total energy-change (2. order) :-0.1224990E+03  (-0.1195890E+03)
 number of electron      22.0000000 magnetization 
 augmentation part       22.0000000 magnetization 

 Free energy of the ion-electron system (eV)
  ---------------------------------------------------
  alpha Z        PSCENC =         0.62641250
  Ewald energy   TEWEN  =       864.05429253
  -Hartree energ DENC   =     -1291.67193268
  -exchange      EXHF   =         0.00000000
  -V(xc)+E(xc)   XCENC  =        66.98031778
  PAW double counting   =       156.01372664     -160.66969168
  entropy T*S    EENTRO =        -0.00000000
  eigenvalues    EBANDS =      -322.19687537
  atomic energy  EATOM  =       663.51739852
  Solvation  Ediel_sol  =         0.00000000
  ---------------------------------------------------
  free energy    TOTEN  =       -23.34635175 eV

  energy without entropy =      -23.34635175  energy(sigma->0) =      -23.34635175


--------------------------------------------------------------------------------------------------------




--------------------------------------- Iteration      1(   3)  ---------------------------------------


     EDDAV:  cpu time      0.4434: real time      0.4460
       DOS:  cpu time      0.0001: real time      0.0001
    --------------------------------------------
      LOOP:  cpu time      0.4435: real time      0.4461

 eigenvalue-minimisations  :    72
 total energy-change (2. order) :-0.3759918E+02  (-0.3752451E+02)
 number of electron      22.0000000 magnetization 
 augmentation part       22.0000000 magnetization 

 Free energy of the ion-electron system (eV)
  ---------------------------------------------------
  alpha Z        PSCENC =         0.62641250
  Ewald energy   TEWEN  =       864.05429253
  -Hartree energ DENC   =     -1291.67193268
  -exchange      EXHF   =         0.00000000
  -V(xc)+E(xc)   XCENC  =        66.98031778
  PAW double counting   =       156.01372664     -160.66969168
  entropy T*S    EENTRO =        -0.00000000
  eigenvalues    EBANDS =      -359.79605064
  atomic energy  EATOM  =       663.51739852
  Solvation  Ediel_sol  =         0.00000000
  ---------------------------------------------------
  free energy    TOTEN  =       -60.94552702 eV

  energy without entropy =      -60.94552702  energy(sigma->0) =      -60.94552702


--------------------------------------------------------------------------------------------------------




--------------------------------------- Iteration      1(   4)  ---------------------------------------


     EDDAV:  cpu time      0.4034: real time      0.4058
       DOS:  cpu time      0.0001: real time      0.0001
    --------------------------------------------
      LOOP:  cpu time      0.4035: real time      0.4059

 eigenvalue-minimisations  :    64
 total energy-change (2. order) :-0.2060610E+01  (-0.2057844E+01)
 number of electron      22.0000000 magnetization 
 augmentation part       22.0000000 magnetization 

 Free energy of the ion-electron system (eV)
  ---------------------------------------------------
  alpha Z        PSCENC =         0.62641250
  Ewald energy   TEWEN  =       864.05429253
  -Hartree energ DENC   =     -1291.67193268
  -exchange      EXHF   =         0.00000000
  -V(xc)+E(xc)   XCENC  =        66.98031778
  PAW double counting   =       156.01372664     -160.66969168
  entropy T*S    EENTRO =        -0.00000000
  eigenvalues    EBANDS =      -361.85666108
  atomic energy  EATOM  =       663.51739852
  Solvation  Ediel_sol  =         0.00000000
  ---------------------------------------------------
  free energy    TOTEN  =       -63.00613746 eV

  energy without entropy =      -63.00613746  energy(sigma->0) =      -63.00613746


--------------------------------------------------------------------------------------------------------




--------------------------------------- Iteration      1(   5)  ---------------------------------------


     EDDAV:  cpu time      0.4067: real time      0.4090
       DOS:  cpu time      0.0001: real time      0.0001
    CHARGE:  cpu time      0.2037: real time      0.2045
    MIXING:  cpu time      0.0076: real time      0.0077
    --------------------------------------------
      LOOP:  cpu time      0.6182: real time      0.6214

 eigenvalue-minimisations  :    64
 total energy-change (2. order) :-0.3464360E-01  (-0.3463168E-01)
 number of electron      22.0000000 magnetization 
 augmentation part        0.5727741 magnetization 

 Broyden mixing:
  rms(total) = 0.11711E+01    rms(broyden)= 0.11709E+01
  rms(prec ) = 0.14041E+01
  weight for this iteration     100.00

 Free energy of the ion-electron system (eV)
  ---------------------------------------------------
  alpha Z        PSCENC =         0.62641250
  Ewald energy   TEWEN  =       864.05429253
  -Hartree energ DENC   =     -1291.67193268
  -exchange      EXHF   =         0.00000000
  -V(xc)+E(xc)   XCENC  =        66.98031778
  PAW double counting   =       156.01372664     -160.66969168
  entropy T*S    EENTRO =        -0.00000000
  eigenvalues    EBANDS =      -361.89130469
  atomic energy  EATOM  =       663.51739852
  Solvation  Ediel_sol  =         0.00000000
  ---------------------------------------------------
  free energy    TOTEN  =       -63.04078107 eV

  energy without entropy =      -63.04078107  energy(sigma->0) =      -63.04078107


--------------------------------------------------------------------------------------------------------




--------------------------------------- Iteration      1(   6)  ---------------------------------------


    POTLOK:  cpu time      0.3090: real time      0.3107
    SETDIJ:  cpu time      0.1926: real time      0.1934
     EDDAV:  cpu time      0.4483: real time      0.4508
       DOS:  cpu time      0.0001: real time      0.0001
    CHARGE:  cpu time      0.1934: real time      0.1942
    MIXING:  cpu time      0.0143: real time      0.0143
    --------------------------------------------
      LOOP:  cpu time      1.1577: real time      1.1636

 eigenvalue-minimisations  :    72
 total energy-change (2. order) : 0.5038995E+01  (-0.7588845E+00)
 number of electron      22.0000000 magnetization 
 augmentation part        0.5250655 magnetization 

 Broyden mixing:
  rms(total) = 0.56529E+00    rms(broyden)= 0.56526E+00
  rms(prec ) = 0.67039E+00
  weight for this iteration     100.00

 eigenvalues of (default mixing * dielectric matrix)
  average eigenvalue GAMMA=   1.5873
  1.5873

 Free energy of the ion-electron system (eV)
  ---------------------------------------------------
  alpha Z        PSCENC =         0.62641250
  Ewald energy   TEWEN  =       864.05429253
  -Hartree energ DENC   =     -1337.12552034
  -exchange      EXHF   =         0.00000000
  -V(xc)+E(xc)   XCENC  =        69.38087579
  PAW double counting   =       227.11461472     -232.30531718
  entropy T*S    EENTRO =        -0.00000000
  eigenvalues    EBANDS =      -313.26454247
  atomic energy  EATOM  =       663.51739852
  Solvation  Ediel_sol  =         0.00000000
  ---------------------------------------------------
  free energy    TOTEN  =       -58.00178593 eV

  energy without entropy =      -58.00178593  energy(sigma->0) =      -58.00178593


--------------------------------------------------------------------------------------------------------




--------------------------------------- Iteration      1(   7)  ---------------------------------------


    POTLOK:  cpu time      0.3098: real time      0.3116
    SETDIJ:  cpu time      0.1915: real time      0.1924
     EDDAV:  cpu time      0.4078: real time      0.4101
       DOS:  cpu time      0.0001: real time      0.0001
    CHARGE:  cpu time      0.1950: real time      0.1958
    MIXING:  cpu time      0.0150: real time      0.0151
    --------------------------------------------
      LOOP:  cpu time      1.1194: real time      1.1250

 eigenvalue-minimisations  :    64
 total energy-change (2. order) : 0.1187565E+01  (-0.4062337E+00)
 number of electron      22.0000000 magnetization 
 augmentation part        0.4940879 magnetization 

 Broyden mixing:
  rms(total) = 0.22450E+00    rms(broyden)= 0.22443E+00
  rms(prec ) = 0.25798E+00
  weight for this iteration     100.00

 eigenvalues of (default mixing * dielectric matrix)
  average eigenvalue GAMMA=   1.5818
  1.4760  1.6876

 Free energy of the ion-electron system (eV)
  ---------------------------------------------------
  alpha Z        PSCENC =         0.62641250
  Ewald energy   TEWEN  =       864.05429253
  -Hartree energ DENC   =     -1373.58625349
  -exchange      EXHF   =         0.00000000
  -V(xc)+E(xc)   XCENC  =        71.47751897
  PAW double counting   =       285.24519144     -290.67792412
  entropy T*S    EENTRO =        -0.00000000
  eigenvalues    EBANDS =      -277.47085756
  atomic energy  EATOM  =       663.51739852
  Solvation  Ediel_sol  =         0.00000000
  ---------------------------------------------------
  free energy    TOTEN  =       -56.81422120 eV

  energy without entropy =      -56.81422120  energy(sigma->0) =      -56.81422120


--------------------------------------------------------------------------------------------------------




--------------------------------------- Iteration      1(   8)  ---------------------------------------


    POTLOK:  cpu time      0.3129: real time      0.3146
    SETDIJ:  cpu time      0.1908: real time      0.1916
     EDDAV:  cpu time      0.4487: real time      0.4512
       DOS:  cpu time      0.0001: real time      0.0001
    CHARGE:  cpu time      0.1934: real time      0.1943
    MIXING:  cpu time      0.0156: real time      0.0157
    --------------------------------------------
      LOOP:  cpu time      1.1616: real time      1.1675

 eigenvalue-minimisations  :    72
 total energy-change (2. order) : 0.1425875E+00  (-0.1863848E-01)
 number of electron      22.0000000 magnetization 
 augmentation part        0.4924949 magnetization 

 Broyden mixing:
  rms(total) = 0.92164E-01    rms(broyden)= 0.92158E-01
  rms(prec ) = 0.11631E+00
  weight for this iteration     100.00

 eigenvalues of (default mixing * dielectric matrix)
  average eigenvalue GAMMA=   1.6334
  2.4242  0.8719  1.6041

 Free energy of the ion-electron system (eV)
  ---------------------------------------------------
  alpha Z        PSCENC =         0.62641250
  Ewald energy   TEWEN  =       864.05429253
  -Hartree energ DENC   =     -1379.84325021
  -exchange      EXHF   =         0.00000000
  -V(xc)+E(xc)   XCENC  =        71.94565622
  PAW double counting   =       291.82515408     -297.17959106
  entropy T*S    EENTRO =        -0.00000000
  eigenvalues    EBANDS =      -271.61770631
  atomic energy  EATOM  =       663.51739852
  Solvation  Ediel_sol  =         0.00000000
  ---------------------------------------------------
  free energy    TOTEN  =       -56.67163373 eV

  energy without entropy =      -56.67163373  energy(sigma->0) =      -56.67163373


--------------------------------------------------------------------------------------------------------




--------------------------------------- Iteration      1(   9)  ---------------------------------------


    POTLOK:  cpu time      0.3145: real time      0.3162
    SETDIJ:  cpu time      0.1937: real time      0.1946
     EDDAV:  cpu time      0.3654: real time      0.3675
       DOS:  cpu time      0.0001: real time      0.0001
    CHARGE:  cpu time      0.1952: real time      0.1960
    MIXING:  cpu time      0.0142: real time      0.0142
    --------------------------------------------
      LOOP:  cpu time      1.0832: real time      1.0887

 eigenvalue-minimisations  :    56
 total energy-change (2. order) : 0.5007523E-01  (-0.7511449E-02)
 number of electron      22.0000000 magnetization 
 augmentation part        0.4910307 magnetization 

 Broyden mixing:
  rms(total) = 0.26819E-01    rms(broyden)= 0.26812E-01
  rms(prec ) = 0.49188E-01
  weight for this iteration     100.00

 eigenvalues of (default mixing * dielectric matrix)
  average eigenvalue GAMMA=   1.4155
  2.2768  1.6032  0.8909  0.8909

 Free energy of the ion-electron system (eV)
  ---------------------------------------------------
  alpha Z        PSCENC =         0.62641250
  Ewald energy   TEWEN  =       864.05429253
  -Hartree energ DENC   =     -1386.32920807
  -exchange      EXHF   =         0.00000000
  -V(xc)+E(xc)   XCENC  =        72.34102925
  PAW double counting   =       296.47547131     -301.77651247
  entropy T*S    EENTRO =        -0.00000000
  eigenvalues    EBANDS =      -265.53044206
  atomic energy  EATOM  =       663.51739852
  Solvation  Ediel_sol  =         0.00000000
  ---------------------------------------------------
  free energy    TOTEN  =       -56.62155849 eV

  energy without entropy =      -56.62155849  energy(sigma->0) =      -56.62155849


--------------------------------------------------------------------------------------------------------




--------------------------------------- Iteration      1(  10)  ---------------------------------------


    POTLOK:  cpu time      0.3153: real time      0.3170
    SETDIJ:  cpu time      0.1915: real time      0.1923
     EDDAV:  cpu time      0.4032: real time      0.4055
       DOS:  cpu time      0.0001: real time      0.0001
    CHARGE:  cpu time      0.1933: real time      0.1941
    MIXING:  cpu time      0.0151: real time      0.0152
    --------------------------------------------
      LOOP:  cpu time      1.1185: real time      1.1241

 eigenvalue-minimisations  :    64
 total energy-change (2. order) : 0.4027382E-02  (-0.1414429E-02)
 number of electron      22.0000000 magnetization 
 augmentation part        0.4900371 magnetization 

 Broyden mixing:
  rms(total) = 0.16805E-01    rms(broyden)= 0.16802E-01
  rms(prec ) = 0.36192E-01
  weight for this iteration     100.00

 eigenvalues of (default mixing * dielectric matrix)
  average eigenvalue GAMMA=   1.6340
  2.6317  2.2319  1.0345  1.0345  1.2374

 Free energy of the ion-electron system (eV)
  ---------------------------------------------------
  alpha Z        PSCENC =         0.62641250
  Ewald energy   TEWEN  =       864.05429253
  -Hartree energ DENC   =     -1388.24304871
  -exchange      EXHF   =         0.00000000
  -V(xc)+E(xc)   XCENC  =        72.36801677
  PAW double counting   =       296.19527007     -301.50728558
  entropy T*S    EENTRO =        -0.00000000
  eigenvalues    EBANDS =      -263.62858721
  atomic energy  EATOM  =       663.51739852
  Solvation  Ediel_sol  =         0.00000000
  ---------------------------------------------------
  free energy    TOTEN  =       -56.61753111 eV

  energy without entropy =      -56.61753111  energy(sigma->0) =      -56.61753111


--------------------------------------------------------------------------------------------------------




--------------------------------------- Iteration      1(  11)  ---------------------------------------


    POTLOK:  cpu time      0.3154: real time      0.3171
    SETDIJ:  cpu time      0.1930: real time      0.1938
     EDDAV:  cpu time      0.3664: real time      0.3684
       DOS:  cpu time      0.0001: real time      0.0001
    CHARGE:  cpu time      0.1942: real time      0.1949
    MIXING:  cpu time      0.0133: real time      0.0134
    --------------------------------------------
      LOOP:  cpu time      1.0824: real time      1.0878

 eigenvalue-minimisations  :    56
 total energy-change (2. order) : 0.1178094E-01  (-0.9905730E-03)
 number of electron      22.0000000 magnetization 
 augmentation part        0.4894672 magnetization 

 Broyden mixing:
  rms(total) = 0.76315E-02    rms(broyden)= 0.76308E-02
  rms(prec ) = 0.17565E-01
  weight for this iteration     100.00

 eigenvalues of (default mixing * dielectric matrix)
  average eigenvalue GAMMA=   1.6921
  3.1299  2.5137  1.4020  1.0166  1.0451  1.0451

 Free energy of the ion-electron system (eV)
  ---------------------------------------------------
  alpha Z        PSCENC =         0.62641250
  Ewald energy   TEWEN  =       864.05429253
  -Hartree energ DENC   =     -1393.05550065
  -exchange      EXHF   =         0.00000000
  -V(xc)+E(xc)   XCENC  =        72.49706987
  PAW double counting   =       294.92204088     -300.22071460
  entropy T*S    EENTRO =        -0.00000000
  eigenvalues    EBANDS =      -258.94674922
  atomic energy  EATOM  =       663.51739852
  Solvation  Ediel_sol  =         0.00000000
  ---------------------------------------------------
  free energy    TOTEN  =       -56.60575017 eV

  energy without entropy =      -56.60575017  energy(sigma->0) =      -56.60575017


--------------------------------------------------------------------------------------------------------




--------------------------------------- Iteration      1(  12)  ---------------------------------------


    POTLOK:  cpu time      0.3124: real time      0.3141
    SETDIJ:  cpu time      0.1912: real time      0.1920
     EDDAV:  cpu time      0.4473: real time      0.4498
       DOS:  cpu time      0.0001: real time      0.0001
    CHARGE:  cpu time      0.1927: real time      0.1935
    MIXING:  cpu time      0.0168: real time      0.0169
    --------------------------------------------
      LOOP:  cpu time      1.1605: real time      1.1664

 eigenvalue-minimisations  :    72
 total energy-change (2. order) :-0.1056664E-02  (-0.1682946E-03)
 number of electron      22.0000000 magnetization 
 augmentation part        0.4891174 magnetization 

 Broyden mixing:
  rms(total) = 0.65814E-02    rms(broyden)= 0.65811E-02
  rms(prec ) = 0.12276E-01
  weight for this iteration     100.00

 eigenvalues of (default mixing * dielectric matrix)
  average eigenvalue GAMMA=   1.8494
  4.1155  2.4604  1.9912  1.4478  0.9944  0.9944  0.9424

 Free energy of the ion-electron system (eV)
  ---------------------------------------------------
  alpha Z        PSCENC =         0.62641250
  Ewald energy   TEWEN  =       864.05429253
  -Hartree energ DENC   =     -1394.73600696
  -exchange      EXHF   =         0.00000000
  -V(xc)+E(xc)   XCENC  =        72.51990736
  PAW double counting   =       294.33748398     -299.63772076
  entropy T*S    EENTRO =        -0.00000000
  eigenvalues    EBANDS =      -257.28857400
  atomic energy  EATOM  =       663.51739852
  Solvation  Ediel_sol  =         0.00000000
  ---------------------------------------------------
  free energy    TOTEN  =       -56.60680684 eV

  energy without entropy =      -56.60680684  energy(sigma->0) =      -56.60680684


--------------------------------------------------------------------------------------------------------




--------------------------------------- Iteration      1(  13)  ---------------------------------------


    POTLOK:  cpu time      0.3106: real time      0.3123
    SETDIJ:  cpu time      0.1911: real time      0.1919
     EDDAV:  cpu time      0.4445: real time      0.4470
       DOS:  cpu time      0.0001: real time      0.0001
    CHARGE:  cpu time      0.1941: real time      0.1950
    MIXING:  cpu time      0.0164: real time      0.0165
    --------------------------------------------
      LOOP:  cpu time      1.1570: real time      1.1629

 eigenvalue-minimisations  :    72
 total energy-change (2. order) :-0.8397116E-02  (-0.1464186E-03)
 number of electron      22.0000000 magnetization 
 augmentation part        0.4891198 magnetization 

 Broyden mixing:
  rms(total) = 0.31065E-02    rms(broyden)= 0.31063E-02
  rms(prec ) = 0.67299E-02
  weight for this iteration     100.00

 eigenvalues of (default mixing * dielectric matrix)
  average eigenvalue GAMMA=   1.9473
  5.0018  2.6638  2.1413  1.4327  1.4327  0.9342  0.9860  0.9860

 Free energy of the ion-electron system (eV)
  ---------------------------------------------------
  alpha Z        PSCENC =         0.62641250
  Ewald energy   TEWEN  =       864.05429253
  -Hartree energ DENC   =     -1395.56597056
  -exchange      EXHF   =         0.00000000
  -V(xc)+E(xc)   XCENC  =        72.52506557
  PAW double counting   =       294.29211566     -299.59145853
  entropy T*S    EENTRO =        -0.00000000
  eigenvalues    EBANDS =      -256.47305964
  atomic energy  EATOM  =       663.51739852
  Solvation  Ediel_sol  =         0.00000000
  ---------------------------------------------------
  free energy    TOTEN  =       -56.61520395 eV

  energy without entropy =      -56.61520395  energy(sigma->0) =      -56.61520395


--------------------------------------------------------------------------------------------------------




--------------------------------------- Iteration      1(  14)  ---------------------------------------


    POTLOK:  cpu time      0.3173: real time      0.3190
    SETDIJ:  cpu time      0.1914: real time      0.1922
     EDDAV:  cpu time      0.4159: real time      0.4182
       DOS:  cpu time      0.0001: real time      0.0001
    CHARGE:  cpu time      0.1944: real time      0.1952
    MIXING:  cpu time      0.0160: real time      0.0160
    --------------------------------------------
      LOOP:  cpu time      1.1350: real time      1.1407

 eigenvalue-minimisations  :    64
 total energy-change (2. order) :-0.6483321E-02  (-0.8353163E-04)
 number of electron      22.0000000 magnetization 
 augmentation part        0.4890084 magnetization 

 Broyden mixing:
  rms(total) = 0.19990E-02    rms(broyden)= 0.19989E-02
  rms(prec ) = 0.40046E-02
  weight for this iteration     100.00

 eigenvalues of (default mixing * dielectric matrix)
  average eigenvalue GAMMA=   2.1222
  5.9794  3.3575  2.3413  1.8806  1.3500  1.3500  0.9665  0.9665  0.9084

 Free energy of the ion-electron system (eV)
  ---------------------------------------------------
  alpha Z        PSCENC =         0.62641250
  Ewald energy   TEWEN  =       864.05429253
  -Hartree energ DENC   =     -1395.94738250
  -exchange      EXHF   =         0.00000000
  -V(xc)+E(xc)   XCENC  =        72.51936550
  PAW double counting   =       294.40400793     -299.70456292
  entropy T*S    EENTRO =        -0.00000000
  eigenvalues    EBANDS =      -256.09121884
  atomic energy  EATOM  =       663.51739852
  Solvation  Ediel_sol  =         0.00000000
  ---------------------------------------------------
  free energy    TOTEN  =       -56.62168727 eV

  energy without entropy =      -56.62168727  energy(sigma->0) =      -56.62168727


--------------------------------------------------------------------------------------------------------




--------------------------------------- Iteration      1(  15)  ---------------------------------------


    POTLOK:  cpu time      0.3121: real time      0.3138
    SETDIJ:  cpu time      0.1902: real time      0.1910
     EDDAV:  cpu time      0.4159: real time      0.4182
       DOS:  cpu time      0.0001: real time      0.0001
    CHARGE:  cpu time      0.1932: real time      0.1939
    MIXING:  cpu time      0.0176: real time      0.0176
    --------------------------------------------
      LOOP:  cpu time      1.1290: real time      1.1347

 eigenvalue-minimisations  :    64
 total energy-change (2. order) :-0.4641084E-02  (-0.8082781E-04)
 number of electron      22.0000000 magnetization 
 augmentation part        0.4890402 magnetization 

 Broyden mixing:
  rms(total) = 0.14314E-02    rms(broyden)= 0.14313E-02
  rms(prec ) = 0.22340E-02
  weight for this iteration     100.00

 eigenvalues of (default mixing * dielectric matrix)
  average eigenvalue GAMMA=   2.1139
  6.4037  3.7034  2.3846  1.7318  1.4995  1.4995  0.9888  0.9888  0.9218  1.0170

 Free energy of the ion-electron system (eV)
  ---------------------------------------------------
  alpha Z        PSCENC =         0.62641250
  Ewald energy   TEWEN  =       864.05429253
  -Hartree energ DENC   =     -1395.94711727
  -exchange      EXHF   =         0.00000000
  -V(xc)+E(xc)   XCENC  =        72.50797108
  PAW double counting   =       294.39398952     -299.69282480
  entropy T*S    EENTRO =        -0.00000000
  eigenvalues    EBANDS =      -256.08645044
  atomic energy  EATOM  =       663.51739852
  Solvation  Ediel_sol  =         0.00000000
  ---------------------------------------------------
  free energy    TOTEN  =       -56.62632836 eV

  energy without entropy =      -56.62632836  energy(sigma->0) =      -56.62632836


--------------------------------------------------------------------------------------------------------




--------------------------------------- Iteration      1(  16)  ---------------------------------------


    POTLOK:  cpu time      0.3129: real time      0.3145
    SETDIJ:  cpu time      0.1937: real time      0.1945
     EDDAV:  cpu time      0.4990: real time      0.5018
       DOS:  cpu time      0.0001: real time      0.0001
    CHARGE:  cpu time      0.1949: real time      0.1956
    MIXING:  cpu time      0.0159: real time      0.0159
    --------------------------------------------
      LOOP:  cpu time      1.2165: real time      1.2226

 eigenvalue-minimisations  :    80
 total energy-change (2. order) :-0.9960941E-03  (-0.9393106E-05)
 number of electron      22.0000000 magnetization 
 augmentation part        0.4889627 magnetization 

 Broyden mixing:
  rms(total) = 0.79595E-03    rms(broyden)= 0.79584E-03
  rms(prec ) = 0.13287E-02
  weight for this iteration     100.00

 eigenvalues of (default mixing * dielectric matrix)
  average eigenvalue GAMMA=   2.2284
  7.6068  4.1631  2.4018  2.2040  1.5781  1.5781  1.0867  1.0867  0.9148  0.9460
  0.9460

 Free energy of the ion-electron system (eV)
  ---------------------------------------------------
  alpha Z        PSCENC =         0.62641250
  Ewald energy   TEWEN  =       864.05429253
  -Hartree energ DENC   =     -1396.02541431
  -exchange      EXHF   =         0.00000000
  -V(xc)+E(xc)   XCENC  =        72.50876703
  PAW double counting   =       294.43624749     -299.73546805
  entropy T*S    EENTRO =        -0.00000000
  eigenvalues    EBANDS =      -256.00956017
  atomic energy  EATOM  =       663.51739852
  Solvation  Ediel_sol  =         0.00000000
  ---------------------------------------------------
  free energy    TOTEN  =       -56.62732445 eV

  energy without entropy =      -56.62732445  energy(sigma->0) =      -56.62732445


--------------------------------------------------------------------------------------------------------




--------------------------------------- Iteration      1(  17)  ---------------------------------------


    POTLOK:  cpu time      0.3101: real time      0.3118
    SETDIJ:  cpu time      0.1928: real time      0.1936
     EDDAV:  cpu time      0.4167: real time      0.4190
       DOS:  cpu time      0.0001: real time      0.0001
    CHARGE:  cpu time      0.1931: real time      0.1939
    MIXING:  cpu time      0.0162: real time      0.0163
    --------------------------------------------
      LOOP:  cpu time      1.1290: real time      1.1347

 eigenvalue-minimisations  :    64
 total energy-change (2. order) :-0.8380813E-03  (-0.6963164E-05)
 number of electron      22.0000000 magnetization 
 augmentation part        0.4889685 magnetization 

 Broyden mixing:
  rms(total) = 0.43011E-03    rms(broyden)= 0.43004E-03
  rms(prec ) = 0.74836E-03
  weight for this iteration     100.00

 eigenvalues of (default mixing * dielectric matrix)
  average eigenvalue GAMMA=   2.2064
  7.7258  4.5321  2.5561  2.2825  1.4754  1.4754  1.3967  0.9746  0.9746  1.0973
  1.0973  0.8896

 Free energy of the ion-electron system (eV)
  ---------------------------------------------------
  alpha Z        PSCENC =         0.62641250
  Ewald energy   TEWEN  =       864.05429253
  -Hartree energ DENC   =     -1396.01373660
  -exchange      EXHF   =         0.00000000
  -V(xc)+E(xc)   XCENC  =        72.50609636
  PAW double counting   =       294.40174311     -299.70085571
  entropy T*S    EENTRO =        -0.00000000
  eigenvalues    EBANDS =      -256.01951324
  atomic energy  EATOM  =       663.51739852
  Solvation  Ediel_sol  =         0.00000000
  ---------------------------------------------------
  free energy    TOTEN  =       -56.62816253 eV

  energy without entropy =      -56.62816253  energy(sigma->0) =      -56.62816253


--------------------------------------------------------------------------------------------------------




--------------------------------------- Iteration      1(  18)  ---------------------------------------


    POTLOK:  cpu time      0.3080: real time      0.3097
    SETDIJ:  cpu time      0.1911: real time      0.1919
     EDDAV:  cpu time      0.4570: real time      0.4595
       DOS:  cpu time      0.0001: real time      0.0001
    CHARGE:  cpu time      0.1947: real time      0.1955
    MIXING:  cpu time      0.0165: real time      0.0165
    --------------------------------------------
      LOOP:  cpu time      1.1674: real time      1.1732

 eigenvalue-minimisations  :    72
 total energy-change (2. order) :-0.2666505E-03  (-0.1493817E-05)
 number of electron      22.0000000 magnetization 
 augmentation part        0.4889381 magnetization 

 Broyden mixing:
  rms(total) = 0.27328E-03    rms(broyden)= 0.27322E-03
  rms(prec ) = 0.48464E-03
  weight for this iteration     100.00

 eigenvalues of (default mixing * dielectric matrix)
  average eigenvalue GAMMA=   2.2824
  8.4311  4.9650  2.9012  2.5436  1.6747  1.6747  1.5180  1.0824  1.0824  1.0084
  0.8842  0.9530  0.9530

 Free energy of the ion-electron system (eV)
  ---------------------------------------------------
  alpha Z        PSCENC =         0.62641250
  Ewald energy   TEWEN  =       864.05429253
  -Hartree energ DENC   =     -1396.04666076
  -exchange      EXHF   =         0.00000000
  -V(xc)+E(xc)   XCENC  =        72.50695207
  PAW double counting   =       294.41375941     -299.71304359
  entropy T*S    EENTRO =        -0.00000000
  eigenvalues    EBANDS =      -255.98753987
  atomic energy  EATOM  =       663.51739852
  Solvation  Ediel_sol  =         0.00000000
  ---------------------------------------------------
  free energy    TOTEN  =       -56.62842918 eV

  energy without entropy =      -56.62842918  energy(sigma->0) =      -56.62842918


--------------------------------------------------------------------------------------------------------




--------------------------------------- Iteration      1(  19)  ---------------------------------------


    POTLOK:  cpu time      0.3069: real time      0.3086
    SETDIJ:  cpu time      0.1909: real time      0.1917
     EDDAV:  cpu time      0.3742: real time      0.3763
       DOS:  cpu time      0.0001: real time      0.0001
    CHARGE:  cpu time      0.1931: real time      0.1939
    MIXING:  cpu time      0.0180: real time      0.0181
    --------------------------------------------
      LOOP:  cpu time      1.0833: real time      1.0887

 eigenvalue-minimisations  :    56
 total energy-change (2. order) :-0.2074249E-03  (-0.1140798E-05)
 number of electron      22.0000000 magnetization 
 augmentation part        0.4889441 magnetization 

 Broyden mixing:
  rms(total) = 0.19863E-03    rms(broyden)= 0.19857E-03
  rms(prec ) = 0.29141E-03
  weight for this iteration     100.00

 eigenvalues of (default mixing * dielectric matrix)
  average eigenvalue GAMMA=   2.2480
  8.4667  5.2786  3.1741  2.4169  2.0606  1.4972  1.4972  1.1184  1.1184  1.0200
  1.0200  0.8907  0.9563  0.9563

 Free energy of the ion-electron system (eV)
  ---------------------------------------------------
  alpha Z        PSCENC =         0.62641250
  Ewald energy   TEWEN  =       864.05429253
  -Hartree energ DENC   =     -1396.03854708
  -exchange      EXHF   =         0.00000000
  -V(xc)+E(xc)   XCENC  =        72.50609545
  PAW double counting   =       294.38956695     -299.68887463
  entropy T*S    EENTRO =        -0.00000000
  eigenvalues    EBANDS =      -255.99498085
  atomic energy  EATOM  =       663.51739852
  Solvation  Ediel_sol  =         0.00000000
  ---------------------------------------------------
  free energy    TOTEN  =       -56.62863661 eV

  energy without entropy =      -56.62863661  energy(sigma->0) =      -56.62863661


--------------------------------------------------------------------------------------------------------




--------------------------------------- Iteration      1(  20)  ---------------------------------------


    POTLOK:  cpu time      0.3083: real time      0.3100
    SETDIJ:  cpu time      0.1923: real time      0.1931
     EDDAV:  cpu time      0.4157: real time      0.4180
       DOS:  cpu time      0.0001: real time      0.0001
    CHARGE:  cpu time      0.1929: real time      0.1937
    MIXING:  cpu time      0.0176: real time      0.0177
    --------------------------------------------
      LOOP:  cpu time      1.1269: real time      1.1326

 eigenvalue-minimisations  :    64
 total energy-change (2. order) :-0.4401505E-04  (-0.1105023E-06)
 number of electron      22.0000000 magnetization 
 augmentation part        0.4889447 magnetization 

 Broyden mixing:
  rms(total) = 0.97694E-04    rms(broyden)= 0.97593E-04
  rms(prec ) = 0.17356E-03
  weight for this iteration     100.00

 eigenvalues of (default mixing * dielectric matrix)
  average eigenvalue GAMMA=   2.3354
  8.8141  5.6328  3.7522  2.6296  2.3956  1.8712  1.4265  1.4265  1.1383  1.1383
  0.9761  0.9761  0.8771  0.9880  0.9880

 Free energy of the ion-electron system (eV)
  ---------------------------------------------------
  alpha Z        PSCENC =         0.62641250
  Ewald energy   TEWEN  =       864.05429253
  -Hartree energ DENC   =     -1396.04607701
  -exchange      EXHF   =         0.00000000
  -V(xc)+E(xc)   XCENC  =        72.50641326
  PAW double counting   =       294.39585853     -299.69514131
  entropy T*S    EENTRO =        -0.00000000
  eigenvalues    EBANDS =      -255.98783765
  atomic energy  EATOM  =       663.51739852
  Solvation  Ediel_sol  =         0.00000000
  ---------------------------------------------------
  free energy    TOTEN  =       -56.62868062 eV

  energy without entropy =      -56.62868062  energy(sigma->0) =      -56.62868062


--------------------------------------------------------------------------------------------------------




--------------------------------------- Iteration      1(  21)  ---------------------------------------


    POTLOK:  cpu time      0.3147: real time      0.3164
    SETDIJ:  cpu time      0.1900: real time      0.1908
     EDDAV:  cpu time      0.4152: real time      0.4175
       DOS:  cpu time      0.0002: real time      0.0002
    CHARGE:  cpu time      0.1934: real time      0.1942
    MIXING:  cpu time      0.0190: real time      0.0190
    --------------------------------------------
      LOOP:  cpu time      1.1324: real time      1.1381

 eigenvalue-minimisations  :    64
 total energy-change (2. order) :-0.4993735E-04  (-0.1132958E-06)
 number of electron      22.0000000 magnetization 
 augmentation part        0.4889483 magnetization 

 Broyden mixing:
  rms(total) = 0.70981E-04    rms(broyden)= 0.70839E-04
  rms(prec ) = 0.98582E-04
  weight for this iteration     100.00

 eigenvalues of (default mixing * dielectric matrix)
  average eigenvalue GAMMA=   2.3233
  8.9248  5.8272  4.1073  2.7771  2.4123  1.9108  1.4974  1.4974  1.1916  1.1916
  1.0460  1.0460  0.9718  0.9718  0.8907  0.9095

 Free energy of the ion-electron system (eV)
  ---------------------------------------------------
  alpha Z        PSCENC =         0.62641250
  Ewald energy   TEWEN  =       864.05429253
  -Hartree energ DENC   =     -1396.04574335
  -exchange      EXHF   =         0.00000000
  -V(xc)+E(xc)   XCENC  =        72.50616929
  PAW double counting   =       294.39613989     -299.69540272
  entropy T*S    EENTRO =        -0.00000000
  eigenvalues    EBANDS =      -255.98799722
  atomic energy  EATOM  =       663.51739852
  Solvation  Ediel_sol  =         0.00000000
  ---------------------------------------------------
  free energy    TOTEN  =       -56.62873056 eV

  energy without entropy =      -56.62873056  energy(sigma->0) =      -56.62873056


--------------------------------------------------------------------------------------------------------




--------------------------------------- Iteration      1(  22)  ---------------------------------------


    POTLOK:  cpu time      0.3223: real time      0.3240
    SETDIJ:  cpu time      0.1899: real time      0.1907
     EDDAV:  cpu time      0.4155: real time      0.4179
       DOS:  cpu time      0.0001: real time      0.0001
    CHARGE:  cpu time      0.1929: real time      0.1937
    MIXING:  cpu time      0.0183: real time      0.0183
    --------------------------------------------
      LOOP:  cpu time      1.1391: real time      1.1448

 eigenvalue-minimisations  :    64
 total energy-change (2. order) :-0.8738047E-05  (-0.1588049E-07)
 number of electron      22.0000000 magnetization 
 augmentation part        0.4889500 magnetization 

 Broyden mixing:
  rms(total) = 0.52088E-04    rms(broyden)= 0.51904E-04
  rms(prec ) = 0.69372E-04
  weight for this iteration     100.00

 eigenvalues of (default mixing * dielectric matrix)
  average eigenvalue GAMMA=   2.3583
  8.9950  6.1879  4.4247  2.9829  2.5507  2.0173  2.0173  1.4040  1.2816  1.2816
  1.0734  1.0734  0.9785  0.9785  0.8788  1.0152  0.9503

 Free energy of the ion-electron system (eV)
  ---------------------------------------------------
  alpha Z        PSCENC =         0.62641250
  Ewald energy   TEWEN  =       864.05429253
  -Hartree energ DENC   =     -1396.04607241
  -exchange      EXHF   =         0.00000000
  -V(xc)+E(xc)   XCENC  =        72.50613275
  PAW double counting   =       294.39464250     -299.69388220
  entropy T*S    EENTRO =        -0.00000000
  eigenvalues    EBANDS =      -255.98766349
  atomic energy  EATOM  =       663.51739852
  Solvation  Ediel_sol  =         0.00000000
  ---------------------------------------------------
  free energy    TOTEN  =       -56.62873930 eV

  energy without entropy =      -56.62873930  energy(sigma->0) =      -56.62873930


--------------------------------------------------------------------------------------------------------




--------------------------------------- Iteration      1(  23)  ---------------------------------------


    POTLOK:  cpu time      0.3200: real time      0.3217
    SETDIJ:  cpu time      0.1894: real time      0.1902
     EDDAV:  cpu time      0.4166: real time      0.4189
       DOS:  cpu time      0.0002: real time      0.0002
    CHARGE:  cpu time      0.1938: real time      0.1946
    MIXING:  cpu time      0.0183: real time      0.0183
    --------------------------------------------
      LOOP:  cpu time      1.1382: real time      1.1438

 eigenvalue-minimisations  :    64
 total energy-change (2. order) :-0.5867639E-05  (-0.1403401E-07)
 number of electron      22.0000000 magnetization 
 augmentation part        0.4889487 magnetization 

 Broyden mixing:
  rms(total) = 0.27002E-04    rms(broyden)= 0.26647E-04
  rms(prec ) = 0.35110E-04
  weight for this iteration     100.00

 eigenvalues of (default mixing * dielectric matrix)
  average eigenvalue GAMMA=   2.3469
  9.0795  6.3900  4.7282  3.1708  2.4165  2.4165  1.8873  1.2387  1.2387  1.4067
  1.4067  1.0845  0.9911  0.9911  0.9888  0.9888  0.9470  0.8743

 Free energy of the ion-electron system (eV)
  ---------------------------------------------------
  alpha Z        PSCENC =         0.62641250
  Ewald energy   TEWEN  =       864.05429253
  -Hartree energ DENC   =     -1396.04852077
  -exchange      EXHF   =         0.00000000
  -V(xc)+E(xc)   XCENC  =        72.50619249
  PAW double counting   =       294.39700291     -299.69626479
  entropy T*S    EENTRO =        -0.00000000
  eigenvalues    EBANDS =      -255.98525856
  atomic energy  EATOM  =       663.51739852
  Solvation  Ediel_sol  =         0.00000000
  ---------------------------------------------------
  free energy    TOTEN  =       -56.62874517 eV

  energy without entropy =      -56.62874517  energy(sigma->0) =      -56.62874517


--------------------------------------------------------------------------------------------------------




--------------------------------------- Iteration      1(  24)  ---------------------------------------


    POTLOK:  cpu time      0.3187: real time      0.3204
    SETDIJ:  cpu time      0.1904: real time      0.1913
     EDDAV:  cpu time      0.4162: real time      0.4185
       DOS:  cpu time      0.0001: real time      0.0001
    CHARGE:  cpu time      0.1926: real time      0.1934
    MIXING:  cpu time      0.0192: real time      0.0192
    --------------------------------------------
      LOOP:  cpu time      1.1373: real time      1.1429

 eigenvalue-minimisations  :    64
 total energy-change (2. order) :-0.1574284E-05  (-0.3250772E-08)
 number of electron      22.0000000 magnetization 
 augmentation part        0.4889480 magnetization 

 Broyden mixing:
  rms(total) = 0.17629E-04    rms(broyden)= 0.17089E-04
  rms(prec ) = 0.22907E-04
  weight for this iteration     100.00

 eigenvalues of (default mixing * dielectric matrix)
  average eigenvalue GAMMA=   2.3647
  9.0929  6.6873  4.9552  3.4657  2.5383  2.5383  1.8726  1.8726  1.3145  1.3145
  1.3904  1.0402  1.0402  0.9957  0.9957  1.0079  0.9818  0.9382  0.8874

 Free energy of the ion-electron system (eV)
  ---------------------------------------------------
  alpha Z        PSCENC =         0.62641250
  Ewald energy   TEWEN  =       864.05429253
  -Hartree energ DENC   =     -1396.04928840
  -exchange      EXHF   =         0.00000000
  -V(xc)+E(xc)   XCENC  =        72.50619340
  PAW double counting   =       294.39683977     -299.69611293
  entropy T*S    EENTRO =        -0.00000000
  eigenvalues    EBANDS =      -255.98448214
  atomic energy  EATOM  =       663.51739852
  Solvation  Ediel_sol  =         0.00000000
  ---------------------------------------------------
  free energy    TOTEN  =       -56.62874674 eV

  energy without entropy =      -56.62874674  energy(sigma->0) =      -56.62874674


--------------------------------------------------------------------------------------------------------




--------------------------------------- Iteration      1(  25)  ---------------------------------------


    POTLOK:  cpu time      0.3231: real time      0.3249
    SETDIJ:  cpu time      0.1893: real time      0.1901
     EDDAV:  cpu time      0.3764: real time      0.3785
       DOS:  cpu time      0.0001: real time      0.0001
    --------------------------------------------
      LOOP:  cpu time      0.8889: real time      0.8935

 eigenvalue-minimisations  :    56
 total energy-change (2. order) :-0.9846882E-06  (-0.1967161E-08)
 number of electron      22.0000000 magnetization 
 augmentation part        0.4889480 magnetization 

 Free energy of the ion-electron system (eV)
  ---------------------------------------------------
  alpha Z        PSCENC =         0.62641250
  Ewald energy   TEWEN  =       864.05429253
  -Hartree energ DENC   =     -1396.04928282
  -exchange      EXHF   =         0.00000000
  -V(xc)+E(xc)   XCENC  =        72.50618629
  PAW double counting   =       294.39636735     -299.69563769
  entropy T*S    EENTRO =        -0.00000000
  eigenvalues    EBANDS =      -255.98448441
  atomic energy  EATOM  =       663.51739852
  Solvation  Ediel_sol  =         0.00000000
  ---------------------------------------------------
  free energy    TOTEN  =       -56.62874773 eV

  energy without entropy =      -56.62874773  energy(sigma->0) =      -56.62874773


--------------------------------------------------------------------------------------------------------




 average (electrostatic) potential at core
  the test charge radii are     0.6991  0.5201
  (the norm of the test charge is              1.0000)
       1 -58.5446       2 -58.8677       3 -58.9630       4 -58.5564       5 -41.9601
       6 -41.8520       7 -41.6602       8 -41.7992       9 -41.9720      10 -42.2200
 
 
 
 E-fermi :  -5.5971     XC(G=0):  -0.4449     alpha+bet : -0.1681

 Fermi energy:        -5.5971035856

 k-point     1 :       0.0000    0.0000    0.0000
  band No.  band energies     occupation 
      1     -19.6028      2.00000
      2     -17.9054      2.00000
      3     -15.0353      2.00000
      4     -12.7954      2.00000
      5     -11.6903      2.00000
      6     -10.4921      2.00000
      7     -10.2587      2.00000
      8      -8.8951      2.00000
      9      -8.1099      2.00000
     10      -7.3391      2.00000
     11      -5.8681      2.00000
     12      -1.7912      0.00000
     13      -0.4381      0.00000
     14       0.0099      0.00000
     15       0.1218      0.00000
     16       0.2322      0.00000
     17       0.3956      0.00000
     18       0.4315      0.00000
     19       0.5496      0.00000
     20       0.6920      0.00000
     21       0.8754      0.00000
     22       0.9337      0.00000
     23       1.0123      0.00000
     24       1.1086      0.00000


--------------------------------------------------------------------------------------------------------


 soft charge-density along one line, spin component           1
         0         1         2         3         4         5         6         7         8         9
 total charge-density along one line
 
 pseudopotential strength for first ion, spin component:           1
 10.252   0.020  -0.002  -0.001   0.000  -0.002  -0.001   0.001
  0.020  -0.001   0.000   0.000  -0.000  -0.000  -0.000   0.000
 -0.002   0.000  -4.361  -0.004   0.010  -0.017  -0.001   0.003
 -0.001   0.000  -0.004  -4.365   0.003  -0.001  -0.018   0.001
  0.000  -0.000   0.010   0.003  -4.353   0.003   0.001  -0.015
 -0.002  -0.000  -0.017  -0.001   0.003  -0.773  -0.000   0.000
 -0.001  -0.000  -0.001  -0.018   0.001  -0.000  -0.773   0.000
  0.001   0.000   0.003   0.001  -0.015   0.000   0.000  -0.772
 total augmentation occupancy for first ion, spin component:           1
  1.489  -1.098   0.044   0.031  -0.023   0.024   0.019  -0.017
 -1.098   0.906  -0.103  -0.085   0.077  -0.043  -0.035   0.029
  0.044  -0.103   1.126   0.047  -0.151   0.176   0.014  -0.059
  0.031  -0.085   0.047   1.206  -0.037   0.014   0.207  -0.012
 -0.023   0.077  -0.151  -0.037   1.014  -0.059  -0.012   0.131
  0.024  -0.043   0.176   0.014  -0.059   0.031   0.004  -0.015
  0.019  -0.035   0.014   0.207  -0.012   0.004   0.038  -0.004
 -0.017   0.029  -0.059  -0.012   0.131  -0.015  -0.004   0.019


------------------------ aborting loop because EDIFF is reached ----------------------------------------


    CHARGE:  cpu time      0.1933: real time      0.1941
    FORLOC:  cpu time      0.0357: real time      0.0358
    FORNL :  cpu time      1.0783: real time      1.0834
    STRESS:  cpu time      3.4090: real time      3.4249
    FORHAR:  cpu time      0.1127: real time      0.1132
    MIXING:  cpu time      0.0121: real time      0.0121
    OFIELD:  cpu time      0.0001: real time      0.0001

  FORCE on cell =-STRESS in cart. coord.  units (eV):
  Direction    XX          YY          ZZ          XY          YZ          ZX
  --------------------------------------------------------------------------------------
  Alpha Z     0.62641     0.62641     0.62641
  Ewald    -112.37111   308.32013   668.10495  -100.84766   -28.49882  -120.96087
  Hartree   240.37537   437.14382   718.52976   -45.19960   -21.09893   -81.51184
  E(xc)     -77.28617   -75.70388   -75.41328    -0.38677    -0.05973    -0.14939
  Local    -346.51417  -935.29794 -1574.57842   138.49272    49.81506   200.63924
  n-local   -28.48728   -30.58304   -30.34186     0.53343    -0.23208     0.09354
  augment    -0.52805    -0.66504    -0.66574     0.03885    -0.00475     0.00743
  Kinetic   323.75274   292.37636   291.49161     7.29754     3.02298     1.14637
  Fock        0.00000     0.00000     0.00000     0.00000     0.00000     0.00000
  -------------------------------------------------------------------------------------
  Total      -0.43227    -3.78316    -2.24656    -0.07149     2.94373    -0.73551
  in kB      -0.20521    -1.79594    -1.06649    -0.03394     1.39745    -0.34916
  external pressure =       -1.02 kB  Pullay stress =        0.00 kB


 VOLUME and BASIS-vectors are now :
 -----------------------------------------------------------------------------
  energy-cutoff  :      520.00
  volume of cell :     3375.00
      direct lattice vectors                 reciprocal lattice vectors
    15.000000000  0.000000000  0.000000000     0.066666667  0.000000000  0.000000000
     0.000000000 15.000000000  0.000000000     0.000000000  0.066666667  0.000000000
     0.000000000  0.000000000 15.000000000     0.000000000  0.000000000  0.066666667

  length of vectors
    15.000000000 15.000000000 15.000000000     0.066666667  0.066666667  0.066666667


 FORCES acting on ions
    electron-ion (+dipol)            ewald-force                    non-local-force                 convergence-correction
 -----------------------------------------------------------------------------------------------
   -.614E+02 0.783E+02 0.113E+03   0.625E+02 -.796E+02 -.114E+03   -.742E+00 0.527E+00 0.625E+00   -.704E-04 0.840E-04 0.116E-03
   0.451E+02 -.791E+02 0.389E+02   -.459E+02 0.798E+02 -.386E+02   0.222E-01 0.103E+01 0.116E+01   0.405E-04 -.813E-04 0.773E-04
   -.622E-01 -.858E+02 -.449E+02   0.216E+00 0.855E+02 0.454E+02   -.141E+00 -.436E+00 -.423E+00   0.123E-04 -.747E-04 -.648E-04
   0.180E+02 0.838E+02 -.102E+03   -.178E+02 -.835E+02 0.101E+03   0.277E-01 0.882E+00 -.974E+00   0.267E-04 0.789E-04 -.104E-03
   -.149E+01 -.951E+00 0.669E+02   0.129E+01 0.145E+01 -.723E+02   0.448E+00 -.846E+00 0.556E+01   -.266E-05 0.235E-05 0.271E-04
   -.376E+02 0.515E+02 -.500E+01   0.401E+02 -.552E+02 0.672E+01   -.279E+01 0.410E+01 -.219E+01   -.130E-04 0.141E-04 0.543E-05
   0.293E+02 -.540E+02 0.306E+02   -.309E+02 0.569E+02 -.322E+02   0.217E+01 -.400E+01 0.210E+01   0.120E-04 -.203E-04 0.146E-04
   -.656E+01 -.615E+02 -.302E+02   0.685E+01 0.653E+02 0.320E+02   -.621E+00 -.474E+01 -.211E+01   -.129E-05 -.290E-04 -.166E-04
   0.800E+01 0.641E+02 0.114E+01   -.854E+01 -.694E+02 -.322E+01   0.450E+00 0.546E+01 0.162E+01   0.321E-05 0.155E-04 -.417E-05
   0.740E+01 0.215E+01 -.677E+02   -.790E+01 -.119E+01 0.751E+02   0.630E+00 -.554E+00 -.619E+01   0.302E-05 0.185E-06 -.235E-04
 -----------------------------------------------------------------------------------------------
   0.549E+00 -.142E+01 0.810E+00   0.133E-13 -.187E-13 0.142E-13   -.552E+00 0.142E+01 -.813E+00   0.103E-04 -.104E-04 0.278E-04
 
 
 POSITION                                       TOTAL-FORCE (eV/Angst)
 -----------------------------------------------------------------------------------
      7.99500      7.17500      5.93600         0.387210     -0.718285     -0.207669
      7.39000      8.05100      6.72400        -0.753003      1.723373      1.464988
      7.35800      8.06700      8.24100         0.013476     -0.761028      0.052093
      7.19500      6.97800      9.06900         0.217747      1.169622     -1.925198
      7.91800      7.32500      4.85300         0.243475     -0.344631      0.149199
      8.56600      6.32700      6.37100        -0.300930      0.386443     -0.472894
      6.89400      8.96400      6.25200         0.484079     -1.059694      0.519570
      7.47900      9.09300      8.69300        -0.329857     -0.931750     -0.298367
      7.10700      5.94000      8.74300        -0.089193      0.135550     -0.460597
      7.09800      7.08100     10.11800         0.126996      0.400401      1.178875
 -----------------------------------------------------------------------------------
    total drift:                               -0.002730      0.006467     -0.003123


--------------------------------------------------------------------------------------------------------



  FREE ENERGIE OF THE ION-ELECTRON SYSTEM (eV)
  ---------------------------------------------------
  free  energy   TOTEN  =       -56.62874773 eV

  energy  without entropy=      -56.62874773  energy(sigma->0) =      -56.62874773
 


--------------------------------------------------------------------------------------------------------


    POTLOK:  cpu time      0.5143: real time      0.5168


--------------------------------------------------------------------------------------------------------


 stress matrix after NEB project (eV)
     -0.43227     -0.07149     -0.73551
     -0.07149     -3.78316      2.94373
     -0.73551      2.94373     -2.24656
  FORCES: max atom, RMS     2.383949    1.313690
  FORCE total and by dimension    4.154253    1.925198
  Stress total and by dimension    6.161939    3.783159
     LOOP+:  cpu time     30.9112: real time     31.0667
    4ORBIT:  cpu time      0.0000: real time      0.0000

 total amount of memory used by VASP MPI-rank0   224779. kBytes
=======================================================================

   base      :      30000. kBytes
   nonlr-proj:       1255. kBytes
   fftplans  :     123538. kBytes
   grid      :      67787. kBytes
   one-center:         15. kBytes
   wavefun   :       2184. kBytes
 
  
  
 General timing and accounting informations for this job:
 ========================================================
  
                  Total CPU time used (sec):       37.550
                            User time (sec):       34.316
                          System time (sec):        3.234
                         Elapsed time (sec):       39.077
  
                   Maximum memory used (kb):      561300.
                   Average memory used (kb):          N/A
  
                          Minor page faults:       178030
                          Major page faults:         5460
                 Voluntary context switches:         3270
