 vasp.6.4.2 20Jul23 (build Apr 10 2024 13:39:58) complex                        
  
 executed on             LinuxIFC date 2024.05.18  14:53:41
 running   16 mpi-ranks, on    1 nodes
 distrk:  each k-point on   16 cores,    1 groups
 distr:  one band on NCORE=   2 cores,    8 groups


--------------------------------------------------------------------------------------------------------


 INCAR:
   ISTART = 0
   ISPIN = 1
   LREAL = Auto
   ENCUT = 520
   NPAR = 8
   LPLANE = .TRUE.
   LSCALU = .FALSE.
   NSIM = 4
   LWAVE = .FALSE.
   LCHARG = .FALSE.
   ADDGRID = .TRUE.
   LASPH = .TRUE.
   PREC = Accurate
   ISMEAR = 0
   SIGMA = 0.05
   EDIFF = 1E-06
   NSW = 0
   TEBEG = 300
   TEEND = 700     	
   ISYM = 0
   NWRITE = 2

 POTCAR:   PAW_PBE C 08Apr2002                    
 POTCAR:   PAW_PBE H 15Jun2001                    
 POTCAR:   PAW_PBE C 08Apr2002                    
   VRHFIN =C: s2p2                                                                                  
   LEXCH  = PE                                                                                      
   EATOM  =   147.1560 eV,   10.8157 Ry                                                             
                                                                                                    
   TITEL  = PAW_PBE C 08Apr2002                                                                     
   LULTRA =        F    use ultrasoft PP ?                                                          
   IUNSCR =        0    unscreen: 0-lin 1-nonlin 2-no                                               
   RPACOR =     .000    partial core radius                                                         
   POMASS =   12.011; ZVAL   =    4.000    mass and valenz                                          
   RCORE  =    1.500    outmost cutoff radius                                                       
   RWIGS  =    1.630; RWIGS  =     .863    wigner-seitz radius (au A)                               
   ENMAX  =  400.000; ENMIN  =  300.000 eV                                                          
   ICORE  =        2    local potential                                                             
   LCOR   =        T    correct aug charges                                                         
   LPAW   =        T    paw PP                                                                      
   EAUG   =  644.873                                                                                
   DEXC   =     .000                                                                                
   RMAX   =    2.266    core radius for proj-oper                                                   
   RAUG   =    1.300    factor for augmentation sphere                                              
   RDEP   =    1.501    radius for radial grids                                                     
   RDEPT  =    1.300    core radius for aug-charge                                                  
   QCUT   =   -5.516; QGAM   =   11.032    optimization parameters                                  
                                                                                                    
   Description                                                                                      
     l     E      TYP  RCUT    TYP  RCUT                                                            
     0   .000     23  1.200                                                                         
     0   .000     23  1.200                                                                         
     1   .000     23  1.500                                                                         
     1  2.500     23  1.500                                                                         
     2   .000      7  1.500                                                                         
  local pseudopotential read in
  atomic valenz-charges read in
  non local Contribution for L=           0  read in
    real space projection operators read in
  non local Contribution for L=           0  read in
    real space projection operators read in
  non local Contribution for L=           1  read in
    real space projection operators read in
  non local Contribution for L=           1  read in
    real space projection operators read in
    PAW grid and wavefunctions read in
 
   number of l-projection  operators is LMAX  =           4
   number of lm-projection operators is LMMAX =           8
 
 POTCAR:   PAW_PBE H 15Jun2001                    
   VRHFIN =H: ultrasoft test                                                                        
   LEXCH  = PE                                                                                      
   EATOM  =    12.4884 eV,     .9179 Ry                                                             
                                                                                                    
   TITEL  = PAW_PBE H 15Jun2001                                                                     
   LULTRA =        F    use ultrasoft PP ?                                                          
   IUNSCR =        0    unscreen: 0-lin 1-nonlin 2-no                                               
   RPACOR =     .000    partial core radius                                                         
   POMASS =    1.000; ZVAL   =    1.000    mass and valenz                                          
   RCORE  =    1.100    outmost cutoff radius                                                       
   RWIGS  =     .700; RWIGS  =     .370    wigner-seitz radius (au A)                               
   ENMAX  =  250.000; ENMIN  =  200.000 eV                                                          
   RCLOC  =     .701    cutoff for local pot                                                        
   LCOR   =        T    correct aug charges                                                         
   LPAW   =        T    paw PP                                                                      
   EAUG   =  400.000                                                                                
   RMAX   =    2.174    core radius for proj-oper                                                   
   RAUG   =    1.200    factor for augmentation sphere                                              
   RDEP   =    1.112    radius for radial grids                                                     
   QCUT   =   -5.749; QGAM   =   11.498    optimization parameters                                  
                                                                                                    
   Description                                                                                      
     l     E      TYP  RCUT    TYP  RCUT                                                            
     0   .000     23  1.100                                                                         
     0   .500     23  1.100                                                                         
     1  -.300     23  1.100                                                                         
  local pseudopotential read in
  atomic valenz-charges read in
  non local Contribution for L=           0  read in
    real space projection operators read in
  non local Contribution for L=           0  read in
    real space projection operators read in
  non local Contribution for L=           1  read in
    real space projection operators read in
    PAW grid and wavefunctions read in
 
   number of l-projection  operators is LMAX  =           3
   number of lm-projection operators is LMMAX =           5
 
 Optimization of the real space projectors (new method)

 maximal supplied QI-value         = 25.13
 optimisation between [QCUT,QGAM] = [ 11.56, 23.12] = [ 37.43,149.72] Ry 
 Optimized for a Real-space Cutoff    1.04 Angstroem

   l    n(q)    QCUT    max X(q) W(low)/X(q) W(high)/X(q)  e(spline) 
   0      7    11.561     5.582    0.47E-04    0.94E-04    0.17E-07
   0      7    11.561    69.432    0.20E-03    0.59E-03    0.21E-06
   1      7    11.561     2.780    0.24E-04    0.70E-04    0.44E-07
   1      7    11.561     4.549    0.18E-03    0.25E-03    0.12E-06
 Optimization of the real space projectors (new method)

 maximal supplied QI-value         = 34.20
 optimisation between [QCUT,QGAM] = [ 11.63, 23.26] = [ 37.87,151.49] Ry 
 Optimized for a Real-space Cutoff    1.21 Angstroem

   l    n(q)    QCUT    max X(q) W(low)/X(q) W(high)/X(q)  e(spline) 
   0      8    11.629     4.436    0.19E-04    0.32E-04    0.47E-07
   0      8    11.629    16.131    0.16E-03    0.33E-03    0.21E-06
   1      8    11.629     4.654    0.18E-03    0.16E-03    0.26E-06
 PAW_PBE C 08Apr2002                    :
 energy of atom  1       EATOM= -147.1560
 kinetic energy error for atom=    0.0071 (will be added to EATOM!!)
 PAW_PBE H 15Jun2001                    :
 energy of atom  2       EATOM=  -12.4884
 kinetic energy error for atom=    0.0014 (will be added to EATOM!!)
 
 
 POSCAR:  C  H
  positions in cartesian coordinates
  No initial velocities read in
 exchange correlation table for  LEXCH =        8
   RHO(1)=    0.500       N(1)  =     2000
   RHO(2)=  100.500       N(2)  =     4000

 VTST: version 4.1, (05/19/21)

 CHAIN: initializing optimizer
 
 OPT: Using VASP Dynamics algorithm
 CHAIN: Read ICHAIN            0
 
 POSCAR:  C  H
  positions in cartesian coordinates
  No initial velocities read in
 


--------------------------------------------------------------------------------------------------------


 ion  position               nearest neighbor table
   1  0.526  0.537  0.445-   6 1.10   5 1.10   2 1.44   4 1.82
   2  0.484  0.451  0.445-   7 1.18   1 1.44   3 1.44
   3  0.468  0.444  0.540-   8 1.14   2 1.44   4 1.48
   4  0.506  0.532  0.565-   9 1.10  10 1.13   3 1.48   1 1.82
   5  0.598  0.540  0.430-   1 1.10
   6  0.492  0.594  0.413-   1 1.10
   7  0.464  0.396  0.393-   2 1.18
   8  0.435  0.386  0.576-   3 1.14
   9  0.568  0.533  0.604-   4 1.10
  10  0.459  0.585  0.589-   4 1.13
 

IMPORTANT INFORMATION: All symmetrisations will be switched off!
NOSYMM: (Re-)initialisation of all symmetry stuff for point group C_1.


----------------------------------------------------------------------------------------

                                     Primitive cell                                     

  volume of cell :    3375.0000

  direct lattice vectors                    reciprocal lattice vectors
    15.000000000  0.000000000  0.000000000     0.066666667  0.000000000  0.000000000
     0.000000000 15.000000000  0.000000000     0.000000000  0.066666667  0.000000000
     0.000000000  0.000000000 15.000000000     0.000000000  0.000000000  0.066666667

  length of vectors
    15.000000000 15.000000000 15.000000000     0.066666667  0.066666667  0.066666667

  position of ions in fractional coordinates (direct lattice)
     0.526066653  0.537399991  0.444933319
     0.484266663  0.451200008  0.445000013
     0.468199984  0.444466654  0.539599991
     0.505866655  0.532466666  0.564666684
     0.598133341  0.539800008  0.430133343
     0.491666667  0.593600019  0.413400014
     0.464066664  0.396133327  0.392733320
     0.435133330  0.386400000  0.576000023
     0.567933337  0.533200010  0.604133352
     0.458600012  0.585400009  0.589333344

  ion indices of the primitive-cell ions
   primitive index   ion index
                 1           1
                 2           2
                 3           3
                 4           4
                 5           5
                 6           6
                 7           7
                 8           8
                 9           9
                10          10

----------------------------------------------------------------------------------------

 
 
 KPOINTS: K-Spacing Value to Generate K-Mesh: 1.00

Automatic generation of k-mesh.
 Grid dimensions read from file:
 generate k-points for:    1    1    1

 Generating k-lattice:

  Cartesian coordinates                     Fractional coordinates (reciprocal lattice)
     0.066666667  0.000000000  0.000000000     1.000000000  0.000000000  0.000000000
     0.000000000  0.066666667  0.000000000     0.000000000  1.000000000  0.000000000
     0.000000000  0.000000000  0.066666667     0.000000000  0.000000000  1.000000000

  Length of vectors
     0.066666667  0.066666667  0.066666667

  Shift w.r.t. Gamma in fractional coordinates (k-lattice)
     0.000000000  0.000000000  0.000000000

 
 Subroutine IBZKPT returns following result:
 ===========================================
 
 Found      1 irreducible k-points:
 
 Following reciprocal coordinates:
            Coordinates               Weight
  0.000000  0.000000  0.000000      1.000000
 
 Following cartesian coordinates:
            Coordinates               Weight
  0.000000  0.000000  0.000000      1.000000
 


--------------------------------------------------------------------------------------------------------




 Dimension of arrays:
   k-points           NKPTS =      1   k-points in BZ     NKDIM =      1   number of bands    NBANDS=     24
   number of dos      NEDOS =    301   number of ions     NIONS =     10
   non local maximal  LDIM  =      4   non local SUM 2l+1 LMDIM =      8
   total plane-waves  NPLWV = ******
   max r-space proj   IRMAX =   3145   max aug-charges    IRDMAX=  39494
   dimension x,y,z NGX =   112 NGY =  112 NGZ =  112
   dimension x,y,z NGXF=   224 NGYF=  224 NGZF=  224
   support grid    NGXF=   448 NGYF=  448 NGZF=  448
   ions per type =               4   6
   NGX,Y,Z   is equivalent  to a cutoff of  12.41, 12.41, 12.41 a.u.
   NGXF,Y,Z  is equivalent  to a cutoff of  24.83, 24.83, 24.83 a.u.

 SYSTEM =  unknown system                          
 POSCAR =   C  H                                   

 Startparameter for this run:
   NWRITE =      2    write-flag & timer
   PREC   = accura    normal or accurate (medium, high low for compatibility)
   ISTART =      0    job   : 0-new  1-cont  2-samecut
   ICHARG =      2    charge: 1-file 2-atom 10-const
   ISPIN  =      1    spin polarized calculation?
   LNONCOLLINEAR =      F non collinear calculations
   LSORBIT =      F    spin-orbit coupling
   INIWAV =      1    electr: 0-lowe 1-rand  2-diag
   LASPH  =      T    aspherical Exc in radial PAW
 Electronic Relaxation 1
   ENCUT  =  520.0 eV  38.22 Ry    6.18 a.u.  27.89 27.89 27.89*2*pi/ulx,y,z
   ENINI  =  520.0     initial cutoff
   ENAUG  =  644.9 eV  augmentation charge cutoff
   NELM   =     60;   NELMIN=  2; NELMDL= -5     # of ELM steps 
   EDIFF  = 0.1E-05   stopping-criterion for ELM
   LREAL  =      T    real-space projection
   NLSPLINE    = F    spline interpolate recip. space projectors
   LCOMPAT=      F    compatible to vasp.4.4
   GGA_COMPAT  = T    GGA compatible to vasp.4.4-vasp.4.6
   LMAXPAW     = -100 max onsite density
   LMAXMIX     =    2 max onsite mixed and CHGCAR
   VOSKOWN=      0    Vosko Wilk Nusair interpolation
   ROPT   =   -0.00025  -0.00025
 Ionic relaxation
   EDIFFG = 0.1E-04   stopping-criterion for IOM
   NSW    =      0    number of steps for IOM
   NBLOCK =      1;   KBLOCK =      1    inner block; outer block 
   IBRION =     -1    ionic relax: 0-MD 1-quasi-New 2-CG
   NFREE  =      0    steps in history (QN), initial steepest desc. (CG)
   ISIF   =      2    stress and relaxation
   IWAVPR =     10    prediction:  0-non 1-charg 2-wave 3-comb
   ISYM   =      0    0-nonsym 1-usesym 2-fastsym
   LCORR  =      T    Harris-Foulkes like correction to forces

   POTIM  = 0.5000    time-step for ionic-motion
   TEIN   =    0.0    initial temperature
   TEBEG  =  300.0;   TEEND  = 700.0 temperature during run
   SMASS  =  -3.00    Nose mass-parameter (am)
   estimated Nose-frequenzy (Omega)   =  0.10E-29 period in steps = 0.13E+47 mass=  -0.514E-26a.u.
   SCALEE = 1.0000    scale energy and forces
   NPACO  =    256;   APACO  = 10.0  distance and # of slots for P.C.
   PSTRESS=    0.0 pullay stress

  Mass of Ions in am
   POMASS =  12.01  1.00
  Ionic Valenz
   ZVAL   =   4.00  1.00
  Atomic Wigner-Seitz radii
   RWIGS  =  -1.00 -1.00
  virtual crystal weights 
   VCA    =   1.00  1.00
   NELECT =      22.0000    total number of electrons
   NUPDOWN=      -1.0000    fix difference up-down

 DOS related values:
   EMIN   =  10.00;   EMAX   =-10.00  energy-range for DOS
   EFERMI =   0.00;   METHOD = LEGACY      
   ISMEAR =     0;   SIGMA  =   0.05  broadening in eV -4-tet -1-fermi 0-gaus

 Electronic relaxation 2 (details)
   IALGO  =     38    algorithm
   LDIAG  =      T    sub-space diagonalisation (order eigenvalues)
   LSUBROT=      F    optimize rotation matrix (better conditioning)
   TURBO    =      0    0=normal 1=particle mesh
   IRESTART =      0    0=no restart 2=restart with 2 vectors
   NREBOOT  =      0    no. of reboots
   NMIN     =      0    reboot dimension
   EREF     =   0.00    reference energy to select bands
   IMIX   =      4    mixing-type and parameters
     AMIX     =   0.40;   BMIX     =  1.00
     AMIX_MAG =   1.60;   BMIX_MAG =  1.00
     AMIN     =   0.10
     WC   =   100.;   INIMIX=   1;  MIXPRE=   1;  MAXMIX= -45

 Intra band minimization:
   WEIMIN = 0.0000     energy-eigenvalue tresh-hold
   EBREAK =  0.10E-07  absolut break condition
   DEPER  =   0.30     relativ break condition  

   TIME   =   0.40     timestep for ELM

  volume/ion in A,a.u.               =     337.50      2277.56
  Fermi-wavevector in a.u.,A,eV,Ry     =   0.305814  0.577905  1.272449  0.093522
  Thomas-Fermi vector in A             =   1.179187
 
 Write flags
   LWAVE        =      F    write WAVECAR
   LDOWNSAMPLE  =      F    k-point downsampling of WAVECAR
   LCHARG       =      F    write CHGCAR
   LVTOT        =      F    write LOCPOT, total local potential
   LVHAR        =      F    write LOCPOT, Hartree potential only
   LELF         =      F    write electronic localiz. function (ELF)
   LORBIT       =      0    0 simple, 1 ext, 2 COOP (PROOUT), +10 PAW based schemes


 Dipole corrections
   LMONO  =      F    monopole corrections only (constant potential shift)
   LDIPOL =      F    correct potential (dipole corrections)
   IDIPOL =      0    1-x, 2-y, 3-z, 4-all directions 
   EPSILON=  1.0000000 bulk dielectric constant

 Exchange correlation treatment:
   GGA     =    --    GGA type
   LEXCH   =     8    internal setting for exchange type
   LIBXC   =     F    Libxc                    
   VOSKOWN =     0    Vosko Wilk Nusair interpolation
   LHFCALC =     F    Hartree Fock is set to
   LHFONE  =     F    Hartree Fock one center treatment
   AEXX    =    0.0000 exact exchange contribution

 Linear response parameters
   LEPSILON=     F    determine dielectric tensor
   LRPA    =     F    only Hartree local field effects (RPA)
   LNABLA  =     F    use nabla operator in PAW spheres
   LVEL    =     F    velocity operator in full k-point grid
   CSHIFT  =0.1000    complex shift for real part using Kramers Kronig
   OMEGAMAX=  -1.0    maximum frequency
   DEG_THRESHOLD= 0.2000000E-02 threshold for treating states as degnerate
   RTIME   =   -0.100 relaxation time in fs
  (WPLASMAI=    0.000 imaginary part of plasma frequency in eV, 0.658/RTIME)
   DFIELD  = 0.0000000 0.0000000 0.0000000 field for delta impulse in time
 
  Optional k-point grid parameters
   LKPOINTS_OPT  =     F    use optional k-point grid
   KPOINTS_OPT_MODE=     1    mode for optional k-point grid
 
 Orbital magnetization related:
   ORBITALMAG=     F  switch on orbital magnetization
   LCHIMAG   =     F  perturbation theory with respect to B field
   DQ        =  0.001000  dq finite difference perturbation B field
   LLRAUG    =     F  two centre corrections for induced B field
   LBONE     =     F  B-component reconstruction in AE one-centre
   LVGVCALC  =     T  calculate vGv susceptibility
   LVGVAPPL  =     F  apply vGv susceptibility instead of pGv for G=0

 Random number generation:
   RANDOM_GENERATOR = DEFAULT
   PCG_SEED         = not used


--------------------------------------------------------------------------------------------------------


 Static calculation
 charge density and potential will be updated during run
 non-spin polarized calculation
 Variant of blocked Davidson
 Davidson routine will perform the subspace rotation
 perform sub-space diagonalisation
    after iterative eigenvector-optimisation
 modified Broyden-mixing scheme, WC =      100.0
 initial mixing is a Kerker type mixing with AMIX =  0.4000 and BMIX =      1.0000
 Hartree-type preconditioning will be used
 using additional bands           13
 real space projection scheme for non local part
 calculate Harris-corrections to forces 
   (improved forces if not selfconsistent)
 use gradient corrections 
 use of overlap-Matrix (Vanderbilt PP)
 Gauss-broadening in eV      SIGMA  =   0.05


--------------------------------------------------------------------------------------------------------


  energy-cutoff  :      520.00
  volume of cell :     3375.00
      direct lattice vectors                 reciprocal lattice vectors
    15.000000000  0.000000000  0.000000000     0.066666667  0.000000000  0.000000000
     0.000000000 15.000000000  0.000000000     0.000000000  0.066666667  0.000000000
     0.000000000  0.000000000 15.000000000     0.000000000  0.000000000  0.066666667

  length of vectors
    15.000000000 15.000000000 15.000000000     0.066666667  0.066666667  0.066666667


 
 k-points in units of 2pi/SCALE and weight: K-Spacing Value to Generate K-Mesh: 1.00
   0.00000000  0.00000000  0.00000000       1.000
 
 k-points in reciprocal lattice and weights: K-Spacing Value to Generate K-Mesh: 1.00
   0.00000000  0.00000000  0.00000000       1.000
 
 position of ions in fractional coordinates (direct lattice) 
   0.52606665  0.53739999  0.44493332
   0.48426666  0.45120001  0.44500001
   0.46819998  0.44446665  0.53959999
   0.50586665  0.53246667  0.56466668
   0.59813334  0.53980001  0.43013334
   0.49166667  0.59360002  0.41340001
   0.46406666  0.39613333  0.39273332
   0.43513333  0.38640000  0.57600002
   0.56793334  0.53320001  0.60413335
   0.45860001  0.58540001  0.58933334
 
 position of ions in cartesian coordinates  (Angst):
   7.89099979  8.06099987  6.67399979
   7.26399994  6.76800013  6.67500019
   7.02299976  6.66699982  8.09399986
   7.58799982  7.98699999  8.47000027
   8.97200012  8.09700012  6.45200014
   7.37500000  8.90400028  6.20100021
   6.96099997  5.94199991  5.89099979
   6.52699995  5.79600000  8.64000034
   8.51900005  7.99800014  9.06200027
   6.87900019  8.78100014  8.84000015
 


--------------------------------------------------------------------------------------------------------


 k-point   1 :   0.0000 0.0000 0.0000  plane waves:   90879

 maximum and minimum number of plane-waves per node :     45467    45412

 maximum number of plane-waves:     90879
 maximum index in each direction: 
   IXMAX=   27   IYMAX=   27   IZMAX=   27
   IXMIN=  -27   IYMIN=  -27   IZMIN=  -27


 real space projection operators:
  total allocation   :       1185.21 KBytes
  max/ min on nodes  :        594.92        590.29


 parallel 3D FFT for wavefunctions:
    minimum data exchange during FFTs selected (reduces bandwidth)
 parallel 3D FFT for charge:
    minimum data exchange during FFTs selected (reduces bandwidth)


 total amount of memory used by VASP MPI-rank0   224780. kBytes
=======================================================================

   base      :      30000. kBytes
   nonlr-proj:       1256. kBytes
   fftplans  :     123538. kBytes
   grid      :      67787. kBytes
   one-center:         15. kBytes
   wavefun   :       2184. kBytes
 
     INWAV:  cpu time      0.0000: real time      0.0000
 Broyden mixing: mesh for mixing (old mesh)
   NGX = 55   NGY = 55   NGZ = 55
  (NGX  =224   NGY  =224   NGZ  =224)
  gives a total of 166375 points

 initial charge density was supplied:
 charge density of overlapping atoms calculated
 number of electron      22.0000000 magnetization 
 keeping initial charge density in first step


--------------------------------------------------------------------------------------------------------


 Maximum index for non-local projection operator         1509
 Maximum index for augmentation-charges         2469 (set IRDMAX)


--------------------------------------------------------------------------------------------------------


 First call to EWALD:  gamma=   0.118
 Maximum number of real-space cells 3x 3x 3
 Maximum number of reciprocal cells 3x 3x 3

    FEWALD:  cpu time      0.0010: real time      0.0010


--------------------------------------- Ionic step        1  -------------------------------------------




--------------------------------------- Iteration      1(   1)  ---------------------------------------


    POTLOK:  cpu time      0.3353: real time      0.3372
    SETDIJ:  cpu time      0.1955: real time      0.1963
     EDDAV:  cpu time      0.4191: real time      0.4214
       DOS:  cpu time      0.0002: real time      0.0002
    --------------------------------------------
      LOOP:  cpu time      0.9501: real time      0.9552

 eigenvalue-minimisations  :    64
 total energy-change (2. order) : 0.9509116E+02  (-0.5308743E+03)
 number of electron      22.0000000 magnetization 
 augmentation part       22.0000000 magnetization 

 Free energy of the ion-electron system (eV)
  ---------------------------------------------------
  alpha Z        PSCENC =         0.62641250
  Ewald energy   TEWEN  =       951.04732928
  -Hartree energ DENC   =     -1383.02406407
  -exchange      EXHF   =         0.00000000
  -V(xc)+E(xc)   XCENC  =        67.24474868
  PAW double counting   =       156.01372664     -160.66969168
  entropy T*S    EENTRO =        -0.00005180
  eigenvalues    EBANDS =      -199.66464691
  atomic energy  EATOM  =       663.51739852
  Solvation  Ediel_sol  =         0.00000000
  ---------------------------------------------------
  free energy    TOTEN  =        95.09116116 eV

  energy without entropy =       95.09121296  energy(sigma->0) =       95.09118706


--------------------------------------------------------------------------------------------------------




--------------------------------------- Iteration      1(   2)  ---------------------------------------


     EDDAV:  cpu time      0.5266: real time      0.5295
       DOS:  cpu time      0.0001: real time      0.0001
    --------------------------------------------
      LOOP:  cpu time      0.5267: real time      0.5296

 eigenvalue-minimisations  :    88
 total energy-change (2. order) :-0.1154245E+03  (-0.1122316E+03)
 number of electron      22.0000000 magnetization 
 augmentation part       22.0000000 magnetization 

 Free energy of the ion-electron system (eV)
  ---------------------------------------------------
  alpha Z        PSCENC =         0.62641250
  Ewald energy   TEWEN  =       951.04732928
  -Hartree energ DENC   =     -1383.02406407
  -exchange      EXHF   =         0.00000000
  -V(xc)+E(xc)   XCENC  =        67.24474868
  PAW double counting   =       156.01372664     -160.66969168
  entropy T*S    EENTRO =        -0.00000000
  eigenvalues    EBANDS =      -315.08918620
  atomic energy  EATOM  =       663.51739852
  Solvation  Ediel_sol  =         0.00000000
  ---------------------------------------------------
  free energy    TOTEN  =       -20.33332633 eV

  energy without entropy =      -20.33332633  energy(sigma->0) =      -20.33332633


--------------------------------------------------------------------------------------------------------




--------------------------------------- Iteration      1(   3)  ---------------------------------------


     EDDAV:  cpu time      0.4055: real time      0.4079
       DOS:  cpu time      0.0001: real time      0.0001
    --------------------------------------------
      LOOP:  cpu time      0.4057: real time      0.4080

 eigenvalue-minimisations  :    64
 total energy-change (2. order) :-0.3675879E+02  (-0.3664384E+02)
 number of electron      22.0000000 magnetization 
 augmentation part       22.0000000 magnetization 

 Free energy of the ion-electron system (eV)
  ---------------------------------------------------
  alpha Z        PSCENC =         0.62641250
  Ewald energy   TEWEN  =       951.04732928
  -Hartree energ DENC   =     -1383.02406407
  -exchange      EXHF   =         0.00000000
  -V(xc)+E(xc)   XCENC  =        67.24474868
  PAW double counting   =       156.01372664     -160.66969168
  entropy T*S    EENTRO =        -0.00000000
  eigenvalues    EBANDS =      -351.84798006
  atomic energy  EATOM  =       663.51739852
  Solvation  Ediel_sol  =         0.00000000
  ---------------------------------------------------
  free energy    TOTEN  =       -57.09212019 eV

  energy without entropy =      -57.09212019  energy(sigma->0) =      -57.09212019


--------------------------------------------------------------------------------------------------------




--------------------------------------- Iteration      1(   4)  ---------------------------------------


     EDDAV:  cpu time      0.4053: real time      0.4076
       DOS:  cpu time      0.0001: real time      0.0001
    --------------------------------------------
      LOOP:  cpu time      0.4054: real time      0.4077

 eigenvalue-minimisations  :    64
 total energy-change (2. order) :-0.4134452E+01  (-0.4129850E+01)
 number of electron      22.0000000 magnetization 
 augmentation part       22.0000000 magnetization 

 Free energy of the ion-electron system (eV)
  ---------------------------------------------------
  alpha Z        PSCENC =         0.62641250
  Ewald energy   TEWEN  =       951.04732928
  -Hartree energ DENC   =     -1383.02406407
  -exchange      EXHF   =         0.00000000
  -V(xc)+E(xc)   XCENC  =        67.24474868
  PAW double counting   =       156.01372664     -160.66969168
  entropy T*S    EENTRO =        -0.00000000
  eigenvalues    EBANDS =      -355.98243226
  atomic energy  EATOM  =       663.51739852
  Solvation  Ediel_sol  =         0.00000000
  ---------------------------------------------------
  free energy    TOTEN  =       -61.22657239 eV

  energy without entropy =      -61.22657239  energy(sigma->0) =      -61.22657239


--------------------------------------------------------------------------------------------------------




--------------------------------------- Iteration      1(   5)  ---------------------------------------


     EDDAV:  cpu time      0.4493: real time      0.4518
       DOS:  cpu time      0.0001: real time      0.0001
    CHARGE:  cpu time      0.2004: real time      0.2011
    MIXING:  cpu time      0.0133: real time      0.0133
    --------------------------------------------
      LOOP:  cpu time      0.6631: real time      0.6664

 eigenvalue-minimisations  :    72
 total energy-change (2. order) :-0.2863815E-01  (-0.2863023E-01)
 number of electron      22.0000000 magnetization 
 augmentation part        0.5441137 magnetization 

 Broyden mixing:
  rms(total) = 0.10764E+01    rms(broyden)= 0.10762E+01
  rms(prec ) = 0.13056E+01
  weight for this iteration     100.00

 Free energy of the ion-electron system (eV)
  ---------------------------------------------------
  alpha Z        PSCENC =         0.62641250
  Ewald energy   TEWEN  =       951.04732928
  -Hartree energ DENC   =     -1383.02406407
  -exchange      EXHF   =         0.00000000
  -V(xc)+E(xc)   XCENC  =        67.24474868
  PAW double counting   =       156.01372664     -160.66969168
  entropy T*S    EENTRO =        -0.00000000
  eigenvalues    EBANDS =      -356.01107042
  atomic energy  EATOM  =       663.51739852
  Solvation  Ediel_sol  =         0.00000000
  ---------------------------------------------------
  free energy    TOTEN  =       -61.25521054 eV

  energy without entropy =      -61.25521054  energy(sigma->0) =      -61.25521054


--------------------------------------------------------------------------------------------------------




--------------------------------------- Iteration      1(   6)  ---------------------------------------


    POTLOK:  cpu time      0.3071: real time      0.3087
    SETDIJ:  cpu time      0.1940: real time      0.1948
     EDDAV:  cpu time      0.3673: real time      0.3693
       DOS:  cpu time      0.0001: real time      0.0001
    CHARGE:  cpu time      0.2029: real time      0.2037
    MIXING:  cpu time      0.0078: real time      0.0079
    --------------------------------------------
      LOOP:  cpu time      1.0792: real time      1.0844

 eigenvalue-minimisations  :    56
 total energy-change (2. order) : 0.4375289E+01  (-0.6382287E+00)
 number of electron      22.0000000 magnetization 
 augmentation part        0.5018654 magnetization 

 Broyden mixing:
  rms(total) = 0.53325E+00    rms(broyden)= 0.53323E+00
  rms(prec ) = 0.63698E+00
  weight for this iteration     100.00

 eigenvalues of (default mixing * dielectric matrix)
  average eigenvalue GAMMA=   1.6376
  1.6376

 Free energy of the ion-electron system (eV)
  ---------------------------------------------------
  alpha Z        PSCENC =         0.62641250
  Ewald energy   TEWEN  =       951.04732928
  -Hartree energ DENC   =     -1427.87348920
  -exchange      EXHF   =         0.00000000
  -V(xc)+E(xc)   XCENC  =        69.39610974
  PAW double counting   =       219.55651691     -224.68908058
  entropy T*S    EENTRO =        -0.00000000
  eigenvalues    EBANDS =      -308.46111914
  atomic energy  EATOM  =       663.51739852
  Solvation  Ediel_sol  =         0.00000000
  ---------------------------------------------------
  free energy    TOTEN  =       -56.87992196 eV

  energy without entropy =      -56.87992196  energy(sigma->0) =      -56.87992196


--------------------------------------------------------------------------------------------------------




--------------------------------------- Iteration      1(   7)  ---------------------------------------


    POTLOK:  cpu time      0.3086: real time      0.3102
    SETDIJ:  cpu time      0.1906: real time      0.1913
     EDDAV:  cpu time      0.4106: real time      0.4129
       DOS:  cpu time      0.0001: real time      0.0001
    CHARGE:  cpu time      0.2021: real time      0.2029
    MIXING:  cpu time      0.0081: real time      0.0081
    --------------------------------------------
      LOOP:  cpu time      1.1200: real time      1.1256

 eigenvalue-minimisations  :    64
 total energy-change (2. order) : 0.1087818E+01  (-0.3871531E+00)
 number of electron      22.0000000 magnetization 
 augmentation part        0.4736688 magnetization 

 Broyden mixing:
  rms(total) = 0.21819E+00    rms(broyden)= 0.21814E+00
  rms(prec ) = 0.25214E+00
  weight for this iteration     100.00

 eigenvalues of (default mixing * dielectric matrix)
  average eigenvalue GAMMA=   1.9705
  1.9705  1.9705

 Free energy of the ion-electron system (eV)
  ---------------------------------------------------
  alpha Z        PSCENC =         0.62641250
  Ewald energy   TEWEN  =       951.04732928
  -Hartree energ DENC   =     -1464.44107793
  -exchange      EXHF   =         0.00000000
  -V(xc)+E(xc)   XCENC  =        71.42418735
  PAW double counting   =       272.31607275     -277.66890202
  entropy T*S    EENTRO =        -0.00000000
  eigenvalues    EBANDS =      -272.61352439
  atomic energy  EATOM  =       663.51739852
  Solvation  Ediel_sol  =         0.00000000
  ---------------------------------------------------
  free energy    TOTEN  =       -55.79210394 eV

  energy without entropy =      -55.79210394  energy(sigma->0) =      -55.79210394


--------------------------------------------------------------------------------------------------------




--------------------------------------- Iteration      1(   8)  ---------------------------------------


    POTLOK:  cpu time      0.3132: real time      0.3149
    SETDIJ:  cpu time      0.1908: real time      0.1916
     EDDAV:  cpu time      0.3661: real time      0.3681
       DOS:  cpu time      0.0001: real time      0.0001
    CHARGE:  cpu time      0.1988: real time      0.1996
    MIXING:  cpu time      0.0080: real time      0.0080
    --------------------------------------------
      LOOP:  cpu time      1.0769: real time      1.0823

 eigenvalue-minimisations  :    56
 total energy-change (2. order) : 0.1634982E+00  (-0.4550160E-01)
 number of electron      22.0000000 magnetization 
 augmentation part        0.4778229 magnetization 

 Broyden mixing:
  rms(total) = 0.53508E-01    rms(broyden)= 0.53504E-01
  rms(prec ) = 0.88140E-01
  weight for this iteration     100.00

 eigenvalues of (default mixing * dielectric matrix)
  average eigenvalue GAMMA=   1.5988
  2.2981  0.9509  1.5475

 Free energy of the ion-electron system (eV)
  ---------------------------------------------------
  alpha Z        PSCENC =         0.62641250
  Ewald energy   TEWEN  =       951.04732928
  -Hartree energ DENC   =     -1470.88086154
  -exchange      EXHF   =         0.00000000
  -V(xc)+E(xc)   XCENC  =        71.99332743
  PAW double counting   =       274.73807142     -279.93425093
  entropy T*S    EENTRO =        -0.00000000
  eigenvalues    EBANDS =      -266.73603246
  atomic energy  EATOM  =       663.51739852
  Solvation  Ediel_sol  =         0.00000000
  ---------------------------------------------------
  free energy    TOTEN  =       -55.62860577 eV

  energy without entropy =      -55.62860577  energy(sigma->0) =      -55.62860577


--------------------------------------------------------------------------------------------------------




--------------------------------------- Iteration      1(   9)  ---------------------------------------


    POTLOK:  cpu time      0.3128: real time      0.3144
    SETDIJ:  cpu time      0.1897: real time      0.1905
     EDDAV:  cpu time      0.4876: real time      0.4903
       DOS:  cpu time      0.0001: real time      0.0001
    CHARGE:  cpu time      0.2010: real time      0.2018
    MIXING:  cpu time      0.0081: real time      0.0081
    --------------------------------------------
      LOOP:  cpu time      1.1992: real time      1.2052

 eigenvalue-minimisations  :    80
 total energy-change (2. order) : 0.3259724E-01  (-0.8968729E-02)
 number of electron      22.0000000 magnetization 
 augmentation part        0.4744588 magnetization 

 Broyden mixing:
  rms(total) = 0.24538E-01    rms(broyden)= 0.24535E-01
  rms(prec ) = 0.49600E-01
  weight for this iteration     100.00

 eigenvalues of (default mixing * dielectric matrix)
  average eigenvalue GAMMA=   1.5005
  2.1195  1.7367  1.0729  1.0729

 Free energy of the ion-electron system (eV)
  ---------------------------------------------------
  alpha Z        PSCENC =         0.62641250
  Ewald energy   TEWEN  =       951.04732928
  -Hartree energ DENC   =     -1476.02902599
  -exchange      EXHF   =         0.00000000
  -V(xc)+E(xc)   XCENC  =        72.20095324
  PAW double counting   =       279.42811355     -284.65499616
  entropy T*S    EENTRO =        -0.00000000
  eigenvalues    EBANDS =      -261.73219346
  atomic energy  EATOM  =       663.51739852
  Solvation  Ediel_sol  =         0.00000000
  ---------------------------------------------------
  free energy    TOTEN  =       -55.59600853 eV

  energy without entropy =      -55.59600853  energy(sigma->0) =      -55.59600853


--------------------------------------------------------------------------------------------------------




--------------------------------------- Iteration      1(  10)  ---------------------------------------


    POTLOK:  cpu time      0.3156: real time      0.3173
    SETDIJ:  cpu time      0.1906: real time      0.1914
     EDDAV:  cpu time      0.4476: real time      0.4501
       DOS:  cpu time      0.0001: real time      0.0001
    CHARGE:  cpu time      0.2015: real time      0.2024
    MIXING:  cpu time      0.0082: real time      0.0083
    --------------------------------------------
      LOOP:  cpu time      1.1637: real time      1.1696

 eigenvalue-minimisations  :    72
 total energy-change (2. order) : 0.8084686E-02  (-0.3233645E-02)
 number of electron      22.0000000 magnetization 
 augmentation part        0.4722573 magnetization 

 Broyden mixing:
  rms(total) = 0.19073E-01    rms(broyden)= 0.19068E-01
  rms(prec ) = 0.34310E-01
  weight for this iteration     100.00

 eigenvalues of (default mixing * dielectric matrix)
  average eigenvalue GAMMA=   1.6658
  2.5109  2.5109  1.1728  1.1728  0.9617

 Free energy of the ion-electron system (eV)
  ---------------------------------------------------
  alpha Z        PSCENC =         0.62641250
  Ewald energy   TEWEN  =       951.04732928
  -Hartree energ DENC   =     -1480.08564508
  -exchange      EXHF   =         0.00000000
  -V(xc)+E(xc)   XCENC  =        72.29331956
  PAW double counting   =       279.19058143     -284.42504367
  entropy T*S    EENTRO =        -0.00000000
  eigenvalues    EBANDS =      -257.75227639
  atomic energy  EATOM  =       663.51739852
  Solvation  Ediel_sol  =         0.00000000
  ---------------------------------------------------
  free energy    TOTEN  =       -55.58792385 eV

  energy without entropy =      -55.58792385  energy(sigma->0) =      -55.58792385


--------------------------------------------------------------------------------------------------------




--------------------------------------- Iteration      1(  11)  ---------------------------------------


    POTLOK:  cpu time      0.3149: real time      0.3165
    SETDIJ:  cpu time      0.1938: real time      0.1946
     EDDAV:  cpu time      0.3666: real time      0.3686
       DOS:  cpu time      0.0001: real time      0.0001
    CHARGE:  cpu time      0.1987: real time      0.1995
    MIXING:  cpu time      0.0114: real time      0.0115
    --------------------------------------------
      LOOP:  cpu time      1.0855: real time      1.0909

 eigenvalue-minimisations  :    56
 total energy-change (2. order) : 0.1025337E-01  (-0.6557352E-03)
 number of electron      22.0000000 magnetization 
 augmentation part        0.4724315 magnetization 

 Broyden mixing:
  rms(total) = 0.87701E-02    rms(broyden)= 0.87699E-02
  rms(prec ) = 0.18935E-01
  weight for this iteration     100.00

 eigenvalues of (default mixing * dielectric matrix)
  average eigenvalue GAMMA=   1.7698
  3.2192  2.3881  1.7935  1.1526  1.1526  0.9127

 Free energy of the ion-electron system (eV)
  ---------------------------------------------------
  alpha Z        PSCENC =         0.62641250
  Ewald energy   TEWEN  =       951.04732928
  -Hartree energ DENC   =     -1483.13835089
  -exchange      EXHF   =         0.00000000
  -V(xc)+E(xc)   XCENC  =        72.37568717
  PAW double counting   =       277.63902773     -282.85420341
  entropy T*S    EENTRO =        -0.00000000
  eigenvalues    EBANDS =      -254.79097138
  atomic energy  EATOM  =       663.51739852
  Solvation  Ediel_sol  =         0.00000000
  ---------------------------------------------------
  free energy    TOTEN  =       -55.57767048 eV

  energy without entropy =      -55.57767048  energy(sigma->0) =      -55.57767048


--------------------------------------------------------------------------------------------------------




--------------------------------------- Iteration      1(  12)  ---------------------------------------


    POTLOK:  cpu time      0.3127: real time      0.3144
    SETDIJ:  cpu time      0.1934: real time      0.1942
     EDDAV:  cpu time      0.4110: real time      0.4133
       DOS:  cpu time      0.0001: real time      0.0001
    CHARGE:  cpu time      0.2006: real time      0.2015
    MIXING:  cpu time      0.0092: real time      0.0092
    --------------------------------------------
      LOOP:  cpu time      1.1270: real time      1.1327

 eigenvalue-minimisations  :    64
 total energy-change (2. order) :-0.1885235E-02  (-0.5437000E-03)
 number of electron      22.0000000 magnetization 
 augmentation part        0.4716213 magnetization 

 Broyden mixing:
  rms(total) = 0.64945E-02    rms(broyden)= 0.64941E-02
  rms(prec ) = 0.11918E-01
  weight for this iteration     100.00

 eigenvalues of (default mixing * dielectric matrix)
  average eigenvalue GAMMA=   1.8842
  4.4122  2.5046  2.0429  1.1384  1.1384  1.0367  0.9160

 Free energy of the ion-electron system (eV)
  ---------------------------------------------------
  alpha Z        PSCENC =         0.62641250
  Ewald energy   TEWEN  =       951.04732928
  -Hartree energ DENC   =     -1486.21430147
  -exchange      EXHF   =         0.00000000
  -V(xc)+E(xc)   XCENC  =        72.44308488
  PAW double counting   =       277.93363603     -283.15636074
  entropy T*S    EENTRO =        -0.00000000
  eigenvalues    EBANDS =      -251.77675471
  atomic energy  EATOM  =       663.51739852
  Solvation  Ediel_sol  =         0.00000000
  ---------------------------------------------------
  free energy    TOTEN  =       -55.57955571 eV

  energy without entropy =      -55.57955571  energy(sigma->0) =      -55.57955571


--------------------------------------------------------------------------------------------------------




--------------------------------------- Iteration      1(  13)  ---------------------------------------


    POTLOK:  cpu time      0.3089: real time      0.3106
    SETDIJ:  cpu time      0.1943: real time      0.1951
     EDDAV:  cpu time      0.3650: real time      0.3669
       DOS:  cpu time      0.0001: real time      0.0001
    CHARGE:  cpu time      0.1988: real time      0.1996
    MIXING:  cpu time      0.0130: real time      0.0130
    --------------------------------------------
      LOOP:  cpu time      1.0800: real time      1.0854

 eigenvalue-minimisations  :    56
 total energy-change (2. order) :-0.6705333E-02  (-0.1238384E-03)
 number of electron      22.0000000 magnetization 
 augmentation part        0.4718098 magnetization 

 Broyden mixing:
  rms(total) = 0.34820E-02    rms(broyden)= 0.34820E-02
  rms(prec ) = 0.70208E-02
  weight for this iteration     100.00

 eigenvalues of (default mixing * dielectric matrix)
  average eigenvalue GAMMA=   2.0515
  5.0044  2.9212  2.4032  1.8658  1.1122  1.1122  0.9174  1.0754

 Free energy of the ion-electron system (eV)
  ---------------------------------------------------
  alpha Z        PSCENC =         0.62641250
  Ewald energy   TEWEN  =       951.04732928
  -Hartree energ DENC   =     -1486.40888359
  -exchange      EXHF   =         0.00000000
  -V(xc)+E(xc)   XCENC  =        72.42509905
  PAW double counting   =       277.44645514     -282.66652025
  entropy T*S    EENTRO =        -0.00000000
  eigenvalues    EBANDS =      -251.57355170
  atomic energy  EATOM  =       663.51739852
  Solvation  Ediel_sol  =         0.00000000
  ---------------------------------------------------
  free energy    TOTEN  =       -55.58626105 eV

  energy without entropy =      -55.58626105  energy(sigma->0) =      -55.58626105


--------------------------------------------------------------------------------------------------------




--------------------------------------- Iteration      1(  14)  ---------------------------------------


    POTLOK:  cpu time      0.3079: real time      0.3095
    SETDIJ:  cpu time      0.1943: real time      0.1952
     EDDAV:  cpu time      0.4099: real time      0.4121
       DOS:  cpu time      0.0001: real time      0.0001
    CHARGE:  cpu time      0.1989: real time      0.1997
    MIXING:  cpu time      0.0095: real time      0.0095
    --------------------------------------------
      LOOP:  cpu time      1.1205: real time      1.1261

 eigenvalue-minimisations  :    64
 total energy-change (2. order) :-0.9332530E-02  (-0.2522370E-03)
 number of electron      22.0000000 magnetization 
 augmentation part        0.4720327 magnetization 

 Broyden mixing:
  rms(total) = 0.38539E-02    rms(broyden)= 0.38535E-02
  rms(prec ) = 0.52607E-02
  weight for this iteration     100.00

 eigenvalues of (default mixing * dielectric matrix)
  average eigenvalue GAMMA=   2.1635
  6.1537  3.4834  2.2469  1.9764  1.5082  1.0647  1.0647  0.9134  1.0596

 Free energy of the ion-electron system (eV)
  ---------------------------------------------------
  alpha Z        PSCENC =         0.62641250
  Ewald energy   TEWEN  =       951.04732928
  -Hartree energ DENC   =     -1486.45336081
  -exchange      EXHF   =         0.00000000
  -V(xc)+E(xc)   XCENC  =        72.40421098
  PAW double counting   =       277.34769471     -282.56370953
  entropy T*S    EENTRO =        -0.00000000
  eigenvalues    EBANDS =      -251.52156923
  atomic energy  EATOM  =       663.51739852
  Solvation  Ediel_sol  =         0.00000000
  ---------------------------------------------------
  free energy    TOTEN  =       -55.59559358 eV

  energy without entropy =      -55.59559358  energy(sigma->0) =      -55.59559358


--------------------------------------------------------------------------------------------------------




--------------------------------------- Iteration      1(  15)  ---------------------------------------


    POTLOK:  cpu time      0.3048: real time      0.3064
    SETDIJ:  cpu time      0.1945: real time      0.1954
     EDDAV:  cpu time      0.4448: real time      0.4473
       DOS:  cpu time      0.0001: real time      0.0001
    CHARGE:  cpu time      0.1989: real time      0.1997
    MIXING:  cpu time      0.0099: real time      0.0099
    --------------------------------------------
      LOOP:  cpu time      1.1531: real time      1.1588

 eigenvalue-minimisations  :    72
 total energy-change (2. order) :-0.2231518E-02  (-0.7205191E-04)
 number of electron      22.0000000 magnetization 
 augmentation part        0.4717311 magnetization 

 Broyden mixing:
  rms(total) = 0.13316E-02    rms(broyden)= 0.13314E-02
  rms(prec ) = 0.21675E-02
  weight for this iteration     100.00

 eigenvalues of (default mixing * dielectric matrix)
  average eigenvalue GAMMA=   2.3144
  7.1656  4.1345  2.3650  2.3650  1.5655  1.5191  0.9164  1.0240  1.0447  1.0447

 Free energy of the ion-electron system (eV)
  ---------------------------------------------------
  alpha Z        PSCENC =         0.62641250
  Ewald energy   TEWEN  =       951.04732928
  -Hartree energ DENC   =     -1486.83002249
  -exchange      EXHF   =         0.00000000
  -V(xc)+E(xc)   XCENC  =        72.40783325
  PAW double counting   =       277.55314517     -282.77246024
  entropy T*S    EENTRO =        -0.00000000
  eigenvalues    EBANDS =      -251.14746109
  atomic energy  EATOM  =       663.51739852
  Solvation  Ediel_sol  =         0.00000000
  ---------------------------------------------------
  free energy    TOTEN  =       -55.59782510 eV

  energy without entropy =      -55.59782510  energy(sigma->0) =      -55.59782510


--------------------------------------------------------------------------------------------------------




--------------------------------------- Iteration      1(  16)  ---------------------------------------


    POTLOK:  cpu time      0.3012: real time      0.3028
    SETDIJ:  cpu time      0.1943: real time      0.1951
     EDDAV:  cpu time      0.4089: real time      0.4112
       DOS:  cpu time      0.0001: real time      0.0001
    CHARGE:  cpu time      0.1989: real time      0.1997
    MIXING:  cpu time      0.0111: real time      0.0112
    --------------------------------------------
      LOOP:  cpu time      1.1146: real time      1.1202

 eigenvalue-minimisations  :    64
 total energy-change (2. order) :-0.1711377E-02  (-0.3246212E-04)
 number of electron      22.0000000 magnetization 
 augmentation part        0.4718224 magnetization 

 Broyden mixing:
  rms(total) = 0.67743E-03    rms(broyden)= 0.67737E-03
  rms(prec ) = 0.10892E-02
  weight for this iteration     100.00

 eigenvalues of (default mixing * dielectric matrix)
  average eigenvalue GAMMA=   2.3368
  7.7933  4.5752  2.7083  2.2682  1.6858  1.3597  1.3597  1.0280  1.0280  0.9341
  0.9645

 Free energy of the ion-electron system (eV)
  ---------------------------------------------------
  alpha Z        PSCENC =         0.62641250
  Ewald energy   TEWEN  =       951.04732928
  -Hartree energ DENC   =     -1486.70169078
  -exchange      EXHF   =         0.00000000
  -V(xc)+E(xc)   XCENC  =        72.40137464
  PAW double counting   =       277.46183289     -282.68003711
  entropy T*S    EENTRO =        -0.00000000
  eigenvalues    EBANDS =      -251.27215641
  atomic energy  EATOM  =       663.51739852
  Solvation  Ediel_sol  =         0.00000000
  ---------------------------------------------------
  free energy    TOTEN  =       -55.59953647 eV

  energy without entropy =      -55.59953647  energy(sigma->0) =      -55.59953647


--------------------------------------------------------------------------------------------------------




--------------------------------------- Iteration      1(  17)  ---------------------------------------


    POTLOK:  cpu time      0.2995: real time      0.3012
    SETDIJ:  cpu time      0.1935: real time      0.1943
     EDDAV:  cpu time      0.4464: real time      0.4490
       DOS:  cpu time      0.0001: real time      0.0001
    CHARGE:  cpu time      0.1992: real time      0.1999
    MIXING:  cpu time      0.0122: real time      0.0123
    --------------------------------------------
      LOOP:  cpu time      1.1510: real time      1.1569

 eigenvalue-minimisations  :    72
 total energy-change (2. order) :-0.3508866E-03  (-0.4601407E-05)
 number of electron      22.0000000 magnetization 
 augmentation part        0.4717710 magnetization 

 Broyden mixing:
  rms(total) = 0.31824E-03    rms(broyden)= 0.31819E-03
  rms(prec ) = 0.55239E-03
  weight for this iteration     100.00

 eigenvalues of (default mixing * dielectric matrix)
  average eigenvalue GAMMA=   2.4096
  8.4015  4.9960  2.7447  2.6981  2.0398  1.7873  1.0233  1.0233  1.1740  1.1740
  0.9268  0.9268

 Free energy of the ion-electron system (eV)
  ---------------------------------------------------
  alpha Z        PSCENC =         0.62641250
  Ewald energy   TEWEN  =       951.04732928
  -Hartree energ DENC   =     -1486.79226127
  -exchange      EXHF   =         0.00000000
  -V(xc)+E(xc)   XCENC  =        72.40399611
  PAW double counting   =       277.51354531     -282.73218862
  entropy T*S    EENTRO =        -0.00000000
  eigenvalues    EBANDS =      -251.18411919
  atomic energy  EATOM  =       663.51739852
  Solvation  Ediel_sol  =         0.00000000
  ---------------------------------------------------
  free energy    TOTEN  =       -55.59988736 eV

  energy without entropy =      -55.59988736  energy(sigma->0) =      -55.59988736


--------------------------------------------------------------------------------------------------------




--------------------------------------- Iteration      1(  18)  ---------------------------------------


    POTLOK:  cpu time      0.2976: real time      0.2992
    SETDIJ:  cpu time      0.1933: real time      0.1942
     EDDAV:  cpu time      0.4024: real time      0.4047
       DOS:  cpu time      0.0001: real time      0.0001
    CHARGE:  cpu time      0.1984: real time      0.1992
    MIXING:  cpu time      0.0115: real time      0.0115
    --------------------------------------------
      LOOP:  cpu time      1.1033: real time      1.1088

 eigenvalue-minimisations  :    64
 total energy-change (2. order) :-0.2623924E-03  (-0.1425892E-05)
 number of electron      22.0000000 magnetization 
 augmentation part        0.4717769 magnetization 

 Broyden mixing:
  rms(total) = 0.17720E-03    rms(broyden)= 0.17715E-03
  rms(prec ) = 0.28691E-03
  weight for this iteration     100.00

 eigenvalues of (default mixing * dielectric matrix)
  average eigenvalue GAMMA=   2.3889
  8.4965  5.2389  3.1936  2.4947  2.2573  1.5701  1.5701  1.3061  1.0270  1.0270
  0.9996  0.9377  0.9377

 Free energy of the ion-electron system (eV)
  ---------------------------------------------------
  alpha Z        PSCENC =         0.62641250
  Ewald energy   TEWEN  =       951.04732928
  -Hartree energ DENC   =     -1486.77790327
  -exchange      EXHF   =         0.00000000
  -V(xc)+E(xc)   XCENC  =        72.40268021
  PAW double counting   =       277.48215015     -282.70080174
  entropy T*S    EENTRO =        -0.00000000
  eigenvalues    EBANDS =      -251.19741541
  atomic energy  EATOM  =       663.51739852
  Solvation  Ediel_sol  =         0.00000000
  ---------------------------------------------------
  free energy    TOTEN  =       -55.60014975 eV

  energy without entropy =      -55.60014975  energy(sigma->0) =      -55.60014975


--------------------------------------------------------------------------------------------------------




--------------------------------------- Iteration      1(  19)  ---------------------------------------


    POTLOK:  cpu time      0.2982: real time      0.2998
    SETDIJ:  cpu time      0.1935: real time      0.1943
     EDDAV:  cpu time      0.3647: real time      0.3668
       DOS:  cpu time      0.0001: real time      0.0001
    CHARGE:  cpu time      0.1977: real time      0.1985
    MIXING:  cpu time      0.0113: real time      0.0113
    --------------------------------------------
      LOOP:  cpu time      1.0656: real time      1.0708

 eigenvalue-minimisations  :    56
 total energy-change (2. order) :-0.7022596E-04  (-0.1838723E-06)
 number of electron      22.0000000 magnetization 
 augmentation part        0.4717783 magnetization 

 Broyden mixing:
  rms(total) = 0.78269E-04    rms(broyden)= 0.78188E-04
  rms(prec ) = 0.15275E-03
  weight for this iteration     100.00

 eigenvalues of (default mixing * dielectric matrix)
  average eigenvalue GAMMA=   2.4260
  8.7688  5.6106  3.6793  2.5785  2.4471  1.8389  1.7270  1.2102  1.2102  1.0278
  1.0278  0.9217  0.9578  0.9578

 Free energy of the ion-electron system (eV)
  ---------------------------------------------------
  alpha Z        PSCENC =         0.62641250
  Ewald energy   TEWEN  =       951.04732928
  -Hartree energ DENC   =     -1486.79160599
  -exchange      EXHF   =         0.00000000
  -V(xc)+E(xc)   XCENC  =        72.40313041
  PAW double counting   =       277.48677966     -282.70537603
  entropy T*S    EENTRO =        -0.00000000
  eigenvalues    EBANDS =      -251.18428833
  atomic energy  EATOM  =       663.51739852
  Solvation  Ediel_sol  =         0.00000000
  ---------------------------------------------------
  free energy    TOTEN  =       -55.60021998 eV

  energy without entropy =      -55.60021998  energy(sigma->0) =      -55.60021998


--------------------------------------------------------------------------------------------------------




--------------------------------------- Iteration      1(  20)  ---------------------------------------


    POTLOK:  cpu time      0.3034: real time      0.3050
    SETDIJ:  cpu time      0.1929: real time      0.1937
     EDDAV:  cpu time      0.3268: real time      0.3286
       DOS:  cpu time      0.0001: real time      0.0001
    CHARGE:  cpu time      0.1971: real time      0.1979
    MIXING:  cpu time      0.0125: real time      0.0125
    --------------------------------------------
      LOOP:  cpu time      1.0328: real time      1.0379

 eigenvalue-minimisations  :    48
 total energy-change (2. order) :-0.3668682E-04  (-0.5750373E-07)
 number of electron      22.0000000 magnetization 
 augmentation part        0.4717790 magnetization 

 Broyden mixing:
  rms(total) = 0.56297E-04    rms(broyden)= 0.56193E-04
  rms(prec ) = 0.92296E-04
  weight for this iteration     100.00

 eigenvalues of (default mixing * dielectric matrix)
  average eigenvalue GAMMA=   2.3758
  8.8128  5.6570  3.8494  2.4739  2.4317  1.7018  1.7018  1.6006  1.4312  1.0309
  1.0309  0.9328  0.9359  1.0230  1.0230

 Free energy of the ion-electron system (eV)
  ---------------------------------------------------
  alpha Z        PSCENC =         0.62641250
  Ewald energy   TEWEN  =       951.04732928
  -Hartree energ DENC   =     -1486.79372418
  -exchange      EXHF   =         0.00000000
  -V(xc)+E(xc)   XCENC  =        72.40304051
  PAW double counting   =       277.49013951     -282.70873525
  entropy T*S    EENTRO =        -0.00000000
  eigenvalues    EBANDS =      -251.18211756
  atomic energy  EATOM  =       663.51739852
  Solvation  Ediel_sol  =         0.00000000
  ---------------------------------------------------
  free energy    TOTEN  =       -55.60025666 eV

  energy without entropy =      -55.60025666  energy(sigma->0) =      -55.60025666


--------------------------------------------------------------------------------------------------------




--------------------------------------- Iteration      1(  21)  ---------------------------------------


    POTLOK:  cpu time      0.3070: real time      0.3087
    SETDIJ:  cpu time      0.1937: real time      0.1946
     EDDAV:  cpu time      0.2831: real time      0.2847
       DOS:  cpu time      0.0001: real time      0.0001
    CHARGE:  cpu time      0.1972: real time      0.1980
    MIXING:  cpu time      0.0123: real time      0.0124
    --------------------------------------------
      LOOP:  cpu time      0.9935: real time      0.9984

 eigenvalue-minimisations  :    40
 total energy-change (2. order) :-0.1315637E-04  (-0.1110427E-07)
 number of electron      22.0000000 magnetization 
 augmentation part        0.4717800 magnetization 

 Broyden mixing:
  rms(total) = 0.24452E-04    rms(broyden)= 0.24214E-04
  rms(prec ) = 0.48171E-04
  weight for this iteration     100.00

 eigenvalues of (default mixing * dielectric matrix)
  average eigenvalue GAMMA=   2.4719
  9.0157  6.2242  4.5456  3.1736  2.4291  2.3371  1.7815  1.4310  1.3433  1.3433
  1.0318  1.0318  1.0022  1.0022  0.9291  0.9291

 Free energy of the ion-electron system (eV)
  ---------------------------------------------------
  alpha Z        PSCENC =         0.62641250
  Ewald energy   TEWEN  =       951.04732928
  -Hartree energ DENC   =     -1486.79517596
  -exchange      EXHF   =         0.00000000
  -V(xc)+E(xc)   XCENC  =        72.40301769
  PAW double counting   =       277.48890497     -282.70749710
  entropy T*S    EENTRO =        -0.00000000
  eigenvalues    EBANDS =      -251.18065973
  atomic energy  EATOM  =       663.51739852
  Solvation  Ediel_sol  =         0.00000000
  ---------------------------------------------------
  free energy    TOTEN  =       -55.60026982 eV

  energy without entropy =      -55.60026982  energy(sigma->0) =      -55.60026982


--------------------------------------------------------------------------------------------------------




--------------------------------------- Iteration      1(  22)  ---------------------------------------


    POTLOK:  cpu time      0.3106: real time      0.3123
    SETDIJ:  cpu time      0.1923: real time      0.1931
     EDDAV:  cpu time      0.2880: real time      0.2895
       DOS:  cpu time      0.0001: real time      0.0001
    CHARGE:  cpu time      0.1983: real time      0.1991
    MIXING:  cpu time      0.0126: real time      0.0127
    --------------------------------------------
      LOOP:  cpu time      1.0020: real time      1.0068

 eigenvalue-minimisations  :    40
 total energy-change (2. order) :-0.7312211E-05  (-0.8825028E-08)
 number of electron      22.0000000 magnetization 
 augmentation part        0.4717809 magnetization 

 Broyden mixing:
  rms(total) = 0.16464E-04    rms(broyden)= 0.16113E-04
  rms(prec ) = 0.26404E-04
  weight for this iteration     100.00

 eigenvalues of (default mixing * dielectric matrix)
  average eigenvalue GAMMA=   2.4804
  9.0913  6.4225  4.8072  3.1146  2.4610  2.4610  1.8736  1.8736  1.4307  1.4307
  1.0272  1.0272  1.2120  1.0695  0.9255  0.9756  0.9636

 Free energy of the ion-electron system (eV)
  ---------------------------------------------------
  alpha Z        PSCENC =         0.62641250
  Ewald energy   TEWEN  =       951.04732928
  -Hartree energ DENC   =     -1486.79388646
  -exchange      EXHF   =         0.00000000
  -V(xc)+E(xc)   XCENC  =        72.40291431
  PAW double counting   =       277.48936092     -282.70795571
  entropy T*S    EENTRO =        -0.00000000
  eigenvalues    EBANDS =      -251.18185049
  atomic energy  EATOM  =       663.51739852
  Solvation  Ediel_sol  =         0.00000000
  ---------------------------------------------------
  free energy    TOTEN  =       -55.60027713 eV

  energy without entropy =      -55.60027713  energy(sigma->0) =      -55.60027713


--------------------------------------------------------------------------------------------------------




--------------------------------------- Iteration      1(  23)  ---------------------------------------


    POTLOK:  cpu time      0.3087: real time      0.3103
    SETDIJ:  cpu time      0.1934: real time      0.1942
     EDDAV:  cpu time      0.3230: real time      0.3248
       DOS:  cpu time      0.0001: real time      0.0001
    CHARGE:  cpu time      0.1973: real time      0.1981
    MIXING:  cpu time      0.0124: real time      0.0124
    --------------------------------------------
      LOOP:  cpu time      1.0349: real time      1.0400

 eigenvalue-minimisations  :    48
 total energy-change (2. order) :-0.2638344E-05  (-0.4093511E-08)
 number of electron      22.0000000 magnetization 
 augmentation part        0.4717804 magnetization 

 Broyden mixing:
  rms(total) = 0.88215E-05    rms(broyden)= 0.81471E-05
  rms(prec ) = 0.13811E-04
  weight for this iteration     100.00

 eigenvalues of (default mixing * dielectric matrix)
  average eigenvalue GAMMA=   2.4864
  9.1057  6.7989  5.0552  3.5724  2.7786  2.3520  2.2059  1.8012  1.4128  1.4128
  1.2949  1.0276  1.0276  1.0563  1.0563  0.9344  0.9344  0.9286

 Free energy of the ion-electron system (eV)
  ---------------------------------------------------
  alpha Z        PSCENC =         0.62641250
  Ewald energy   TEWEN  =       951.04732928
  -Hartree energ DENC   =     -1486.79571942
  -exchange      EXHF   =         0.00000000
  -V(xc)+E(xc)   XCENC  =        72.40296783
  PAW double counting   =       277.48899436     -282.70759351
  entropy T*S    EENTRO =        -0.00000000
  eigenvalues    EBANDS =      -251.18006933
  atomic energy  EATOM  =       663.51739852
  Solvation  Ediel_sol  =         0.00000000
  ---------------------------------------------------
  free energy    TOTEN  =       -55.60027977 eV

  energy without entropy =      -55.60027977  energy(sigma->0) =      -55.60027977


--------------------------------------------------------------------------------------------------------




--------------------------------------- Iteration      1(  24)  ---------------------------------------


    POTLOK:  cpu time      0.3142: real time      0.3159
    SETDIJ:  cpu time      0.1930: real time      0.1938
     EDDAV:  cpu time      0.2834: real time      0.2850
       DOS:  cpu time      0.0001: real time      0.0001
    --------------------------------------------
      LOOP:  cpu time      0.7906: real time      0.7947

 eigenvalue-minimisations  :    40
 total energy-change (2. order) :-0.7520659E-06  (-0.1622356E-08)
 number of electron      22.0000000 magnetization 
 augmentation part        0.4717804 magnetization 

 Free energy of the ion-electron system (eV)
  ---------------------------------------------------
  alpha Z        PSCENC =         0.62641250
  Ewald energy   TEWEN  =       951.04732928
  -Hartree energ DENC   =     -1486.79602355
  -exchange      EXHF   =         0.00000000
  -V(xc)+E(xc)   XCENC  =        72.40298061
  PAW double counting   =       277.48968997     -282.70829347
  entropy T*S    EENTRO =        -0.00000000
  eigenvalues    EBANDS =      -251.17977439
  atomic energy  EATOM  =       663.51739852
  Solvation  Ediel_sol  =         0.00000000
  ---------------------------------------------------
  free energy    TOTEN  =       -55.60028052 eV

  energy without entropy =      -55.60028052  energy(sigma->0) =      -55.60028052


--------------------------------------------------------------------------------------------------------




 average (electrostatic) potential at core
  the test charge radii are     0.6991  0.5201
  (the norm of the test charge is              1.0000)
       1 -58.7860       2 -58.6726       3 -58.6249       4 -58.8057       5 -41.7392
       6 -41.8126       7 -41.3901       8 -41.5802       9 -41.7392      10 -41.5877
 
 
 
 E-fermi :  -5.3095     XC(G=0):  -0.4349     alpha+bet : -0.1681

 Fermi energy:        -5.3094648932

 k-point     1 :       0.0000    0.0000    0.0000
  band No.  band energies     occupation 
      1     -20.5641      2.00000
      2     -16.3348      2.00000
      3     -15.2401      2.00000
      4     -12.2835      2.00000
      5     -11.6459      2.00000
      6     -10.8571      2.00000
      7      -9.1524      2.00000
      8      -9.0085      2.00000
      9      -8.4558      2.00000
     10      -6.5083      2.00000
     11      -5.5394      2.00000
     12      -1.0800      0.00000
     13      -0.3824      0.00000
     14      -0.1443      0.00000
     15       0.0951      0.00000
     16       0.2921      0.00000
     17       0.3695      0.00000
     18       0.5988      0.00000
     19       0.6281      0.00000
     20       0.6943      0.00000
     21       0.8535      0.00000
     22       0.9273      0.00000
     23       1.0174      0.00000
     24       1.0494      0.00000


--------------------------------------------------------------------------------------------------------


 soft charge-density along one line, spin component           1
         0         1         2         3         4         5         6         7         8         9
 total charge-density along one line
 
 pseudopotential strength for first ion, spin component:           1
 10.259   0.020  -0.001   0.004  -0.001   0.002   0.002   0.001
  0.020  -0.001  -0.000  -0.000   0.000   0.000   0.000   0.000
 -0.001  -0.000  -4.381   0.005  -0.002  -0.015   0.001  -0.000
  0.004  -0.000   0.005  -4.367   0.001   0.001  -0.011   0.000
 -0.001   0.000  -0.002   0.001  -4.379  -0.000   0.000  -0.015
  0.002   0.000  -0.015   0.001  -0.000  -0.773   0.000  -0.000
  0.002   0.000   0.001  -0.011   0.000   0.000  -0.773   0.000
  0.001   0.000  -0.000   0.000  -0.015  -0.000   0.000  -0.773
 total augmentation occupancy for first ion, spin component:           1
  1.444  -1.005  -0.014  -0.058  -0.002  -0.012  -0.025  -0.003
 -1.005   0.823   0.057   0.092   0.013   0.033   0.011   0.014
 -0.014   0.057   1.164  -0.058   0.008   0.193  -0.017   0.007
 -0.058   0.092  -0.058   0.937   0.009  -0.018   0.119   0.001
 -0.002   0.013   0.008   0.009   1.160   0.007   0.002   0.184
 -0.012   0.033   0.193  -0.018   0.007   0.035  -0.005   0.003
 -0.025   0.011  -0.017   0.119   0.002  -0.005   0.018  -0.001
 -0.003   0.014   0.007   0.001   0.184   0.003  -0.001   0.031


------------------------ aborting loop because EDIFF is reached ----------------------------------------


    CHARGE:  cpu time      0.1934: real time      0.1942
    FORLOC:  cpu time      0.0358: real time      0.0360
    FORNL :  cpu time      1.0749: real time      1.0800
    STRESS:  cpu time      3.4008: real time      3.4169
    FORHAR:  cpu time      0.1118: real time      0.1123
    MIXING:  cpu time      0.0118: real time      0.0119
    OFIELD:  cpu time      0.0001: real time      0.0001

  FORCE on cell =-STRESS in cart. coord.  units (eV):
  Direction    XX          YY          ZZ          XY          YZ          ZX
  --------------------------------------------------------------------------------------
  Alpha Z     0.62641     0.62641     0.62641
  Ewald      81.18988   406.02511   463.83204   194.98723    29.57981   -52.17818
  Hartree   344.10188   536.32231   606.37148   113.42140    17.31755   -36.25231
  E(xc)     -76.26764   -75.56117   -75.66793     0.42864     0.08026    -0.07492
  Local    -627.67029 -1136.03490 -1274.50318  -303.12967   -46.19474    89.08019
  n-local   -29.14770   -28.88766   -28.62129     0.09356     0.14924    -0.09040
  augment    -0.55304    -0.56473    -0.50901    -0.00737     0.00216    -0.00815
  Kinetic   307.03581   298.22694   296.65506    -5.03889    -1.42700     1.26492
  Fock        0.00000     0.00000     0.00000     0.00000     0.00000     0.00000
  -------------------------------------------------------------------------------------
  Total      -0.68468     0.15229   -11.81641     0.75491    -0.49272     1.74115
  in kB      -0.32503     0.07230    -5.60948     0.35837    -0.23390     0.82656
  external pressure =       -1.95 kB  Pullay stress =        0.00 kB


 VOLUME and BASIS-vectors are now :
 -----------------------------------------------------------------------------
  energy-cutoff  :      520.00
  volume of cell :     3375.00
      direct lattice vectors                 reciprocal lattice vectors
    15.000000000  0.000000000  0.000000000     0.066666667  0.000000000  0.000000000
     0.000000000 15.000000000  0.000000000     0.000000000  0.066666667  0.000000000
     0.000000000  0.000000000 15.000000000     0.000000000  0.000000000  0.066666667

  length of vectors
    15.000000000 15.000000000 15.000000000     0.066666667  0.066666667  0.066666667


 FORCES acting on ions
    electron-ion (+dipol)            ewald-force                    non-local-force                 convergence-correction
 -----------------------------------------------------------------------------------------------
   -.616E+02 -.102E+03 0.866E+02   0.627E+02 0.105E+03 -.861E+02   -.303E+00 -.497E+00 0.197E+01   -.295E-04 -.410E-04 0.886E-04
   0.328E+02 0.107E+03 0.135E+03   -.350E+02 -.111E+03 -.134E+03   -.310E+00 -.653E-01 0.208E+01   0.199E-05 0.498E-04 0.113E-03
   0.691E+02 0.117E+03 -.104E+03   -.701E+02 -.120E+03 0.102E+03   0.660E+00 0.100E+01 -.178E+01   0.503E-04 0.100E-03 -.667E-04
   -.239E+02 -.897E+02 -.112E+03   0.244E+02 0.913E+02 0.112E+03   -.143E+00 -.516E+00 -.192E+01   -.818E-05 -.503E-04 -.656E-04
   -.667E+02 -.117E+02 0.236E+02   0.719E+02 0.119E+02 -.246E+02   -.535E+01 -.185E+00 0.105E+01   -.122E-04 -.158E-07 0.890E-05
   0.229E+02 -.569E+02 0.376E+02   -.256E+02 0.613E+02 -.400E+02   0.263E+01 -.433E+01 0.236E+01   0.424E-05 -.981E-05 0.111E-04
   0.163E+02 0.456E+02 0.460E+02   -.167E+02 -.470E+02 -.477E+02   0.123E+01 0.326E+01 0.288E+01   0.260E-05 0.122E-04 0.139E-04
   0.295E+02 0.514E+02 -.343E+02   -.310E+02 -.540E+02 0.362E+02   0.219E+01 0.388E+01 -.226E+01   0.766E-05 0.171E-04 -.886E-05
   -.534E+02 -.893E+01 -.461E+02   0.579E+02 0.902E+01 0.489E+02   -.465E+01 -.716E-01 -.291E+01   -.230E-04 -.227E-05 -.191E-04
   0.358E+02 -.503E+02 -.327E+02   -.386E+02 0.534E+02 0.340E+02   0.322E+01 -.364E+01 -.167E+01   0.163E-04 -.218E-04 -.123E-04
 -----------------------------------------------------------------------------------------------
   0.829E+00 0.116E+01 0.198E+00   0.711E-14 -.284E-13 0.782E-13   -.821E+00 -.116E+01 -.199E+00   0.102E-04 0.543E-04 0.632E-04
 
 
 POSITION                                       TOTAL-FORCE (eV/Angst)
 -----------------------------------------------------------------------------------
      7.89100      8.06100      6.67400         0.745300      1.785702      2.517755
      7.26400      6.76800      6.67500        -2.450254     -3.984639      3.207540
      7.02300      6.66700      8.09400        -0.317785     -1.567934     -3.866172
      7.58800      7.98700      8.47000         0.354624      1.082704     -2.123866
      8.97200      8.09700      6.45200        -0.108652      0.075834     -0.006293
      7.37500      8.90400      6.20100        -0.053779      0.086834     -0.089060
      6.96100      5.94200      5.89100         0.778962      1.816749      1.111630
      6.52700      5.79600      8.64000         0.662368      1.243405     -0.342649
      8.51900      7.99800      9.06200        -0.105557      0.017107     -0.079316
      6.87900      8.78100      8.84000         0.494773     -0.555762     -0.329569
 -----------------------------------------------------------------------------------
    total drift:                                0.008477     -0.003301     -0.000347


--------------------------------------------------------------------------------------------------------



  FREE ENERGIE OF THE ION-ELECTRON SYSTEM (eV)
  ---------------------------------------------------
  free  energy   TOTEN  =       -55.60028052 eV

  energy  without entropy=      -55.60028052  energy(sigma->0) =      -55.60028052
 


--------------------------------------------------------------------------------------------------------


    POTLOK:  cpu time      0.5084: real time      0.5109


--------------------------------------------------------------------------------------------------------


 stress matrix after NEB project (eV)
     -0.68468      0.75491      1.74115
      0.75491      0.15229     -0.49272
      1.74115     -0.49272    -11.81641
  FORCES: max atom, RMS     5.671808    2.711631
  FORCE total and by dimension    8.574932    3.984639
  Stress total and by dimension   12.157637   11.816414
     LOOP+:  cpu time     28.9753: real time     29.1196
    4ORBIT:  cpu time      0.0000: real time      0.0000

 total amount of memory used by VASP MPI-rank0   224780. kBytes
=======================================================================

   base      :      30000. kBytes
   nonlr-proj:       1256. kBytes
   fftplans  :     123538. kBytes
   grid      :      67787. kBytes
   one-center:         15. kBytes
   wavefun   :       2184. kBytes
 
  
  
 General timing and accounting informations for this job:
 ========================================================
  
                  Total CPU time used (sec):       35.561
                            User time (sec):       32.433
                          System time (sec):        3.128
                         Elapsed time (sec):       37.237
  
                   Maximum memory used (kb):      552184.
                   Average memory used (kb):          N/A
  
                          Minor page faults:       152469
                          Major page faults:         5456
                 Voluntary context switches:         3126
