 vasp.6.4.2 20Jul23 (build Apr 10 2024 13:39:58) complex                        
  
 executed on             LinuxIFC date 2024.05.18  04:25:46
 running   16 mpi-ranks, on    1 nodes
 distrk:  each k-point on   16 cores,    1 groups
 distr:  one band on NCORE=   2 cores,    8 groups


--------------------------------------------------------------------------------------------------------


 INCAR:
   ISTART = 0
   ISPIN = 1
   LREAL = Auto
   ENCUT = 520
   NPAR = 8
   LPLANE = .TRUE.
   LSCALU = .FALSE.
   NSIM = 4
   LWAVE = .FALSE.
   LCHARG = .FALSE.
   ADDGRID = .TRUE.
   LASPH = .TRUE.
   PREC = Accurate
   ISMEAR = 0
   SIGMA = 0.05
   EDIFF = 1E-06
   NSW = 0
   TEBEG = 300
   TEEND = 700     	
   ISYM = 0
   NWRITE = 2

 POTCAR:   PAW_PBE C 08Apr2002                    
 POTCAR:   PAW_PBE H 15Jun2001                    
 POTCAR:   PAW_PBE C 08Apr2002                    
   VRHFIN =C: s2p2                                                                                  
   LEXCH  = PE                                                                                      
   EATOM  =   147.1560 eV,   10.8157 Ry                                                             
                                                                                                    
   TITEL  = PAW_PBE C 08Apr2002                                                                     
   LULTRA =        F    use ultrasoft PP ?                                                          
   IUNSCR =        0    unscreen: 0-lin 1-nonlin 2-no                                               
   RPACOR =     .000    partial core radius                                                         
   POMASS =   12.011; ZVAL   =    4.000    mass and valenz                                          
   RCORE  =    1.500    outmost cutoff radius                                                       
   RWIGS  =    1.630; RWIGS  =     .863    wigner-seitz radius (au A)                               
   ENMAX  =  400.000; ENMIN  =  300.000 eV                                                          
   ICORE  =        2    local potential                                                             
   LCOR   =        T    correct aug charges                                                         
   LPAW   =        T    paw PP                                                                      
   EAUG   =  644.873                                                                                
   DEXC   =     .000                                                                                
   RMAX   =    2.266    core radius for proj-oper                                                   
   RAUG   =    1.300    factor for augmentation sphere                                              
   RDEP   =    1.501    radius for radial grids                                                     
   RDEPT  =    1.300    core radius for aug-charge                                                  
   QCUT   =   -5.516; QGAM   =   11.032    optimization parameters                                  
                                                                                                    
   Description                                                                                      
     l     E      TYP  RCUT    TYP  RCUT                                                            
     0   .000     23  1.200                                                                         
     0   .000     23  1.200                                                                         
     1   .000     23  1.500                                                                         
     1  2.500     23  1.500                                                                         
     2   .000      7  1.500                                                                         
  local pseudopotential read in
  atomic valenz-charges read in
  non local Contribution for L=           0  read in
    real space projection operators read in
  non local Contribution for L=           0  read in
    real space projection operators read in
  non local Contribution for L=           1  read in
    real space projection operators read in
  non local Contribution for L=           1  read in
    real space projection operators read in
    PAW grid and wavefunctions read in
 
   number of l-projection  operators is LMAX  =           4
   number of lm-projection operators is LMMAX =           8
 
 POTCAR:   PAW_PBE H 15Jun2001                    
   VRHFIN =H: ultrasoft test                                                                        
   LEXCH  = PE                                                                                      
   EATOM  =    12.4884 eV,     .9179 Ry                                                             
                                                                                                    
   TITEL  = PAW_PBE H 15Jun2001                                                                     
   LULTRA =        F    use ultrasoft PP ?                                                          
   IUNSCR =        0    unscreen: 0-lin 1-nonlin 2-no                                               
   RPACOR =     .000    partial core radius                                                         
   POMASS =    1.000; ZVAL   =    1.000    mass and valenz                                          
   RCORE  =    1.100    outmost cutoff radius                                                       
   RWIGS  =     .700; RWIGS  =     .370    wigner-seitz radius (au A)                               
   ENMAX  =  250.000; ENMIN  =  200.000 eV                                                          
   RCLOC  =     .701    cutoff for local pot                                                        
   LCOR   =        T    correct aug charges                                                         
   LPAW   =        T    paw PP                                                                      
   EAUG   =  400.000                                                                                
   RMAX   =    2.174    core radius for proj-oper                                                   
   RAUG   =    1.200    factor for augmentation sphere                                              
   RDEP   =    1.112    radius for radial grids                                                     
   QCUT   =   -5.749; QGAM   =   11.498    optimization parameters                                  
                                                                                                    
   Description                                                                                      
     l     E      TYP  RCUT    TYP  RCUT                                                            
     0   .000     23  1.100                                                                         
     0   .500     23  1.100                                                                         
     1  -.300     23  1.100                                                                         
  local pseudopotential read in
  atomic valenz-charges read in
  non local Contribution for L=           0  read in
    real space projection operators read in
  non local Contribution for L=           0  read in
    real space projection operators read in
  non local Contribution for L=           1  read in
    real space projection operators read in
    PAW grid and wavefunctions read in
 
   number of l-projection  operators is LMAX  =           3
   number of lm-projection operators is LMMAX =           5
 
 Optimization of the real space projectors (new method)

 maximal supplied QI-value         = 25.13
 optimisation between [QCUT,QGAM] = [ 11.56, 23.12] = [ 37.43,149.72] Ry 
 Optimized for a Real-space Cutoff    1.04 Angstroem

   l    n(q)    QCUT    max X(q) W(low)/X(q) W(high)/X(q)  e(spline) 
   0      7    11.561     5.582    0.47E-04    0.94E-04    0.17E-07
   0      7    11.561    69.432    0.20E-03    0.59E-03    0.21E-06
   1      7    11.561     2.780    0.24E-04    0.70E-04    0.44E-07
   1      7    11.561     4.549    0.18E-03    0.25E-03    0.12E-06
 Optimization of the real space projectors (new method)

 maximal supplied QI-value         = 34.20
 optimisation between [QCUT,QGAM] = [ 11.63, 23.26] = [ 37.87,151.49] Ry 
 Optimized for a Real-space Cutoff    1.21 Angstroem

   l    n(q)    QCUT    max X(q) W(low)/X(q) W(high)/X(q)  e(spline) 
   0      8    11.629     4.436    0.19E-04    0.32E-04    0.47E-07
   0      8    11.629    16.131    0.16E-03    0.33E-03    0.21E-06
   1      8    11.629     4.654    0.18E-03    0.16E-03    0.26E-06
 PAW_PBE C 08Apr2002                    :
 energy of atom  1       EATOM= -147.1560
 kinetic energy error for atom=    0.0071 (will be added to EATOM!!)
 PAW_PBE H 15Jun2001                    :
 energy of atom  2       EATOM=  -12.4884
 kinetic energy error for atom=    0.0014 (will be added to EATOM!!)
 
 
 POSCAR:  C  H
  positions in cartesian coordinates
  No initial velocities read in
 exchange correlation table for  LEXCH =        8
   RHO(1)=    0.500       N(1)  =     2000
   RHO(2)=  100.500       N(2)  =     4000

 VTST: version 4.1, (05/19/21)

 CHAIN: initializing optimizer
 
 OPT: Using VASP Dynamics algorithm
 CHAIN: Read ICHAIN            0
 
 POSCAR:  C  H
  positions in cartesian coordinates
  No initial velocities read in
 


--------------------------------------------------------------------------------------------------------


 ion  position               nearest neighbor table
   1  0.530  0.533  0.409-   5 1.11   6 1.13   2 1.33
   2  0.492  0.462  0.446-   7 1.16   1 1.33   3 1.48
   3  0.488  0.455  0.544-   8 1.15   4 1.32   2 1.48
   4  0.484  0.524  0.598-   9 1.07  10 1.07   3 1.32
   5  0.519  0.545  0.336-   1 1.11
   6  0.571  0.582  0.450-   1 1.13
   7  0.462  0.408  0.401-   2 1.16
   8  0.495  0.385  0.575-   3 1.15
   9  0.471  0.589  0.573-   4 1.07
  10  0.488  0.516  0.669-   4 1.07
 

IMPORTANT INFORMATION: All symmetrisations will be switched off!
NOSYMM: (Re-)initialisation of all symmetry stuff for point group C_1.


----------------------------------------------------------------------------------------

                                     Primitive cell                                     

  volume of cell :    3375.0000

  direct lattice vectors                    reciprocal lattice vectors
    15.000000000  0.000000000  0.000000000     0.066666667  0.000000000  0.000000000
     0.000000000 15.000000000  0.000000000     0.000000000  0.066666667  0.000000000
     0.000000000  0.000000000 15.000000000     0.000000000  0.000000000  0.066666667

  length of vectors
    15.000000000 15.000000000 15.000000000     0.066666667  0.066666667  0.066666667

  position of ions in fractional coordinates (direct lattice)
     0.530266666  0.532933331  0.408600012
     0.492199993  0.462266668  0.446199989
     0.487733332  0.454866664  0.544266637
     0.483799998  0.524199994  0.597933324
     0.518733342  0.545266660  0.336400000
     0.570800018  0.581933339  0.449599997
     0.461533324  0.407866669  0.400666682
     0.495000013  0.385133330  0.574866676
     0.471466668  0.589399974  0.572599983
     0.488400014  0.516133340  0.668866666

  ion indices of the primitive-cell ions
   primitive index   ion index
                 1           1
                 2           2
                 3           3
                 4           4
                 5           5
                 6           6
                 7           7
                 8           8
                 9           9
                10          10

----------------------------------------------------------------------------------------

 
 
 KPOINTS: K-Spacing Value to Generate K-Mesh: 1.00

Automatic generation of k-mesh.
 Grid dimensions read from file:
 generate k-points for:    1    1    1

 Generating k-lattice:

  Cartesian coordinates                     Fractional coordinates (reciprocal lattice)
     0.066666667  0.000000000  0.000000000     1.000000000  0.000000000  0.000000000
     0.000000000  0.066666667  0.000000000     0.000000000  1.000000000  0.000000000
     0.000000000  0.000000000  0.066666667     0.000000000  0.000000000  1.000000000

  Length of vectors
     0.066666667  0.066666667  0.066666667

  Shift w.r.t. Gamma in fractional coordinates (k-lattice)
     0.000000000  0.000000000  0.000000000

 
 Subroutine IBZKPT returns following result:
 ===========================================
 
 Found      1 irreducible k-points:
 
 Following reciprocal coordinates:
            Coordinates               Weight
  0.000000  0.000000  0.000000      1.000000
 
 Following cartesian coordinates:
            Coordinates               Weight
  0.000000  0.000000  0.000000      1.000000
 


--------------------------------------------------------------------------------------------------------




 Dimension of arrays:
   k-points           NKPTS =      1   k-points in BZ     NKDIM =      1   number of bands    NBANDS=     24
   number of dos      NEDOS =    301   number of ions     NIONS =     10
   non local maximal  LDIM  =      4   non local SUM 2l+1 LMDIM =      8
   total plane-waves  NPLWV = ******
   max r-space proj   IRMAX =   3145   max aug-charges    IRDMAX=  39494
   dimension x,y,z NGX =   112 NGY =  112 NGZ =  112
   dimension x,y,z NGXF=   224 NGYF=  224 NGZF=  224
   support grid    NGXF=   448 NGYF=  448 NGZF=  448
   ions per type =               4   6
   NGX,Y,Z   is equivalent  to a cutoff of  12.41, 12.41, 12.41 a.u.
   NGXF,Y,Z  is equivalent  to a cutoff of  24.83, 24.83, 24.83 a.u.

 SYSTEM =  unknown system                          
 POSCAR =   C  H                                   

 Startparameter for this run:
   NWRITE =      2    write-flag & timer
   PREC   = accura    normal or accurate (medium, high low for compatibility)
   ISTART =      0    job   : 0-new  1-cont  2-samecut
   ICHARG =      2    charge: 1-file 2-atom 10-const
   ISPIN  =      1    spin polarized calculation?
   LNONCOLLINEAR =      F non collinear calculations
   LSORBIT =      F    spin-orbit coupling
   INIWAV =      1    electr: 0-lowe 1-rand  2-diag
   LASPH  =      T    aspherical Exc in radial PAW
 Electronic Relaxation 1
   ENCUT  =  520.0 eV  38.22 Ry    6.18 a.u.  27.89 27.89 27.89*2*pi/ulx,y,z
   ENINI  =  520.0     initial cutoff
   ENAUG  =  644.9 eV  augmentation charge cutoff
   NELM   =     60;   NELMIN=  2; NELMDL= -5     # of ELM steps 
   EDIFF  = 0.1E-05   stopping-criterion for ELM
   LREAL  =      T    real-space projection
   NLSPLINE    = F    spline interpolate recip. space projectors
   LCOMPAT=      F    compatible to vasp.4.4
   GGA_COMPAT  = T    GGA compatible to vasp.4.4-vasp.4.6
   LMAXPAW     = -100 max onsite density
   LMAXMIX     =    2 max onsite mixed and CHGCAR
   VOSKOWN=      0    Vosko Wilk Nusair interpolation
   ROPT   =   -0.00025  -0.00025
 Ionic relaxation
   EDIFFG = 0.1E-04   stopping-criterion for IOM
   NSW    =      0    number of steps for IOM
   NBLOCK =      1;   KBLOCK =      1    inner block; outer block 
   IBRION =     -1    ionic relax: 0-MD 1-quasi-New 2-CG
   NFREE  =      0    steps in history (QN), initial steepest desc. (CG)
   ISIF   =      2    stress and relaxation
   IWAVPR =     10    prediction:  0-non 1-charg 2-wave 3-comb
   ISYM   =      0    0-nonsym 1-usesym 2-fastsym
   LCORR  =      T    Harris-Foulkes like correction to forces

   POTIM  = 0.5000    time-step for ionic-motion
   TEIN   =    0.0    initial temperature
   TEBEG  =  300.0;   TEEND  = 700.0 temperature during run
   SMASS  =  -3.00    Nose mass-parameter (am)
   estimated Nose-frequenzy (Omega)   =  0.10E-29 period in steps = 0.13E+47 mass=  -0.514E-26a.u.
   SCALEE = 1.0000    scale energy and forces
   NPACO  =    256;   APACO  = 10.0  distance and # of slots for P.C.
   PSTRESS=    0.0 pullay stress

  Mass of Ions in am
   POMASS =  12.01  1.00
  Ionic Valenz
   ZVAL   =   4.00  1.00
  Atomic Wigner-Seitz radii
   RWIGS  =  -1.00 -1.00
  virtual crystal weights 
   VCA    =   1.00  1.00
   NELECT =      22.0000    total number of electrons
   NUPDOWN=      -1.0000    fix difference up-down

 DOS related values:
   EMIN   =  10.00;   EMAX   =-10.00  energy-range for DOS
   EFERMI =   0.00;   METHOD = LEGACY      
   ISMEAR =     0;   SIGMA  =   0.05  broadening in eV -4-tet -1-fermi 0-gaus

 Electronic relaxation 2 (details)
   IALGO  =     38    algorithm
   LDIAG  =      T    sub-space diagonalisation (order eigenvalues)
   LSUBROT=      F    optimize rotation matrix (better conditioning)
   TURBO    =      0    0=normal 1=particle mesh
   IRESTART =      0    0=no restart 2=restart with 2 vectors
   NREBOOT  =      0    no. of reboots
   NMIN     =      0    reboot dimension
   EREF     =   0.00    reference energy to select bands
   IMIX   =      4    mixing-type and parameters
     AMIX     =   0.40;   BMIX     =  1.00
     AMIX_MAG =   1.60;   BMIX_MAG =  1.00
     AMIN     =   0.10
     WC   =   100.;   INIMIX=   1;  MIXPRE=   1;  MAXMIX= -45

 Intra band minimization:
   WEIMIN = 0.0000     energy-eigenvalue tresh-hold
   EBREAK =  0.10E-07  absolut break condition
   DEPER  =   0.30     relativ break condition  

   TIME   =   0.40     timestep for ELM

  volume/ion in A,a.u.               =     337.50      2277.56
  Fermi-wavevector in a.u.,A,eV,Ry     =   0.305814  0.577905  1.272449  0.093522
  Thomas-Fermi vector in A             =   1.179187
 
 Write flags
   LWAVE        =      F    write WAVECAR
   LDOWNSAMPLE  =      F    k-point downsampling of WAVECAR
   LCHARG       =      F    write CHGCAR
   LVTOT        =      F    write LOCPOT, total local potential
   LVHAR        =      F    write LOCPOT, Hartree potential only
   LELF         =      F    write electronic localiz. function (ELF)
   LORBIT       =      0    0 simple, 1 ext, 2 COOP (PROOUT), +10 PAW based schemes


 Dipole corrections
   LMONO  =      F    monopole corrections only (constant potential shift)
   LDIPOL =      F    correct potential (dipole corrections)
   IDIPOL =      0    1-x, 2-y, 3-z, 4-all directions 
   EPSILON=  1.0000000 bulk dielectric constant

 Exchange correlation treatment:
   GGA     =    --    GGA type
   LEXCH   =     8    internal setting for exchange type
   LIBXC   =     F    Libxc                    
   VOSKOWN =     0    Vosko Wilk Nusair interpolation
   LHFCALC =     F    Hartree Fock is set to
   LHFONE  =     F    Hartree Fock one center treatment
   AEXX    =    0.0000 exact exchange contribution

 Linear response parameters
   LEPSILON=     F    determine dielectric tensor
   LRPA    =     F    only Hartree local field effects (RPA)
   LNABLA  =     F    use nabla operator in PAW spheres
   LVEL    =     F    velocity operator in full k-point grid
   CSHIFT  =0.1000    complex shift for real part using Kramers Kronig
   OMEGAMAX=  -1.0    maximum frequency
   DEG_THRESHOLD= 0.2000000E-02 threshold for treating states as degnerate
   RTIME   =   -0.100 relaxation time in fs
  (WPLASMAI=    0.000 imaginary part of plasma frequency in eV, 0.658/RTIME)
   DFIELD  = 0.0000000 0.0000000 0.0000000 field for delta impulse in time
 
  Optional k-point grid parameters
   LKPOINTS_OPT  =     F    use optional k-point grid
   KPOINTS_OPT_MODE=     1    mode for optional k-point grid
 
 Orbital magnetization related:
   ORBITALMAG=     F  switch on orbital magnetization
   LCHIMAG   =     F  perturbation theory with respect to B field
   DQ        =  0.001000  dq finite difference perturbation B field
   LLRAUG    =     F  two centre corrections for induced B field
   LBONE     =     F  B-component reconstruction in AE one-centre
   LVGVCALC  =     T  calculate vGv susceptibility
   LVGVAPPL  =     F  apply vGv susceptibility instead of pGv for G=0

 Random number generation:
   RANDOM_GENERATOR = DEFAULT
   PCG_SEED         = not used


--------------------------------------------------------------------------------------------------------


 Static calculation
 charge density and potential will be updated during run
 non-spin polarized calculation
 Variant of blocked Davidson
 Davidson routine will perform the subspace rotation
 perform sub-space diagonalisation
    after iterative eigenvector-optimisation
 modified Broyden-mixing scheme, WC =      100.0
 initial mixing is a Kerker type mixing with AMIX =  0.4000 and BMIX =      1.0000
 Hartree-type preconditioning will be used
 using additional bands           13
 real space projection scheme for non local part
 calculate Harris-corrections to forces 
   (improved forces if not selfconsistent)
 use gradient corrections 
 use of overlap-Matrix (Vanderbilt PP)
 Gauss-broadening in eV      SIGMA  =   0.05


--------------------------------------------------------------------------------------------------------


  energy-cutoff  :      520.00
  volume of cell :     3375.00
      direct lattice vectors                 reciprocal lattice vectors
    15.000000000  0.000000000  0.000000000     0.066666667  0.000000000  0.000000000
     0.000000000 15.000000000  0.000000000     0.000000000  0.066666667  0.000000000
     0.000000000  0.000000000 15.000000000     0.000000000  0.000000000  0.066666667

  length of vectors
    15.000000000 15.000000000 15.000000000     0.066666667  0.066666667  0.066666667


 
 k-points in units of 2pi/SCALE and weight: K-Spacing Value to Generate K-Mesh: 1.00
   0.00000000  0.00000000  0.00000000       1.000
 
 k-points in reciprocal lattice and weights: K-Spacing Value to Generate K-Mesh: 1.00
   0.00000000  0.00000000  0.00000000       1.000
 
 position of ions in fractional coordinates (direct lattice) 
   0.53026667  0.53293333  0.40860001
   0.49219999  0.46226667  0.44619999
   0.48773333  0.45486666  0.54426664
   0.48380000  0.52419999  0.59793332
   0.51873334  0.54526666  0.33640000
   0.57080002  0.58193334  0.44960000
   0.46153332  0.40786667  0.40066668
   0.49500001  0.38513333  0.57486668
   0.47146667  0.58939997  0.57259998
   0.48840001  0.51613334  0.66886667
 
 position of ions in cartesian coordinates  (Angst):
   7.95400000  7.99399996  6.12900019
   7.38299990  6.93400002  6.69299984
   7.31599998  6.82299995  8.16399956
   7.25699997  7.86299992  8.96899986
   7.78100014  8.17899990  5.04600000
   8.56200027  8.72900009  6.74399996
   6.92299986  6.11800003  6.01000023
   7.42500019  5.77699995  8.62300014
   7.07200003  8.84099960  8.58899975
   7.32600021  7.74200010 10.03299999
 


--------------------------------------------------------------------------------------------------------


 k-point   1 :   0.0000 0.0000 0.0000  plane waves:   90879

 maximum and minimum number of plane-waves per node :     45467    45412

 maximum number of plane-waves:     90879
 maximum index in each direction: 
   IXMAX=   27   IYMAX=   27   IZMAX=   27
   IXMIN=  -27   IYMIN=  -27   IZMIN=  -27


 real space projection operators:
  total allocation   :       1185.55 KBytes
  max/ min on nodes  :        592.83        592.73


 parallel 3D FFT for wavefunctions:
    minimum data exchange during FFTs selected (reduces bandwidth)
 parallel 3D FFT for charge:
    minimum data exchange during FFTs selected (reduces bandwidth)


 total amount of memory used by VASP MPI-rank0   224782. kBytes
=======================================================================

   base      :      30000. kBytes
   nonlr-proj:       1258. kBytes
   fftplans  :     123538. kBytes
   grid      :      67787. kBytes
   one-center:         15. kBytes
   wavefun   :       2184. kBytes
 
     INWAV:  cpu time      0.0000: real time      0.0000
 Broyden mixing: mesh for mixing (old mesh)
   NGX = 55   NGY = 55   NGZ = 55
  (NGX  =224   NGY  =224   NGZ  =224)
  gives a total of 166375 points

 initial charge density was supplied:
 charge density of overlapping atoms calculated
 number of electron      22.0000000 magnetization 
 keeping initial charge density in first step


--------------------------------------------------------------------------------------------------------


 Maximum index for non-local projection operator         1509
 Maximum index for augmentation-charges         2437 (set IRDMAX)


--------------------------------------------------------------------------------------------------------


 First call to EWALD:  gamma=   0.118
 Maximum number of real-space cells 3x 3x 3
 Maximum number of reciprocal cells 3x 3x 3

    FEWALD:  cpu time      0.0010: real time      0.0010


--------------------------------------- Ionic step        1  -------------------------------------------




--------------------------------------- Iteration      1(   1)  ---------------------------------------


    POTLOK:  cpu time      0.3357: real time      0.3376
    SETDIJ:  cpu time      0.1940: real time      0.1948
     EDDAV:  cpu time      0.4195: real time      0.4219
       DOS:  cpu time      0.0002: real time      0.0002
    --------------------------------------------
      LOOP:  cpu time      0.9494: real time      0.9545

 eigenvalue-minimisations  :    64
 total energy-change (2. order) : 0.1036676E+03  (-0.5293727E+03)
 number of electron      22.0000000 magnetization 
 augmentation part       22.0000000 magnetization 

 Free energy of the ion-electron system (eV)
  ---------------------------------------------------
  alpha Z        PSCENC =         0.62641250
  Ewald energy   TEWEN  =       901.61088102
  -Hartree energ DENC   =     -1325.91571788
  -exchange      EXHF   =         0.00000000
  -V(xc)+E(xc)   XCENC  =        67.26851406
  PAW double counting   =       156.01372664     -160.66969168
  entropy T*S    EENTRO =        -0.00003823
  eigenvalues    EBANDS =      -198.78393236
  atomic energy  EATOM  =       663.51739852
  Solvation  Ediel_sol  =         0.00000000
  ---------------------------------------------------
  free energy    TOTEN  =       103.66755260 eV

  energy without entropy =      103.66759083  energy(sigma->0) =      103.66757171


--------------------------------------------------------------------------------------------------------




--------------------------------------- Iteration      1(   2)  ---------------------------------------


     EDDAV:  cpu time      0.4455: real time      0.4479
       DOS:  cpu time      0.0001: real time      0.0001
    --------------------------------------------
      LOOP:  cpu time      0.4456: real time      0.4480

 eigenvalue-minimisations  :    72
 total energy-change (2. order) :-0.1225323E+03  (-0.1197187E+03)
 number of electron      22.0000000 magnetization 
 augmentation part       22.0000000 magnetization 

 Free energy of the ion-electron system (eV)
  ---------------------------------------------------
  alpha Z        PSCENC =         0.62641250
  Ewald energy   TEWEN  =       901.61088102
  -Hartree energ DENC   =     -1325.91571788
  -exchange      EXHF   =         0.00000000
  -V(xc)+E(xc)   XCENC  =        67.26851406
  PAW double counting   =       156.01372664     -160.66969168
  entropy T*S    EENTRO =        -0.00000000
  eigenvalues    EBANDS =      -321.31622584
  atomic energy  EATOM  =       663.51739852
  Solvation  Ediel_sol  =         0.00000000
  ---------------------------------------------------
  free energy    TOTEN  =       -18.86470265 eV

  energy without entropy =      -18.86470265  energy(sigma->0) =      -18.86470265


--------------------------------------------------------------------------------------------------------




--------------------------------------- Iteration      1(   3)  ---------------------------------------


     EDDAV:  cpu time      0.4042: real time      0.4065
       DOS:  cpu time      0.0001: real time      0.0001
    --------------------------------------------
      LOOP:  cpu time      0.4043: real time      0.4066

 eigenvalue-minimisations  :    64
 total energy-change (2. order) :-0.4122677E+02  (-0.4111209E+02)
 number of electron      22.0000000 magnetization 
 augmentation part       22.0000000 magnetization 

 Free energy of the ion-electron system (eV)
  ---------------------------------------------------
  alpha Z        PSCENC =         0.62641250
  Ewald energy   TEWEN  =       901.61088102
  -Hartree energ DENC   =     -1325.91571788
  -exchange      EXHF   =         0.00000000
  -V(xc)+E(xc)   XCENC  =        67.26851406
  PAW double counting   =       156.01372664     -160.66969168
  entropy T*S    EENTRO =        -0.00000000
  eigenvalues    EBANDS =      -362.54299833
  atomic energy  EATOM  =       663.51739852
  Solvation  Ediel_sol  =         0.00000000
  ---------------------------------------------------
  free energy    TOTEN  =       -60.09147515 eV

  energy without entropy =      -60.09147515  energy(sigma->0) =      -60.09147515


--------------------------------------------------------------------------------------------------------




--------------------------------------- Iteration      1(   4)  ---------------------------------------


     EDDAV:  cpu time      0.4042: real time      0.4065
       DOS:  cpu time      0.0001: real time      0.0001
    --------------------------------------------
      LOOP:  cpu time      0.4043: real time      0.4066

 eigenvalue-minimisations  :    64
 total energy-change (2. order) :-0.3175599E+01  (-0.3168702E+01)
 number of electron      22.0000000 magnetization 
 augmentation part       22.0000000 magnetization 

 Free energy of the ion-electron system (eV)
  ---------------------------------------------------
  alpha Z        PSCENC =         0.62641250
  Ewald energy   TEWEN  =       901.61088102
  -Hartree energ DENC   =     -1325.91571788
  -exchange      EXHF   =         0.00000000
  -V(xc)+E(xc)   XCENC  =        67.26851406
  PAW double counting   =       156.01372664     -160.66969168
  entropy T*S    EENTRO =        -0.00000000
  eigenvalues    EBANDS =      -365.71859724
  atomic energy  EATOM  =       663.51739852
  Solvation  Ediel_sol  =         0.00000000
  ---------------------------------------------------
  free energy    TOTEN  =       -63.26707405 eV

  energy without entropy =      -63.26707405  energy(sigma->0) =      -63.26707405


--------------------------------------------------------------------------------------------------------




--------------------------------------- Iteration      1(   5)  ---------------------------------------


     EDDAV:  cpu time      0.4068: real time      0.4091
       DOS:  cpu time      0.0001: real time      0.0001
    CHARGE:  cpu time      0.1971: real time      0.1978
    MIXING:  cpu time      0.0158: real time      0.0158
    --------------------------------------------
      LOOP:  cpu time      0.6198: real time      0.6229

 eigenvalue-minimisations  :    64
 total energy-change (2. order) :-0.4103981E-01  (-0.4097190E-01)
 number of electron      22.0000000 magnetization 
 augmentation part        0.5826048 magnetization 

 Broyden mixing:
  rms(total) = 0.11928E+01    rms(broyden)= 0.11926E+01
  rms(prec ) = 0.14352E+01
  weight for this iteration     100.00

 Free energy of the ion-electron system (eV)
  ---------------------------------------------------
  alpha Z        PSCENC =         0.62641250
  Ewald energy   TEWEN  =       901.61088102
  -Hartree energ DENC   =     -1325.91571788
  -exchange      EXHF   =         0.00000000
  -V(xc)+E(xc)   XCENC  =        67.26851406
  PAW double counting   =       156.01372664     -160.66969168
  entropy T*S    EENTRO =        -0.00000000
  eigenvalues    EBANDS =      -365.75963705
  atomic energy  EATOM  =       663.51739852
  Solvation  Ediel_sol  =         0.00000000
  ---------------------------------------------------
  free energy    TOTEN  =       -63.30811387 eV

  energy without entropy =      -63.30811387  energy(sigma->0) =      -63.30811387


--------------------------------------------------------------------------------------------------------




--------------------------------------- Iteration      1(   6)  ---------------------------------------


    POTLOK:  cpu time      0.3077: real time      0.3093
    SETDIJ:  cpu time      0.1932: real time      0.1940
     EDDAV:  cpu time      0.4485: real time      0.4509
       DOS:  cpu time      0.0001: real time      0.0001
    CHARGE:  cpu time      0.1943: real time      0.1951
    MIXING:  cpu time      0.0153: real time      0.0154
    --------------------------------------------
      LOOP:  cpu time      1.1591: real time      1.1649

 eigenvalue-minimisations  :    72
 total energy-change (2. order) : 0.5374799E+01  (-0.8226209E+00)
 number of electron      22.0000000 magnetization 
 augmentation part        0.5329967 magnetization 

 Broyden mixing:
  rms(total) = 0.56889E+00    rms(broyden)= 0.56886E+00
  rms(prec ) = 0.67541E+00
  weight for this iteration     100.00

 eigenvalues of (default mixing * dielectric matrix)
  average eigenvalue GAMMA=   1.5865
  1.5865

 Free energy of the ion-electron system (eV)
  ---------------------------------------------------
  alpha Z        PSCENC =         0.62641250
  Ewald energy   TEWEN  =       901.61088102
  -Hartree energ DENC   =     -1373.45283118
  -exchange      EXHF   =         0.00000000
  -V(xc)+E(xc)   XCENC  =        69.69257173
  PAW double counting   =       230.56372374     -235.78135820
  entropy T*S    EENTRO =        -0.00000000
  eigenvalues    EBANDS =      -314.71011346
  atomic energy  EATOM  =       663.51739852
  Solvation  Ediel_sol  =         0.00000000
  ---------------------------------------------------
  free energy    TOTEN  =       -57.93331533 eV

  energy without entropy =      -57.93331533  energy(sigma->0) =      -57.93331533


--------------------------------------------------------------------------------------------------------




--------------------------------------- Iteration      1(   7)  ---------------------------------------


    POTLOK:  cpu time      0.3095: real time      0.3113
    SETDIJ:  cpu time      0.1924: real time      0.1933
     EDDAV:  cpu time      0.4099: real time      0.4122
       DOS:  cpu time      0.0001: real time      0.0001
    CHARGE:  cpu time      0.1953: real time      0.1961
    MIXING:  cpu time      0.0138: real time      0.0138
    --------------------------------------------
      LOOP:  cpu time      1.1211: real time      1.1268

 eigenvalue-minimisations  :    64
 total energy-change (2. order) : 0.1182903E+01  (-0.4495860E+00)
 number of electron      22.0000000 magnetization 
 augmentation part        0.4997010 magnetization 

 Broyden mixing:
  rms(total) = 0.23301E+00    rms(broyden)= 0.23294E+00
  rms(prec ) = 0.26650E+00
  weight for this iteration     100.00

 eigenvalues of (default mixing * dielectric matrix)
  average eigenvalue GAMMA=   1.7392
  1.7392  1.7392

 Free energy of the ion-electron system (eV)
  ---------------------------------------------------
  alpha Z        PSCENC =         0.62641250
  Ewald energy   TEWEN  =       901.61088102
  -Hartree energ DENC   =     -1410.85081747
  -exchange      EXHF   =         0.00000000
  -V(xc)+E(xc)   XCENC  =        71.80095415
  PAW double counting   =       291.56996266     -297.04152515
  entropy T*S    EENTRO =        -0.00000000
  eigenvalues    EBANDS =      -277.98367878
  atomic energy  EATOM  =       663.51739852
  Solvation  Ediel_sol  =         0.00000000
  ---------------------------------------------------
  free energy    TOTEN  =       -56.75041256 eV

  energy without entropy =      -56.75041256  energy(sigma->0) =      -56.75041256


--------------------------------------------------------------------------------------------------------




--------------------------------------- Iteration      1(   8)  ---------------------------------------


    POTLOK:  cpu time      0.3136: real time      0.3153
    SETDIJ:  cpu time      0.1914: real time      0.1922
     EDDAV:  cpu time      0.4036: real time      0.4058
       DOS:  cpu time      0.0001: real time      0.0001
    CHARGE:  cpu time      0.1935: real time      0.1942
    MIXING:  cpu time      0.0145: real time      0.0145
    --------------------------------------------
      LOOP:  cpu time      1.1166: real time      1.1222

 eigenvalue-minimisations  :    64
 total energy-change (2. order) : 0.1634693E+00  (-0.2393186E-01)
 number of electron      22.0000000 magnetization 
 augmentation part        0.5003469 magnetization 

 Broyden mixing:
  rms(total) = 0.64875E-01    rms(broyden)= 0.64869E-01
  rms(prec ) = 0.92150E-01
  weight for this iteration     100.00

 eigenvalues of (default mixing * dielectric matrix)
  average eigenvalue GAMMA=   1.6207
  2.3982  0.9151  1.5488

 Free energy of the ion-electron system (eV)
  ---------------------------------------------------
  alpha Z        PSCENC =         0.62641250
  Ewald energy   TEWEN  =       901.61088102
  -Hartree energ DENC   =     -1416.71050971
  -exchange      EXHF   =         0.00000000
  -V(xc)+E(xc)   XCENC  =        72.28312783
  PAW double counting   =       297.54341913     -302.90070203
  entropy T*S    EENTRO =        -0.00000000
  eigenvalues    EBANDS =      -272.55697055
  atomic energy  EATOM  =       663.51739852
  Solvation  Ediel_sol  =         0.00000000
  ---------------------------------------------------
  free energy    TOTEN  =       -56.58694329 eV

  energy without entropy =      -56.58694329  energy(sigma->0) =      -56.58694329


--------------------------------------------------------------------------------------------------------




--------------------------------------- Iteration      1(   9)  ---------------------------------------


    POTLOK:  cpu time      0.3142: real time      0.3159
    SETDIJ:  cpu time      0.1941: real time      0.1949
     EDDAV:  cpu time      0.4459: real time      0.4484
       DOS:  cpu time      0.0001: real time      0.0001
    CHARGE:  cpu time      0.1929: real time      0.1937
    MIXING:  cpu time      0.0171: real time      0.0171
    --------------------------------------------
      LOOP:  cpu time      1.1643: real time      1.1701

 eigenvalue-minimisations  :    72
 total energy-change (2. order) : 0.3905093E-01  (-0.5628618E-02)
 number of electron      22.0000000 magnetization 
 augmentation part        0.4979724 magnetization 

 Broyden mixing:
  rms(total) = 0.25466E-01    rms(broyden)= 0.25462E-01
  rms(prec ) = 0.48578E-01
  weight for this iteration     100.00

 eigenvalues of (default mixing * dielectric matrix)
  average eigenvalue GAMMA=   1.4309
  2.2787  1.5399  0.9525  0.9525

 Free energy of the ion-electron system (eV)
  ---------------------------------------------------
  alpha Z        PSCENC =         0.62641250
  Ewald energy   TEWEN  =       901.61088102
  -Hartree energ DENC   =     -1423.14118996
  -exchange      EXHF   =         0.00000000
  -V(xc)+E(xc)   XCENC  =        72.64241051
  PAW double counting   =       303.44000496     -308.77668504
  entropy T*S    EENTRO =        -0.00000000
  eigenvalues    EBANDS =      -266.46712488
  atomic energy  EATOM  =       663.51739852
  Solvation  Ediel_sol  =         0.00000000
  ---------------------------------------------------
  free energy    TOTEN  =       -56.54789236 eV

  energy without entropy =      -56.54789236  energy(sigma->0) =      -56.54789236


--------------------------------------------------------------------------------------------------------




--------------------------------------- Iteration      1(  10)  ---------------------------------------


    POTLOK:  cpu time      0.3155: real time      0.3172
    SETDIJ:  cpu time      0.1932: real time      0.1941
     EDDAV:  cpu time      0.4030: real time      0.4053
       DOS:  cpu time      0.0001: real time      0.0001
    CHARGE:  cpu time      0.1932: real time      0.1940
    MIXING:  cpu time      0.0132: real time      0.0132
    --------------------------------------------
      LOOP:  cpu time      1.1183: real time      1.1238

 eigenvalue-minimisations  :    64
 total energy-change (2. order) : 0.5192175E-02  (-0.2108524E-02)
 number of electron      22.0000000 magnetization 
 augmentation part        0.4960407 magnetization 

 Broyden mixing:
  rms(total) = 0.18821E-01    rms(broyden)= 0.18818E-01
  rms(prec ) = 0.35543E-01
  weight for this iteration     100.00

 eigenvalues of (default mixing * dielectric matrix)
  average eigenvalue GAMMA=   1.6902
  2.7819  2.3152  1.0580  1.0580  1.2380

 Free energy of the ion-electron system (eV)
  ---------------------------------------------------
  alpha Z        PSCENC =         0.62641250
  Ewald energy   TEWEN  =       901.61088102
  -Hartree energ DENC   =     -1426.02183502
  -exchange      EXHF   =         0.00000000
  -V(xc)+E(xc)   XCENC  =        72.69472793
  PAW double counting   =       303.12942363     -308.47805762
  entropy T*S    EENTRO =        -0.00000000
  eigenvalues    EBANDS =      -263.62165115
  atomic energy  EATOM  =       663.51739852
  Solvation  Ediel_sol  =         0.00000000
  ---------------------------------------------------
  free energy    TOTEN  =       -56.54270019 eV

  energy without entropy =      -56.54270019  energy(sigma->0) =      -56.54270019


--------------------------------------------------------------------------------------------------------




--------------------------------------- Iteration      1(  11)  ---------------------------------------


    POTLOK:  cpu time      0.3147: real time      0.3164
    SETDIJ:  cpu time      0.1925: real time      0.1934
     EDDAV:  cpu time      0.4463: real time      0.4490
       DOS:  cpu time      0.0001: real time      0.0001
    CHARGE:  cpu time      0.1917: real time      0.1924
    MIXING:  cpu time      0.0179: real time      0.0180
    --------------------------------------------
      LOOP:  cpu time      1.1633: real time      1.1692

 eigenvalue-minimisations  :    72
 total energy-change (2. order) : 0.1239602E-01  (-0.7534607E-03)
 number of electron      22.0000000 magnetization 
 augmentation part        0.4957862 magnetization 

 Broyden mixing:
  rms(total) = 0.72979E-02    rms(broyden)= 0.72977E-02
  rms(prec ) = 0.16901E-01
  weight for this iteration     100.00

 eigenvalues of (default mixing * dielectric matrix)
  average eigenvalue GAMMA=   1.7578
  3.3494  2.5139  1.4227  1.1013  1.0797  1.0797

 Free energy of the ion-electron system (eV)
  ---------------------------------------------------
  alpha Z        PSCENC =         0.62641250
  Ewald energy   TEWEN  =       901.61088102
  -Hartree energ DENC   =     -1430.30898513
  -exchange      EXHF   =         0.00000000
  -V(xc)+E(xc)   XCENC  =        72.81047433
  PAW double counting   =       301.71797846     -307.04812862
  entropy T*S    EENTRO =        -0.00000000
  eigenvalues    EBANDS =      -259.45633525
  atomic energy  EATOM  =       663.51739852
  Solvation  Ediel_sol  =         0.00000000
  ---------------------------------------------------
  free energy    TOTEN  =       -56.53030417 eV

  energy without entropy =      -56.53030417  energy(sigma->0) =      -56.53030417


--------------------------------------------------------------------------------------------------------




--------------------------------------- Iteration      1(  12)  ---------------------------------------


    POTLOK:  cpu time      0.3137: real time      0.3154
    SETDIJ:  cpu time      0.1915: real time      0.1923
     EDDAV:  cpu time      0.4048: real time      0.4072
       DOS:  cpu time      0.0001: real time      0.0001
    CHARGE:  cpu time      0.1936: real time      0.1944
    MIXING:  cpu time      0.0159: real time      0.0160
    --------------------------------------------
      LOOP:  cpu time      1.1197: real time      1.1253

 eigenvalue-minimisations  :    64
 total energy-change (2. order) :-0.2946291E-02  (-0.1626328E-03)
 number of electron      22.0000000 magnetization 
 augmentation part        0.4955175 magnetization 

 Broyden mixing:
  rms(total) = 0.58148E-02    rms(broyden)= 0.58147E-02
  rms(prec ) = 0.10950E-01
  weight for this iteration     100.00

 eigenvalues of (default mixing * dielectric matrix)
  average eigenvalue GAMMA=   1.9282
  4.4321  2.4521  2.2416  1.3768  0.9653  1.0148  1.0148

 Free energy of the ion-electron system (eV)
  ---------------------------------------------------
  alpha Z        PSCENC =         0.62641250
  Ewald energy   TEWEN  =       901.61088102
  -Hartree energ DENC   =     -1432.20453543
  -exchange      EXHF   =         0.00000000
  -V(xc)+E(xc)   XCENC  =        72.83684207
  PAW double counting   =       301.16280864     -306.49462145
  entropy T*S    EENTRO =        -0.00000000
  eigenvalues    EBANDS =      -257.58843633
  atomic energy  EATOM  =       663.51739852
  Solvation  Ediel_sol  =         0.00000000
  ---------------------------------------------------
  free energy    TOTEN  =       -56.53325046 eV

  energy without entropy =      -56.53325046  energy(sigma->0) =      -56.53325046


--------------------------------------------------------------------------------------------------------




--------------------------------------- Iteration      1(  13)  ---------------------------------------


    POTLOK:  cpu time      0.3098: real time      0.3114
    SETDIJ:  cpu time      0.1920: real time      0.1928
     EDDAV:  cpu time      0.4053: real time      0.4076
       DOS:  cpu time      0.0001: real time      0.0001
    CHARGE:  cpu time      0.1940: real time      0.1948
    MIXING:  cpu time      0.0186: real time      0.0186
    --------------------------------------------
      LOOP:  cpu time      1.1198: real time      1.1254

 eigenvalue-minimisations  :    64
 total energy-change (2. order) :-0.9164443E-02  (-0.1531975E-03)
 number of electron      22.0000000 magnetization 
 augmentation part        0.4955058 magnetization 

 Broyden mixing:
  rms(total) = 0.28296E-02    rms(broyden)= 0.28294E-02
  rms(prec ) = 0.60961E-02
  weight for this iteration     100.00

 eigenvalues of (default mixing * dielectric matrix)
  average eigenvalue GAMMA=   2.0205
  5.1979  2.8196  2.1928  1.4680  1.4680  0.9688  1.0246  1.0246

 Free energy of the ion-electron system (eV)
  ---------------------------------------------------
  alpha Z        PSCENC =         0.62641250
  Ewald energy   TEWEN  =       901.61088102
  -Hartree energ DENC   =     -1432.83047043
  -exchange      EXHF   =         0.00000000
  -V(xc)+E(xc)   XCENC  =        72.83759845
  PAW double counting   =       301.28086717     -306.61290507
  entropy T*S    EENTRO =        -0.00000000
  eigenvalues    EBANDS =      -256.97219706
  atomic energy  EATOM  =       663.51739852
  Solvation  Ediel_sol  =         0.00000000
  ---------------------------------------------------
  free energy    TOTEN  =       -56.54241490 eV

  energy without entropy =      -56.54241490  energy(sigma->0) =      -56.54241490


--------------------------------------------------------------------------------------------------------




--------------------------------------- Iteration      1(  14)  ---------------------------------------


    POTLOK:  cpu time      0.3087: real time      0.3103
    SETDIJ:  cpu time      0.1921: real time      0.1929
     EDDAV:  cpu time      0.4057: real time      0.4080
       DOS:  cpu time      0.0001: real time      0.0001
    CHARGE:  cpu time      0.1934: real time      0.1941
    MIXING:  cpu time      0.0152: real time      0.0152
    --------------------------------------------
      LOOP:  cpu time      1.1152: real time      1.1208

 eigenvalue-minimisations  :    64
 total energy-change (2. order) :-0.6467901E-02  (-0.9707222E-04)
 number of electron      22.0000000 magnetization 
 augmentation part        0.4954490 magnetization 

 Broyden mixing:
  rms(total) = 0.16899E-02    rms(broyden)= 0.16897E-02
  rms(prec ) = 0.33437E-02
  weight for this iteration     100.00

 eigenvalues of (default mixing * dielectric matrix)
  average eigenvalue GAMMA=   2.1459
  6.1312  3.4333  2.3612  1.9854  1.2525  1.2525  0.9866  0.9866  0.9235

 Free energy of the ion-electron system (eV)
  ---------------------------------------------------
  alpha Z        PSCENC =         0.62641250
  Ewald energy   TEWEN  =       901.61088102
  -Hartree energ DENC   =     -1433.09809744
  -exchange      EXHF   =         0.00000000
  -V(xc)+E(xc)   XCENC  =        72.82693834
  PAW double counting   =       301.28941960     -306.62169739
  entropy T*S    EENTRO =        -0.00000000
  eigenvalues    EBANDS =      -256.70013795
  atomic energy  EATOM  =       663.51739852
  Solvation  Ediel_sol  =         0.00000000
  ---------------------------------------------------
  free energy    TOTEN  =       -56.54888280 eV

  energy without entropy =      -56.54888280  energy(sigma->0) =      -56.54888280


--------------------------------------------------------------------------------------------------------




--------------------------------------- Iteration      1(  15)  ---------------------------------------


    POTLOK:  cpu time      0.3044: real time      0.3060
    SETDIJ:  cpu time      0.1917: real time      0.1926
     EDDAV:  cpu time      0.4031: real time      0.4054
       DOS:  cpu time      0.0001: real time      0.0001
    CHARGE:  cpu time      0.1927: real time      0.1934
    MIXING:  cpu time      0.0174: real time      0.0175
    --------------------------------------------
      LOOP:  cpu time      1.1094: real time      1.1150

 eigenvalue-minimisations  :    64
 total energy-change (2. order) :-0.3375500E-02  (-0.4769123E-04)
 number of electron      22.0000000 magnetization 
 augmentation part        0.4954451 magnetization 

 Broyden mixing:
  rms(total) = 0.13145E-02    rms(broyden)= 0.13144E-02
  rms(prec ) = 0.20677E-02
  weight for this iteration     100.00

 eigenvalues of (default mixing * dielectric matrix)
  average eigenvalue GAMMA=   2.2178
  6.7356  4.0105  2.4330  2.0540  1.4925  1.4925  1.0135  1.0135  1.0257  0.9070

 Free energy of the ion-electron system (eV)
  ---------------------------------------------------
  alpha Z        PSCENC =         0.62641250
  Ewald energy   TEWEN  =       901.61088102
  -Hartree energ DENC   =     -1433.08093198
  -exchange      EXHF   =         0.00000000
  -V(xc)+E(xc)   XCENC  =        72.81887755
  PAW double counting   =       301.32365334     -306.65485912
  entropy T*S    EENTRO =        -0.00000000
  eigenvalues    EBANDS =      -256.71369014
  atomic energy  EATOM  =       663.51739852
  Solvation  Ediel_sol  =         0.00000000
  ---------------------------------------------------
  free energy    TOTEN  =       -56.55225830 eV

  energy without entropy =      -56.55225830  energy(sigma->0) =      -56.55225830


--------------------------------------------------------------------------------------------------------




--------------------------------------- Iteration      1(  16)  ---------------------------------------


    POTLOK:  cpu time      0.3027: real time      0.3044
    SETDIJ:  cpu time      0.1915: real time      0.1923
     EDDAV:  cpu time      0.3664: real time      0.3684
       DOS:  cpu time      0.0001: real time      0.0001
    CHARGE:  cpu time      0.1945: real time      0.1953
    MIXING:  cpu time      0.0155: real time      0.0155
    --------------------------------------------
      LOOP:  cpu time      1.0707: real time      1.0761

 eigenvalue-minimisations  :    56
 total energy-change (2. order) :-0.1246922E-02  (-0.1154780E-04)
 number of electron      22.0000000 magnetization 
 augmentation part        0.4953884 magnetization 

 Broyden mixing:
  rms(total) = 0.58949E-03    rms(broyden)= 0.58934E-03
  rms(prec ) = 0.10270E-02
  weight for this iteration     100.00

 eigenvalues of (default mixing * dielectric matrix)
  average eigenvalue GAMMA=   2.2612
  7.6442  4.3692  2.4992  2.3494  1.6815  1.3565  1.0148  1.0148  1.0095  0.9673
  0.9673

 Free energy of the ion-electron system (eV)
  ---------------------------------------------------
  alpha Z        PSCENC =         0.62641250
  Ewald energy   TEWEN  =       901.61088102
  -Hartree energ DENC   =     -1433.15948467
  -exchange      EXHF   =         0.00000000
  -V(xc)+E(xc)   XCENC  =        72.81875823
  PAW double counting   =       301.34317362     -306.67457477
  entropy T*S    EENTRO =        -0.00000000
  eigenvalues    EBANDS =      -256.63606968
  atomic energy  EATOM  =       663.51739852
  Solvation  Ediel_sol  =         0.00000000
  ---------------------------------------------------
  free energy    TOTEN  =       -56.55350522 eV

  energy without entropy =      -56.55350522  energy(sigma->0) =      -56.55350522


--------------------------------------------------------------------------------------------------------




--------------------------------------- Iteration      1(  17)  ---------------------------------------


    POTLOK:  cpu time      0.3020: real time      0.3037
    SETDIJ:  cpu time      0.1917: real time      0.1925
     EDDAV:  cpu time      0.4450: real time      0.4475
       DOS:  cpu time      0.0001: real time      0.0001
    CHARGE:  cpu time      0.1939: real time      0.1946
    MIXING:  cpu time      0.0179: real time      0.0180
    --------------------------------------------
      LOOP:  cpu time      1.1507: real time      1.1564

 eigenvalue-minimisations  :    72
 total energy-change (2. order) :-0.4650519E-03  (-0.2446116E-05)
 number of electron      22.0000000 magnetization 
 augmentation part        0.4953640 magnetization 

 Broyden mixing:
  rms(total) = 0.38490E-03    rms(broyden)= 0.38484E-03
  rms(prec ) = 0.67607E-03
  weight for this iteration     100.00

 eigenvalues of (default mixing * dielectric matrix)
  average eigenvalue GAMMA=   2.3286
  8.0996  4.7737  2.5486  2.4681  1.7739  1.7739  1.2997  1.2997  1.0206  1.0206
  0.9577  0.9069

 Free energy of the ion-electron system (eV)
  ---------------------------------------------------
  alpha Z        PSCENC =         0.62641250
  Ewald energy   TEWEN  =       901.61088102
  -Hartree energ DENC   =     -1433.17045339
  -exchange      EXHF   =         0.00000000
  -V(xc)+E(xc)   XCENC  =        72.81787237
  PAW double counting   =       301.32600345     -306.65753637
  entropy T*S    EENTRO =        -0.00000000
  eigenvalues    EBANDS =      -256.62454838
  atomic energy  EATOM  =       663.51739852
  Solvation  Ediel_sol  =         0.00000000
  ---------------------------------------------------
  free energy    TOTEN  =       -56.55397028 eV

  energy without entropy =      -56.55397028  energy(sigma->0) =      -56.55397028


--------------------------------------------------------------------------------------------------------




--------------------------------------- Iteration      1(  18)  ---------------------------------------


    POTLOK:  cpu time      0.2994: real time      0.3010
    SETDIJ:  cpu time      0.1913: real time      0.1921
     EDDAV:  cpu time      0.4458: real time      0.4483
       DOS:  cpu time      0.0002: real time      0.0002
    CHARGE:  cpu time      0.1924: real time      0.1932
    MIXING:  cpu time      0.0184: real time      0.0185
    --------------------------------------------
      LOOP:  cpu time      1.1475: real time      1.1533

 eigenvalue-minimisations  :    72
 total energy-change (2. order) :-0.3413899E-03  (-0.2072828E-05)
 number of electron      22.0000000 magnetization 
 augmentation part        0.4953705 magnetization 

 Broyden mixing:
  rms(total) = 0.22018E-03    rms(broyden)= 0.22011E-03
  rms(prec ) = 0.36581E-03
  weight for this iteration     100.00

 eigenvalues of (default mixing * dielectric matrix)
  average eigenvalue GAMMA=   2.3146
  8.4646  5.1109  3.1040  2.4249  2.1212  1.2988  1.2988  1.2063  1.2063  1.0055
  1.0055  0.9212  0.9212

 Free energy of the ion-electron system (eV)
  ---------------------------------------------------
  alpha Z        PSCENC =         0.62641250
  Ewald energy   TEWEN  =       901.61088102
  -Hartree energ DENC   =     -1433.16716728
  -exchange      EXHF   =         0.00000000
  -V(xc)+E(xc)   XCENC  =        72.81717334
  PAW double counting   =       301.30782497     -306.63931144
  entropy T*S    EENTRO =        -0.00000000
  eigenvalues    EBANDS =      -256.62752330
  atomic energy  EATOM  =       663.51739852
  Solvation  Ediel_sol  =         0.00000000
  ---------------------------------------------------
  free energy    TOTEN  =       -56.55431167 eV

  energy without entropy =      -56.55431167  energy(sigma->0) =      -56.55431167


--------------------------------------------------------------------------------------------------------




--------------------------------------- Iteration      1(  19)  ---------------------------------------


    POTLOK:  cpu time      0.2988: real time      0.3004
    SETDIJ:  cpu time      0.1918: real time      0.1927
     EDDAV:  cpu time      0.4060: real time      0.4083
       DOS:  cpu time      0.0001: real time      0.0001
    CHARGE:  cpu time      0.1936: real time      0.1945
    MIXING:  cpu time      0.0181: real time      0.0181
    --------------------------------------------
      LOOP:  cpu time      1.1085: real time      1.1142

 eigenvalue-minimisations  :    64
 total energy-change (2. order) :-0.7623430E-04  (-0.2809683E-06)
 number of electron      22.0000000 magnetization 
 augmentation part        0.4953603 magnetization 

 Broyden mixing:
  rms(total) = 0.16494E-03    rms(broyden)= 0.16489E-03
  rms(prec ) = 0.25740E-03
  weight for this iteration     100.00

 eigenvalues of (default mixing * dielectric matrix)
  average eigenvalue GAMMA=   2.3415
  8.6764  5.3209  3.3449  2.5301  1.9653  1.9653  1.3408  1.3408  1.3474  1.0180
  1.0180  1.0570  0.9283  0.9283

 Free energy of the ion-electron system (eV)
  ---------------------------------------------------
  alpha Z        PSCENC =         0.62641250
  Ewald energy   TEWEN  =       901.61088102
  -Hartree energ DENC   =     -1433.18189602
  -exchange      EXHF   =         0.00000000
  -V(xc)+E(xc)   XCENC  =        72.81762095
  PAW double counting   =       301.31219093     -306.64377171
  entropy T*S    EENTRO =        -0.00000000
  eigenvalues    EBANDS =      -256.61322409
  atomic energy  EATOM  =       663.51739852
  Solvation  Ediel_sol  =         0.00000000
  ---------------------------------------------------
  free energy    TOTEN  =       -56.55438790 eV

  energy without entropy =      -56.55438790  energy(sigma->0) =      -56.55438790


--------------------------------------------------------------------------------------------------------




--------------------------------------- Iteration      1(  20)  ---------------------------------------


    POTLOK:  cpu time      0.3004: real time      0.3021
    SETDIJ:  cpu time      0.1911: real time      0.1919
     EDDAV:  cpu time      0.4038: real time      0.4061
       DOS:  cpu time      0.0001: real time      0.0001
    CHARGE:  cpu time      0.1956: real time      0.1964
    MIXING:  cpu time      0.0173: real time      0.0174
    --------------------------------------------
      LOOP:  cpu time      1.1083: real time      1.1139

 eigenvalue-minimisations  :    64
 total energy-change (2. order) :-0.6467616E-04  (-0.1926464E-06)
 number of electron      22.0000000 magnetization 
 augmentation part        0.4953658 magnetization 

 Broyden mixing:
  rms(total) = 0.92339E-04    rms(broyden)= 0.92262E-04
  rms(prec ) = 0.14038E-03
  weight for this iteration     100.00

 eigenvalues of (default mixing * dielectric matrix)
  average eigenvalue GAMMA=   2.3346
  8.7267  5.6579  3.7438  2.6363  2.4112  1.9280  1.2601  1.2601  1.3184  1.0111
  1.0111  1.1084  1.0800  0.9079  0.9586

 Free energy of the ion-electron system (eV)
  ---------------------------------------------------
  alpha Z        PSCENC =         0.62641250
  Ewald energy   TEWEN  =       901.61088102
  -Hartree energ DENC   =     -1433.17797812
  -exchange      EXHF   =         0.00000000
  -V(xc)+E(xc)   XCENC  =        72.81719566
  PAW double counting   =       301.30450868     -306.63602309
  entropy T*S    EENTRO =        -0.00000000
  eigenvalues    EBANDS =      -256.61684775
  atomic energy  EATOM  =       663.51739852
  Solvation  Ediel_sol  =         0.00000000
  ---------------------------------------------------
  free energy    TOTEN  =       -56.55445258 eV

  energy without entropy =      -56.55445258  energy(sigma->0) =      -56.55445258


--------------------------------------------------------------------------------------------------------




--------------------------------------- Iteration      1(  21)  ---------------------------------------


    POTLOK:  cpu time      0.3066: real time      0.3083
    SETDIJ:  cpu time      0.1917: real time      0.1925
     EDDAV:  cpu time      0.4055: real time      0.4078
       DOS:  cpu time      0.0001: real time      0.0001
    CHARGE:  cpu time      0.1931: real time      0.1938
    MIXING:  cpu time      0.0179: real time      0.0180
    --------------------------------------------
      LOOP:  cpu time      1.1149: real time      1.1205

 eigenvalue-minimisations  :    64
 total energy-change (2. order) :-0.1854343E-04  (-0.3241627E-07)
 number of electron      22.0000000 magnetization 
 augmentation part        0.4953653 magnetization 

 Broyden mixing:
  rms(total) = 0.69424E-04    rms(broyden)= 0.69336E-04
  rms(prec ) = 0.96455E-04
  weight for this iteration     100.00

 eigenvalues of (default mixing * dielectric matrix)
  average eigenvalue GAMMA=   2.3750
  8.9509  5.9055  4.2474  2.8188  2.4947  1.8895  1.7361  1.3093  1.3093  1.3735
  1.0248  1.0248  1.0392  1.0392  0.9187  0.9187

 Free energy of the ion-electron system (eV)
  ---------------------------------------------------
  alpha Z        PSCENC =         0.62641250
  Ewald energy   TEWEN  =       901.61088102
  -Hartree energ DENC   =     -1433.18345087
  -exchange      EXHF   =         0.00000000
  -V(xc)+E(xc)   XCENC  =        72.81739505
  PAW double counting   =       301.31033295     -306.64184748
  entropy T*S    EENTRO =        -0.00000000
  eigenvalues    EBANDS =      -256.61159281
  atomic energy  EATOM  =       663.51739852
  Solvation  Ediel_sol  =         0.00000000
  ---------------------------------------------------
  free energy    TOTEN  =       -56.55447112 eV

  energy without entropy =      -56.55447112  energy(sigma->0) =      -56.55447112


--------------------------------------------------------------------------------------------------------




--------------------------------------- Iteration      1(  22)  ---------------------------------------


    POTLOK:  cpu time      0.3132: real time      0.3148
    SETDIJ:  cpu time      0.1903: real time      0.1912
     EDDAV:  cpu time      0.4051: real time      0.4074
       DOS:  cpu time      0.0001: real time      0.0001
    CHARGE:  cpu time      0.1933: real time      0.1941
    MIXING:  cpu time      0.0199: real time      0.0199
    --------------------------------------------
      LOOP:  cpu time      1.1220: real time      1.1276

 eigenvalue-minimisations  :    64
 total energy-change (2. order) :-0.1142675E-04  (-0.1692599E-07)
 number of electron      22.0000000 magnetization 
 augmentation part        0.4953647 magnetization 

 Broyden mixing:
  rms(total) = 0.31491E-04    rms(broyden)= 0.31299E-04
  rms(prec ) = 0.44679E-04
  weight for this iteration     100.00

 eigenvalues of (default mixing * dielectric matrix)
  average eigenvalue GAMMA=   2.4183
  9.0682  6.2850  4.6840  3.1598  2.4536  2.4536  1.8595  1.2963  1.2963  1.3304
  1.1758  1.1758  1.0220  1.0220  0.9933  0.9176  0.9176

 Free energy of the ion-electron system (eV)
  ---------------------------------------------------
  alpha Z        PSCENC =         0.62641250
  Ewald energy   TEWEN  =       901.61088102
  -Hartree energ DENC   =     -1433.18530243
  -exchange      EXHF   =         0.00000000
  -V(xc)+E(xc)   XCENC  =        72.81738952
  PAW double counting   =       301.31163877     -306.64315421
  entropy T*S    EENTRO =        -0.00000000
  eigenvalues    EBANDS =      -256.60974623
  atomic energy  EATOM  =       663.51739852
  Solvation  Ediel_sol  =         0.00000000
  ---------------------------------------------------
  free energy    TOTEN  =       -56.55448255 eV

  energy without entropy =      -56.55448255  energy(sigma->0) =      -56.55448255


--------------------------------------------------------------------------------------------------------




--------------------------------------- Iteration      1(  23)  ---------------------------------------


    POTLOK:  cpu time      0.3110: real time      0.3126
    SETDIJ:  cpu time      0.1906: real time      0.1914
     EDDAV:  cpu time      0.4051: real time      0.4074
       DOS:  cpu time      0.0001: real time      0.0001
    CHARGE:  cpu time      0.1928: real time      0.1936
    MIXING:  cpu time      0.0187: real time      0.0188
    --------------------------------------------
      LOOP:  cpu time      1.1184: real time      1.1240

 eigenvalue-minimisations  :    64
 total energy-change (2. order) :-0.4818330E-05  (-0.9995713E-08)
 number of electron      22.0000000 magnetization 
 augmentation part        0.4953642 magnetization 

 Broyden mixing:
  rms(total) = 0.26023E-04    rms(broyden)= 0.25796E-04
  rms(prec ) = 0.32884E-04
  weight for this iteration     100.00

 eigenvalues of (default mixing * dielectric matrix)
  average eigenvalue GAMMA=   2.4119
  9.1300  6.5029  4.8228  3.2907  2.4595  2.4595  2.0495  1.3193  1.3193  1.6027
  1.3302  1.2027  1.0237  1.0237  1.0442  0.9254  0.9254  0.9823

 Free energy of the ion-electron system (eV)
  ---------------------------------------------------
  alpha Z        PSCENC =         0.62641250
  Ewald energy   TEWEN  =       901.61088102
  -Hartree energ DENC   =     -1433.18583908
  -exchange      EXHF   =         0.00000000
  -V(xc)+E(xc)   XCENC  =        72.81735176
  PAW double counting   =       301.31100215     -306.64252301
  entropy T*S    EENTRO =        -0.00000000
  eigenvalues    EBANDS =      -256.60917122
  atomic energy  EATOM  =       663.51739852
  Solvation  Ediel_sol  =         0.00000000
  ---------------------------------------------------
  free energy    TOTEN  =       -56.55448737 eV

  energy without entropy =      -56.55448737  energy(sigma->0) =      -56.55448737


--------------------------------------------------------------------------------------------------------




--------------------------------------- Iteration      1(  24)  ---------------------------------------


    POTLOK:  cpu time      0.3130: real time      0.3146
    SETDIJ:  cpu time      0.1916: real time      0.1924
     EDDAV:  cpu time      0.4433: real time      0.4457
       DOS:  cpu time      0.0001: real time      0.0001
    CHARGE:  cpu time      0.1927: real time      0.1934
    MIXING:  cpu time      0.0192: real time      0.0193
    --------------------------------------------
      LOOP:  cpu time      1.1599: real time      1.1656

 eigenvalue-minimisations  :    72
 total energy-change (2. order) :-0.1440119E-05  (-0.2593021E-08)
 number of electron      22.0000000 magnetization 
 augmentation part        0.4953642 magnetization 

 Broyden mixing:
  rms(total) = 0.84580E-05    rms(broyden)= 0.77389E-05
  rms(prec ) = 0.12738E-04
  weight for this iteration     100.00

 eigenvalues of (default mixing * dielectric matrix)
  average eigenvalue GAMMA=   2.4364
  9.1375  6.8184  5.1173  3.6897  2.7061  2.3413  2.3413  1.8629  1.3272  1.3272
  1.3643  1.1948  1.1948  1.0221  1.0221  0.9942  0.9942  0.9186  0.9186

 Free energy of the ion-electron system (eV)
  ---------------------------------------------------
  alpha Z        PSCENC =         0.62641250
  Ewald energy   TEWEN  =       901.61088102
  -Hartree energ DENC   =     -1433.18588212
  -exchange      EXHF   =         0.00000000
  -V(xc)+E(xc)   XCENC  =        72.81735286
  PAW double counting   =       301.31086515     -306.64238843
  entropy T*S    EENTRO =        -0.00000000
  eigenvalues    EBANDS =      -256.60912831
  atomic energy  EATOM  =       663.51739852
  Solvation  Ediel_sol  =         0.00000000
  ---------------------------------------------------
  free energy    TOTEN  =       -56.55448881 eV

  energy without entropy =      -56.55448881  energy(sigma->0) =      -56.55448881


--------------------------------------------------------------------------------------------------------




--------------------------------------- Iteration      1(  25)  ---------------------------------------


    POTLOK:  cpu time      0.3194: real time      0.3211
    SETDIJ:  cpu time      0.1908: real time      0.1916
     EDDAV:  cpu time      0.4091: real time      0.4114
       DOS:  cpu time      0.0001: real time      0.0001
    --------------------------------------------
      LOOP:  cpu time      0.9194: real time      0.9242

 eigenvalue-minimisations  :    64
 total energy-change (2. order) :-0.7172681E-06  (-0.2125693E-08)
 number of electron      22.0000000 magnetization 
 augmentation part        0.4953642 magnetization 

 Free energy of the ion-electron system (eV)
  ---------------------------------------------------
  alpha Z        PSCENC =         0.62641250
  Ewald energy   TEWEN  =       901.61088102
  -Hartree energ DENC   =     -1433.18622800
  -exchange      EXHF   =         0.00000000
  -V(xc)+E(xc)   XCENC  =        72.81736613
  PAW double counting   =       301.31084773     -306.64236996
  entropy T*S    EENTRO =        -0.00000000
  eigenvalues    EBANDS =      -256.60879747
  atomic energy  EATOM  =       663.51739852
  Solvation  Ediel_sol  =         0.00000000
  ---------------------------------------------------
  free energy    TOTEN  =       -56.55448952 eV

  energy without entropy =      -56.55448952  energy(sigma->0) =      -56.55448952


--------------------------------------------------------------------------------------------------------




 average (electrostatic) potential at core
  the test charge radii are     0.6991  0.5201
  (the norm of the test charge is              1.0000)
       1 -58.5570       2 -58.8421       3 -58.8003       4 -58.4140       5 -41.7748
       6 -41.6697       7 -41.6272       8 -41.5485       9 -42.1334      10 -42.0744
 
 
 
 E-fermi :  -5.6341     XC(G=0):  -0.4382     alpha+bet : -0.1681

 Fermi energy:        -5.6340600155

 k-point     1 :       0.0000    0.0000    0.0000
  band No.  band energies     occupation 
      1     -19.9819      2.00000
      2     -17.9050      2.00000
      3     -14.8879      2.00000
      4     -12.6406      2.00000
      5     -11.9327      2.00000
      6     -10.4571      2.00000
      7     -10.2419      2.00000
      8      -8.6873      2.00000
      9      -8.2354      2.00000
     10      -7.4535      2.00000
     11      -5.8812      2.00000
     12      -1.7928      0.00000
     13      -0.3843      0.00000
     14       0.0324      0.00000
     15       0.2211      0.00000
     16       0.3032      0.00000
     17       0.4136      0.00000
     18       0.4409      0.00000
     19       0.5644      0.00000
     20       0.7012      0.00000
     21       0.8824      0.00000
     22       0.9349      0.00000
     23       1.0042      0.00000
     24       1.1140      0.00000


--------------------------------------------------------------------------------------------------------


 soft charge-density along one line, spin component           1
         0         1         2         3         4         5         6         7         8         9
 total charge-density along one line
 
 pseudopotential strength for first ion, spin component:           1
 10.251   0.020   0.002  -0.001   0.001   0.002  -0.001   0.002
  0.020  -0.001  -0.000   0.000  -0.000   0.000  -0.000   0.000
  0.002  -0.000  -4.365   0.005  -0.009  -0.016   0.001  -0.003
 -0.001   0.000   0.005  -4.364  -0.000   0.001  -0.017  -0.000
  0.001  -0.000  -0.009  -0.000  -4.355  -0.003  -0.000  -0.014
  0.002   0.000  -0.016   0.001  -0.003  -0.773   0.000  -0.000
 -0.001  -0.000   0.001  -0.017  -0.000   0.000  -0.773  -0.000
  0.002   0.000  -0.003  -0.000  -0.014  -0.000  -0.000  -0.772
 total augmentation occupancy for first ion, spin component:           1
  1.489  -1.066  -0.057   0.028  -0.027  -0.028   0.013  -0.019
 -1.066   0.868   0.115  -0.054   0.085   0.049  -0.023   0.030
 -0.057   0.115   1.134  -0.076   0.151   0.183  -0.026   0.057
  0.028  -0.054  -0.076   1.162   0.002  -0.026   0.189   0.009
 -0.027   0.085   0.151   0.002   1.011   0.057   0.009   0.128
 -0.028   0.049   0.183  -0.026   0.057   0.033  -0.007   0.014
  0.013  -0.023  -0.026   0.189   0.009  -0.007   0.033   0.002
 -0.019   0.030   0.057   0.009   0.128   0.014   0.002   0.019


------------------------ aborting loop because EDIFF is reached ----------------------------------------


    CHARGE:  cpu time      0.1941: real time      0.1949
    FORLOC:  cpu time      0.0350: real time      0.0351
    FORNL :  cpu time      1.0726: real time      1.0777
    STRESS:  cpu time      3.3944: real time      3.4106
    FORHAR:  cpu time      0.1104: real time      0.1109
    MIXING:  cpu time      0.0122: real time      0.0122
    OFIELD:  cpu time      0.0001: real time      0.0001

  FORCE on cell =-STRESS in cart. coord.  units (eV):
  Direction    XX          YY          ZZ          XY          YZ          ZX
  --------------------------------------------------------------------------------------
  Alpha Z     0.62641     0.62641     0.62641
  Ewald    -116.40033   355.18733   662.82356   116.88161    -4.08320   -70.12844
  Hartree   246.69402   470.85119   715.64105    58.47164    -4.23020   -60.04808
  E(xc)     -77.60740   -75.96409   -75.65381     0.38275    -0.00983     0.05755
  Local    -350.36442 -1014.35805 -1565.85141  -168.96350     7.81353   132.98580
  n-local   -28.50691   -30.73005   -30.50745    -0.40845     0.25973    -0.19785
  augment    -0.56850    -0.73532    -0.72429    -0.02734     0.00275    -0.01741
  Kinetic   325.34626   294.86573   293.10659    -7.08317    -0.78189    -4.35271
  Fock        0.00000     0.00000     0.00000     0.00000     0.00000     0.00000
  -------------------------------------------------------------------------------------
  Total      -0.78087    -0.25685    -0.53936    -0.74646    -1.02911    -1.70114
  in kB      -0.37069    -0.12193    -0.25604    -0.35436    -0.48854    -0.80756
  external pressure =       -0.25 kB  Pullay stress =        0.00 kB


 VOLUME and BASIS-vectors are now :
 -----------------------------------------------------------------------------
  energy-cutoff  :      520.00
  volume of cell :     3375.00
      direct lattice vectors                 reciprocal lattice vectors
    15.000000000  0.000000000  0.000000000     0.066666667  0.000000000  0.000000000
     0.000000000 15.000000000  0.000000000     0.000000000  0.066666667  0.000000000
     0.000000000  0.000000000 15.000000000     0.000000000  0.000000000  0.066666667

  length of vectors
    15.000000000 15.000000000 15.000000000     0.066666667  0.066666667  0.066666667


 FORCES acting on ions
    electron-ion (+dipol)            ewald-force                    non-local-force                 convergence-correction
 -----------------------------------------------------------------------------------------------
   -.638E+02 -.971E+02 0.103E+03   0.651E+02 0.985E+02 -.104E+03   -.677E+00 -.149E+00 -.253E-01   -.750E-04 -.994E-04 0.811E-04
   0.396E+02 0.974E+02 0.681E+02   -.406E+02 -.984E+02 -.686E+02   0.279E-01 -.340E+00 0.475E+00   0.326E-04 0.735E-04 -.791E-04
   0.142E+02 0.112E+03 -.421E+02   -.140E+02 -.114E+03 0.421E+02   0.472E+00 -.917E+00 -.710E+00   0.235E-04 -.735E-04 -.217E-03
   0.131E+02 -.878E+02 -.124E+03   -.132E+02 0.889E+02 0.125E+03   -.203E+00 -.848E+00 -.206E+00   0.534E-05 0.593E-04 -.208E-04
   0.369E+01 -.179E+02 0.643E+02   -.406E+01 0.187E+02 -.690E+02   0.948E+00 -.880E+00 0.525E+01   -.497E-06 -.572E-05 0.376E-04
   -.405E+02 -.478E+02 -.124E+02   0.424E+02 0.503E+02 0.144E+02   -.279E+01 -.324E+01 -.279E+01   -.209E-04 -.221E-04 -.131E-04
   0.259E+02 0.483E+02 0.407E+02   -.272E+02 -.504E+02 -.424E+02   0.185E+01 0.335E+01 0.288E+01   0.178E-04 0.347E-04 0.282E-04
   -.458E+01 0.628E+02 -.288E+02   0.486E+01 -.660E+02 0.302E+02   -.487E+00 0.447E+01 -.201E+01   0.351E-05 -.171E-04 -.671E-05
   0.150E+02 -.655E+02 0.662E+00   -.161E+02 0.720E+02 -.315E+01   0.112E+01 -.560E+01 0.221E+01   -.416E-05 0.354E-04 -.206E-04
   -.244E+01 -.109E+01 -.692E+02   0.281E+01 0.390E+00 0.758E+02   -.399E+00 0.694E+00 -.594E+01   0.358E-05 0.580E-06 0.340E-04
 -----------------------------------------------------------------------------------------------
   0.149E+00 0.345E+01 0.860E+00   -.147E-13 -.404E-13 0.142E-13   -.142E+00 -.346E+01 -.862E+00   -.142E-04 -.144E-04 -.177E-03
 
 
 POSITION                                       TOTAL-FORCE (eV/Angst)
 -----------------------------------------------------------------------------------
      7.95400      7.99400      6.12900         0.567093      1.232516     -0.697948
      7.38300      6.93400      6.69300        -1.024616     -1.312508     -0.073693
      7.31600      6.82300      8.16400         0.737655     -2.850817     -0.651990
      7.25700      7.86300      8.96900        -0.253006      0.254437      0.721941
      7.78100      8.17900      5.04600         0.583133     -0.025572      0.574160
      8.56200      8.72900      6.74400        -0.836231     -0.677467     -0.802402
      6.92300      6.11800      6.01000         0.488445      1.234477      1.214338
      7.42500      5.77700      8.62300        -0.203209      1.256666     -0.617185
      7.07200      8.84100      8.58900        -0.029246      0.897619     -0.274192
      7.32600      7.74200     10.03300        -0.030018     -0.009351      0.606972
 -----------------------------------------------------------------------------------
    total drift:                                0.007628     -0.011241     -0.001793


--------------------------------------------------------------------------------------------------------



  FREE ENERGIE OF THE ION-ELECTRON SYSTEM (eV)
  ---------------------------------------------------
  free  energy   TOTEN  =       -56.55448952 eV

  energy  without entropy=      -56.55448952  energy(sigma->0) =      -56.55448952
 


--------------------------------------------------------------------------------------------------------


    POTLOK:  cpu time      0.5083: real time      0.5108


--------------------------------------------------------------------------------------------------------


 stress matrix after NEB project (eV)
     -0.78087     -0.74646     -1.70114
     -0.74646     -0.25685     -1.02911
     -1.70114     -1.02911     -0.53936
  FORCES: max atom, RMS     3.016021    1.543187
  FORCE total and by dimension    4.879985    2.850817
  Stress total and by dimension    3.160205    1.701137
     LOOP+:  cpu time     30.6712: real time     30.8249
    4ORBIT:  cpu time      0.0000: real time      0.0000

 total amount of memory used by VASP MPI-rank0   224782. kBytes
=======================================================================

   base      :      30000. kBytes
   nonlr-proj:       1258. kBytes
   fftplans  :     123538. kBytes
   grid      :      67787. kBytes
   one-center:         15. kBytes
   wavefun   :       2184. kBytes
 
  
  
 General timing and accounting informations for this job:
 ========================================================
  
                  Total CPU time used (sec):       37.294
                            User time (sec):       34.152
                          System time (sec):        3.142
                         Elapsed time (sec):       38.728
  
                   Maximum memory used (kb):      560208.
                   Average memory used (kb):          N/A
  
                          Minor page faults:       164245
                          Major page faults:         5437
                 Voluntary context switches:         3113
