 vasp.6.4.2 20Jul23 (build Apr 10 2024 13:39:58) complex                        
  
 executed on             LinuxIFC date 2024.05.17  20:42:08
 running   16 mpi-ranks, on    1 nodes
 distrk:  each k-point on   16 cores,    1 groups
 distr:  one band on NCORE=   2 cores,    8 groups


--------------------------------------------------------------------------------------------------------


 INCAR:
   ISTART = 0
   ISPIN = 1
   LREAL = Auto
   ENCUT = 520
   NPAR = 8
   LPLANE = .TRUE.
   LSCALU = .FALSE.
   NSIM = 4
   LWAVE = .FALSE.
   LCHARG = .FALSE.
   ADDGRID = .TRUE.
   LASPH = .TRUE.
   PREC = Accurate
   ISMEAR = 0
   SIGMA = 0.05
   EDIFF = 1E-06
   NSW = 0
   TEBEG = 300
   TEEND = 700     	
   ISYM = 0
   NWRITE = 2

 POTCAR:   PAW_PBE C 08Apr2002                    
 POTCAR:   PAW_PBE H 15Jun2001                    
 POTCAR:   PAW_PBE C 08Apr2002                    
   VRHFIN =C: s2p2                                                                                  
   LEXCH  = PE                                                                                      
   EATOM  =   147.1560 eV,   10.8157 Ry                                                             
                                                                                                    
   TITEL  = PAW_PBE C 08Apr2002                                                                     
   LULTRA =        F    use ultrasoft PP ?                                                          
   IUNSCR =        0    unscreen: 0-lin 1-nonlin 2-no                                               
   RPACOR =     .000    partial core radius                                                         
   POMASS =   12.011; ZVAL   =    4.000    mass and valenz                                          
   RCORE  =    1.500    outmost cutoff radius                                                       
   RWIGS  =    1.630; RWIGS  =     .863    wigner-seitz radius (au A)                               
   ENMAX  =  400.000; ENMIN  =  300.000 eV                                                          
   ICORE  =        2    local potential                                                             
   LCOR   =        T    correct aug charges                                                         
   LPAW   =        T    paw PP                                                                      
   EAUG   =  644.873                                                                                
   DEXC   =     .000                                                                                
   RMAX   =    2.266    core radius for proj-oper                                                   
   RAUG   =    1.300    factor for augmentation sphere                                              
   RDEP   =    1.501    radius for radial grids                                                     
   RDEPT  =    1.300    core radius for aug-charge                                                  
   QCUT   =   -5.516; QGAM   =   11.032    optimization parameters                                  
                                                                                                    
   Description                                                                                      
     l     E      TYP  RCUT    TYP  RCUT                                                            
     0   .000     23  1.200                                                                         
     0   .000     23  1.200                                                                         
     1   .000     23  1.500                                                                         
     1  2.500     23  1.500                                                                         
     2   .000      7  1.500                                                                         
  local pseudopotential read in
  atomic valenz-charges read in
  non local Contribution for L=           0  read in
    real space projection operators read in
  non local Contribution for L=           0  read in
    real space projection operators read in
  non local Contribution for L=           1  read in
    real space projection operators read in
  non local Contribution for L=           1  read in
    real space projection operators read in
    PAW grid and wavefunctions read in
 
   number of l-projection  operators is LMAX  =           4
   number of lm-projection operators is LMMAX =           8
 
 POTCAR:   PAW_PBE H 15Jun2001                    
   VRHFIN =H: ultrasoft test                                                                        
   LEXCH  = PE                                                                                      
   EATOM  =    12.4884 eV,     .9179 Ry                                                             
                                                                                                    
   TITEL  = PAW_PBE H 15Jun2001                                                                     
   LULTRA =        F    use ultrasoft PP ?                                                          
   IUNSCR =        0    unscreen: 0-lin 1-nonlin 2-no                                               
   RPACOR =     .000    partial core radius                                                         
   POMASS =    1.000; ZVAL   =    1.000    mass and valenz                                          
   RCORE  =    1.100    outmost cutoff radius                                                       
   RWIGS  =     .700; RWIGS  =     .370    wigner-seitz radius (au A)                               
   ENMAX  =  250.000; ENMIN  =  200.000 eV                                                          
   RCLOC  =     .701    cutoff for local pot                                                        
   LCOR   =        T    correct aug charges                                                         
   LPAW   =        T    paw PP                                                                      
   EAUG   =  400.000                                                                                
   RMAX   =    2.174    core radius for proj-oper                                                   
   RAUG   =    1.200    factor for augmentation sphere                                              
   RDEP   =    1.112    radius for radial grids                                                     
   QCUT   =   -5.749; QGAM   =   11.498    optimization parameters                                  
                                                                                                    
   Description                                                                                      
     l     E      TYP  RCUT    TYP  RCUT                                                            
     0   .000     23  1.100                                                                         
     0   .500     23  1.100                                                                         
     1  -.300     23  1.100                                                                         
  local pseudopotential read in
  atomic valenz-charges read in
  non local Contribution for L=           0  read in
    real space projection operators read in
  non local Contribution for L=           0  read in
    real space projection operators read in
  non local Contribution for L=           1  read in
    real space projection operators read in
    PAW grid and wavefunctions read in
 
   number of l-projection  operators is LMAX  =           3
   number of lm-projection operators is LMMAX =           5
 
 Optimization of the real space projectors (new method)

 maximal supplied QI-value         = 25.13
 optimisation between [QCUT,QGAM] = [ 11.56, 23.12] = [ 37.43,149.72] Ry 
 Optimized for a Real-space Cutoff    1.04 Angstroem

   l    n(q)    QCUT    max X(q) W(low)/X(q) W(high)/X(q)  e(spline) 
   0      7    11.561     5.582    0.47E-04    0.94E-04    0.17E-07
   0      7    11.561    69.432    0.20E-03    0.59E-03    0.21E-06
   1      7    11.561     2.780    0.24E-04    0.70E-04    0.44E-07
   1      7    11.561     4.549    0.18E-03    0.25E-03    0.12E-06
 Optimization of the real space projectors (new method)

 maximal supplied QI-value         = 34.20
 optimisation between [QCUT,QGAM] = [ 11.63, 23.26] = [ 37.87,151.49] Ry 
 Optimized for a Real-space Cutoff    1.21 Angstroem

   l    n(q)    QCUT    max X(q) W(low)/X(q) W(high)/X(q)  e(spline) 
   0      8    11.629     4.436    0.19E-04    0.32E-04    0.47E-07
   0      8    11.629    16.131    0.16E-03    0.33E-03    0.21E-06
   1      8    11.629     4.654    0.18E-03    0.16E-03    0.26E-06
 PAW_PBE C 08Apr2002                    :
 energy of atom  1       EATOM= -147.1560
 kinetic energy error for atom=    0.0071 (will be added to EATOM!!)
 PAW_PBE H 15Jun2001                    :
 energy of atom  2       EATOM=  -12.4884
 kinetic energy error for atom=    0.0014 (will be added to EATOM!!)
 
 
 POSCAR:  C  H
  positions in cartesian coordinates
  No initial velocities read in
 exchange correlation table for  LEXCH =        8
   RHO(1)=    0.500       N(1)  =     2000
   RHO(2)=  100.500       N(2)  =     4000

 VTST: version 4.1, (05/19/21)

 CHAIN: initializing optimizer
 
 OPT: Using VASP Dynamics algorithm
 CHAIN: Read ICHAIN            0
 
 POSCAR:  C  H
  positions in cartesian coordinates
  No initial velocities read in
 


--------------------------------------------------------------------------------------------------------


 ion  position               nearest neighbor table
   1  0.554  0.501  0.404-   6 1.12   5 1.14   2 1.46
   2  0.466  0.510  0.446-   7 1.14   3 1.45   1 1.46
   3  0.447  0.512  0.541-   8 1.13   4 1.42   2 1.45
   4  0.508  0.488  0.609-   9 1.09  10 1.10   3 1.42
   5  0.562  0.501  0.328-   1 1.14
   6  0.617  0.491  0.442-   1 1.12
   7  0.412  0.518  0.394-   2 1.14
   8  0.376  0.530  0.559-   3 1.13
   9  0.574  0.458  0.598-   4 1.09
  10  0.485  0.491  0.678-   4 1.10
 

IMPORTANT INFORMATION: All symmetrisations will be switched off!
NOSYMM: (Re-)initialisation of all symmetry stuff for point group C_1.


----------------------------------------------------------------------------------------

                                     Primitive cell                                     

  volume of cell :    3375.0000

  direct lattice vectors                    reciprocal lattice vectors
    15.000000000  0.000000000  0.000000000     0.066666667  0.000000000  0.000000000
     0.000000000 15.000000000  0.000000000     0.000000000  0.066666667  0.000000000
     0.000000000  0.000000000 15.000000000     0.000000000  0.000000000  0.066666667

  length of vectors
    15.000000000 15.000000000 15.000000000     0.066666667  0.066666667  0.066666667

  position of ions in fractional coordinates (direct lattice)
     0.554066658  0.501466656  0.403933334
     0.466466681  0.509733327  0.446066666
     0.446533330  0.512399991  0.540866661
     0.508399995  0.488199997  0.608533351
     0.561800003  0.501200008  0.328466670
     0.617266655  0.491266664  0.442400010
     0.411666679  0.517666658  0.394399993
     0.375599988  0.529599984  0.559266663
     0.573533312  0.457800007  0.598466682
     0.484666665  0.490600014  0.677733358

  ion indices of the primitive-cell ions
   primitive index   ion index
                 1           1
                 2           2
                 3           3
                 4           4
                 5           5
                 6           6
                 7           7
                 8           8
                 9           9
                10          10

----------------------------------------------------------------------------------------

 
 
 KPOINTS: K-Spacing Value to Generate K-Mesh: 1.00

Automatic generation of k-mesh.
 Grid dimensions read from file:
 generate k-points for:    1    1    1

 Generating k-lattice:

  Cartesian coordinates                     Fractional coordinates (reciprocal lattice)
     0.066666667  0.000000000  0.000000000     1.000000000  0.000000000  0.000000000
     0.000000000  0.066666667  0.000000000     0.000000000  1.000000000  0.000000000
     0.000000000  0.000000000  0.066666667     0.000000000  0.000000000  1.000000000

  Length of vectors
     0.066666667  0.066666667  0.066666667

  Shift w.r.t. Gamma in fractional coordinates (k-lattice)
     0.000000000  0.000000000  0.000000000

 
 Subroutine IBZKPT returns following result:
 ===========================================
 
 Found      1 irreducible k-points:
 
 Following reciprocal coordinates:
            Coordinates               Weight
  0.000000  0.000000  0.000000      1.000000
 
 Following cartesian coordinates:
            Coordinates               Weight
  0.000000  0.000000  0.000000      1.000000
 


--------------------------------------------------------------------------------------------------------




 Dimension of arrays:
   k-points           NKPTS =      1   k-points in BZ     NKDIM =      1   number of bands    NBANDS=     24
   number of dos      NEDOS =    301   number of ions     NIONS =     10
   non local maximal  LDIM  =      4   non local SUM 2l+1 LMDIM =      8
   total plane-waves  NPLWV = ******
   max r-space proj   IRMAX =   3145   max aug-charges    IRDMAX=  39494
   dimension x,y,z NGX =   112 NGY =  112 NGZ =  112
   dimension x,y,z NGXF=   224 NGYF=  224 NGZF=  224
   support grid    NGXF=   448 NGYF=  448 NGZF=  448
   ions per type =               4   6
   NGX,Y,Z   is equivalent  to a cutoff of  12.41, 12.41, 12.41 a.u.
   NGXF,Y,Z  is equivalent  to a cutoff of  24.83, 24.83, 24.83 a.u.

 SYSTEM =  unknown system                          
 POSCAR =   C  H                                   

 Startparameter for this run:
   NWRITE =      2    write-flag & timer
   PREC   = accura    normal or accurate (medium, high low for compatibility)
   ISTART =      0    job   : 0-new  1-cont  2-samecut
   ICHARG =      2    charge: 1-file 2-atom 10-const
   ISPIN  =      1    spin polarized calculation?
   LNONCOLLINEAR =      F non collinear calculations
   LSORBIT =      F    spin-orbit coupling
   INIWAV =      1    electr: 0-lowe 1-rand  2-diag
   LASPH  =      T    aspherical Exc in radial PAW
 Electronic Relaxation 1
   ENCUT  =  520.0 eV  38.22 Ry    6.18 a.u.  27.89 27.89 27.89*2*pi/ulx,y,z
   ENINI  =  520.0     initial cutoff
   ENAUG  =  644.9 eV  augmentation charge cutoff
   NELM   =     60;   NELMIN=  2; NELMDL= -5     # of ELM steps 
   EDIFF  = 0.1E-05   stopping-criterion for ELM
   LREAL  =      T    real-space projection
   NLSPLINE    = F    spline interpolate recip. space projectors
   LCOMPAT=      F    compatible to vasp.4.4
   GGA_COMPAT  = T    GGA compatible to vasp.4.4-vasp.4.6
   LMAXPAW     = -100 max onsite density
   LMAXMIX     =    2 max onsite mixed and CHGCAR
   VOSKOWN=      0    Vosko Wilk Nusair interpolation
   ROPT   =   -0.00025  -0.00025
 Ionic relaxation
   EDIFFG = 0.1E-04   stopping-criterion for IOM
   NSW    =      0    number of steps for IOM
   NBLOCK =      1;   KBLOCK =      1    inner block; outer block 
   IBRION =     -1    ionic relax: 0-MD 1-quasi-New 2-CG
   NFREE  =      0    steps in history (QN), initial steepest desc. (CG)
   ISIF   =      2    stress and relaxation
   IWAVPR =     10    prediction:  0-non 1-charg 2-wave 3-comb
   ISYM   =      0    0-nonsym 1-usesym 2-fastsym
   LCORR  =      T    Harris-Foulkes like correction to forces

   POTIM  = 0.5000    time-step for ionic-motion
   TEIN   =    0.0    initial temperature
   TEBEG  =  300.0;   TEEND  = 700.0 temperature during run
   SMASS  =  -3.00    Nose mass-parameter (am)
   estimated Nose-frequenzy (Omega)   =  0.10E-29 period in steps = 0.13E+47 mass=  -0.514E-26a.u.
   SCALEE = 1.0000    scale energy and forces
   NPACO  =    256;   APACO  = 10.0  distance and # of slots for P.C.
   PSTRESS=    0.0 pullay stress

  Mass of Ions in am
   POMASS =  12.01  1.00
  Ionic Valenz
   ZVAL   =   4.00  1.00
  Atomic Wigner-Seitz radii
   RWIGS  =  -1.00 -1.00
  virtual crystal weights 
   VCA    =   1.00  1.00
   NELECT =      22.0000    total number of electrons
   NUPDOWN=      -1.0000    fix difference up-down

 DOS related values:
   EMIN   =  10.00;   EMAX   =-10.00  energy-range for DOS
   EFERMI =   0.00;   METHOD = LEGACY      
   ISMEAR =     0;   SIGMA  =   0.05  broadening in eV -4-tet -1-fermi 0-gaus

 Electronic relaxation 2 (details)
   IALGO  =     38    algorithm
   LDIAG  =      T    sub-space diagonalisation (order eigenvalues)
   LSUBROT=      F    optimize rotation matrix (better conditioning)
   TURBO    =      0    0=normal 1=particle mesh
   IRESTART =      0    0=no restart 2=restart with 2 vectors
   NREBOOT  =      0    no. of reboots
   NMIN     =      0    reboot dimension
   EREF     =   0.00    reference energy to select bands
   IMIX   =      4    mixing-type and parameters
     AMIX     =   0.40;   BMIX     =  1.00
     AMIX_MAG =   1.60;   BMIX_MAG =  1.00
     AMIN     =   0.10
     WC   =   100.;   INIMIX=   1;  MIXPRE=   1;  MAXMIX= -45

 Intra band minimization:
   WEIMIN = 0.0000     energy-eigenvalue tresh-hold
   EBREAK =  0.10E-07  absolut break condition
   DEPER  =   0.30     relativ break condition  

   TIME   =   0.40     timestep for ELM

  volume/ion in A,a.u.               =     337.50      2277.56
  Fermi-wavevector in a.u.,A,eV,Ry     =   0.305814  0.577905  1.272449  0.093522
  Thomas-Fermi vector in A             =   1.179187
 
 Write flags
   LWAVE        =      F    write WAVECAR
   LDOWNSAMPLE  =      F    k-point downsampling of WAVECAR
   LCHARG       =      F    write CHGCAR
   LVTOT        =      F    write LOCPOT, total local potential
   LVHAR        =      F    write LOCPOT, Hartree potential only
   LELF         =      F    write electronic localiz. function (ELF)
   LORBIT       =      0    0 simple, 1 ext, 2 COOP (PROOUT), +10 PAW based schemes


 Dipole corrections
   LMONO  =      F    monopole corrections only (constant potential shift)
   LDIPOL =      F    correct potential (dipole corrections)
   IDIPOL =      0    1-x, 2-y, 3-z, 4-all directions 
   EPSILON=  1.0000000 bulk dielectric constant

 Exchange correlation treatment:
   GGA     =    --    GGA type
   LEXCH   =     8    internal setting for exchange type
   LIBXC   =     F    Libxc                    
   VOSKOWN =     0    Vosko Wilk Nusair interpolation
   LHFCALC =     F    Hartree Fock is set to
   LHFONE  =     F    Hartree Fock one center treatment
   AEXX    =    0.0000 exact exchange contribution

 Linear response parameters
   LEPSILON=     F    determine dielectric tensor
   LRPA    =     F    only Hartree local field effects (RPA)
   LNABLA  =     F    use nabla operator in PAW spheres
   LVEL    =     F    velocity operator in full k-point grid
   CSHIFT  =0.1000    complex shift for real part using Kramers Kronig
   OMEGAMAX=  -1.0    maximum frequency
   DEG_THRESHOLD= 0.2000000E-02 threshold for treating states as degnerate
   RTIME   =   -0.100 relaxation time in fs
  (WPLASMAI=    0.000 imaginary part of plasma frequency in eV, 0.658/RTIME)
   DFIELD  = 0.0000000 0.0000000 0.0000000 field for delta impulse in time
 
  Optional k-point grid parameters
   LKPOINTS_OPT  =     F    use optional k-point grid
   KPOINTS_OPT_MODE=     1    mode for optional k-point grid
 
 Orbital magnetization related:
   ORBITALMAG=     F  switch on orbital magnetization
   LCHIMAG   =     F  perturbation theory with respect to B field
   DQ        =  0.001000  dq finite difference perturbation B field
   LLRAUG    =     F  two centre corrections for induced B field
   LBONE     =     F  B-component reconstruction in AE one-centre
   LVGVCALC  =     T  calculate vGv susceptibility
   LVGVAPPL  =     F  apply vGv susceptibility instead of pGv for G=0

 Random number generation:
   RANDOM_GENERATOR = DEFAULT
   PCG_SEED         = not used


--------------------------------------------------------------------------------------------------------


 Static calculation
 charge density and potential will be updated during run
 non-spin polarized calculation
 Variant of blocked Davidson
 Davidson routine will perform the subspace rotation
 perform sub-space diagonalisation
    after iterative eigenvector-optimisation
 modified Broyden-mixing scheme, WC =      100.0
 initial mixing is a Kerker type mixing with AMIX =  0.4000 and BMIX =      1.0000
 Hartree-type preconditioning will be used
 using additional bands           13
 real space projection scheme for non local part
 calculate Harris-corrections to forces 
   (improved forces if not selfconsistent)
 use gradient corrections 
 use of overlap-Matrix (Vanderbilt PP)
 Gauss-broadening in eV      SIGMA  =   0.05


--------------------------------------------------------------------------------------------------------


  energy-cutoff  :      520.00
  volume of cell :     3375.00
      direct lattice vectors                 reciprocal lattice vectors
    15.000000000  0.000000000  0.000000000     0.066666667  0.000000000  0.000000000
     0.000000000 15.000000000  0.000000000     0.000000000  0.066666667  0.000000000
     0.000000000  0.000000000 15.000000000     0.000000000  0.000000000  0.066666667

  length of vectors
    15.000000000 15.000000000 15.000000000     0.066666667  0.066666667  0.066666667


 
 k-points in units of 2pi/SCALE and weight: K-Spacing Value to Generate K-Mesh: 1.00
   0.00000000  0.00000000  0.00000000       1.000
 
 k-points in reciprocal lattice and weights: K-Spacing Value to Generate K-Mesh: 1.00
   0.00000000  0.00000000  0.00000000       1.000
 
 position of ions in fractional coordinates (direct lattice) 
   0.55406666  0.50146666  0.40393333
   0.46646668  0.50973333  0.44606667
   0.44653333  0.51239999  0.54086666
   0.50840000  0.48820000  0.60853335
   0.56180000  0.50120001  0.32846667
   0.61726665  0.49126666  0.44240001
   0.41166668  0.51766666  0.39439999
   0.37559999  0.52959998  0.55926666
   0.57353331  0.45780001  0.59846668
   0.48466667  0.49060001  0.67773336
 
 position of ions in cartesian coordinates  (Angst):
   8.31099987  7.52199984  6.05900002
   6.99700022  7.64599991  6.69099998
   6.69799995  7.68599987  8.11299992
   7.62599993  7.32299995  9.12800026
   8.42700005  7.51800013  4.92700005
   9.25899982  7.36899996  6.63600016
   6.17500019  7.76499987  5.91599989
   5.63399982  7.94399977  8.38899994
   8.60299969  6.86700010  8.97700024
   7.26999998  7.35900021 10.16600037
 


--------------------------------------------------------------------------------------------------------


 k-point   1 :   0.0000 0.0000 0.0000  plane waves:   90879

 maximum and minimum number of plane-waves per node :     45467    45412

 maximum number of plane-waves:     90879
 maximum index in each direction: 
   IXMAX=   27   IYMAX=   27   IZMAX=   27
   IXMIN=  -27   IYMIN=  -27   IZMIN=  -27


 real space projection operators:
  total allocation   :       1185.38 KBytes
  max/ min on nodes  :        593.00        592.38


 parallel 3D FFT for wavefunctions:
    minimum data exchange during FFTs selected (reduces bandwidth)
 parallel 3D FFT for charge:
    minimum data exchange during FFTs selected (reduces bandwidth)


 total amount of memory used by VASP MPI-rank0   224780. kBytes
=======================================================================

   base      :      30000. kBytes
   nonlr-proj:       1256. kBytes
   fftplans  :     123538. kBytes
   grid      :      67787. kBytes
   one-center:         15. kBytes
   wavefun   :       2184. kBytes
 
     INWAV:  cpu time      0.0000: real time      0.0000
 Broyden mixing: mesh for mixing (old mesh)
   NGX = 55   NGY = 55   NGZ = 55
  (NGX  =224   NGY  =224   NGZ  =224)
  gives a total of 166375 points

 initial charge density was supplied:
 charge density of overlapping atoms calculated
 number of electron      22.0000000 magnetization 
 keeping initial charge density in first step


--------------------------------------------------------------------------------------------------------


 Maximum index for non-local projection operator         1515
 Maximum index for augmentation-charges         2487 (set IRDMAX)


--------------------------------------------------------------------------------------------------------


 First call to EWALD:  gamma=   0.118
 Maximum number of real-space cells 3x 3x 3
 Maximum number of reciprocal cells 3x 3x 3

    FEWALD:  cpu time      0.0010: real time      0.0010


--------------------------------------- Ionic step        1  -------------------------------------------




--------------------------------------- Iteration      1(   1)  ---------------------------------------


    POTLOK:  cpu time      0.3378: real time      0.3397
    SETDIJ:  cpu time      0.1924: real time      0.1932
     EDDAV:  cpu time      0.4183: real time      0.4207
       DOS:  cpu time      0.0003: real time      0.0003
    --------------------------------------------
      LOOP:  cpu time      0.9488: real time      0.9538

 eigenvalue-minimisations  :    64
 total energy-change (2. order) : 0.9765185E+02  (-0.5226672E+03)
 number of electron      22.0000000 magnetization 
 augmentation part       22.0000000 magnetization 

 Free energy of the ion-electron system (eV)
  ---------------------------------------------------
  alpha Z        PSCENC =         0.62641250
  Ewald energy   TEWEN  =       839.74965906
  -Hartree energ DENC   =     -1276.06425653
  -exchange      EXHF   =         0.00000000
  -V(xc)+E(xc)   XCENC  =        66.51466206
  PAW double counting   =       156.01372664     -160.66969168
  entropy T*S    EENTRO =        -0.00548021
  eigenvalues    EBANDS =      -192.03058261
  atomic energy  EATOM  =       663.51739852
  Solvation  Ediel_sol  =         0.00000000
  ---------------------------------------------------
  free energy    TOTEN  =        97.65184776 eV

  energy without entropy =       97.65732796  energy(sigma->0) =       97.65458786


--------------------------------------------------------------------------------------------------------




--------------------------------------- Iteration      1(   2)  ---------------------------------------


     EDDAV:  cpu time      0.4446: real time      0.4472
       DOS:  cpu time      0.0001: real time      0.0001
    --------------------------------------------
      LOOP:  cpu time      0.4447: real time      0.4473

 eigenvalue-minimisations  :    72
 total energy-change (2. order) :-0.1175434E+03  (-0.1152940E+03)
 number of electron      22.0000000 magnetization 
 augmentation part       22.0000000 magnetization 

 Free energy of the ion-electron system (eV)
  ---------------------------------------------------
  alpha Z        PSCENC =         0.62641250
  Ewald energy   TEWEN  =       839.74965906
  -Hartree energ DENC   =     -1276.06425653
  -exchange      EXHF   =         0.00000000
  -V(xc)+E(xc)   XCENC  =        66.51466206
  PAW double counting   =       156.01372664     -160.66969168
  entropy T*S    EENTRO =        -0.00000000
  eigenvalues    EBANDS =      -309.57942788
  atomic energy  EATOM  =       663.51739852
  Solvation  Ediel_sol  =         0.00000000
  ---------------------------------------------------
  free energy    TOTEN  =       -19.89151731 eV

  energy without entropy =      -19.89151731  energy(sigma->0) =      -19.89151731


--------------------------------------------------------------------------------------------------------




--------------------------------------- Iteration      1(   3)  ---------------------------------------


     EDDAV:  cpu time      0.4431: real time      0.4456
       DOS:  cpu time      0.0001: real time      0.0001
    --------------------------------------------
      LOOP:  cpu time      0.4432: real time      0.4457

 eigenvalue-minimisations  :    72
 total energy-change (2. order) :-0.3982360E+02  (-0.3973154E+02)
 number of electron      22.0000000 magnetization 
 augmentation part       22.0000000 magnetization 

 Free energy of the ion-electron system (eV)
  ---------------------------------------------------
  alpha Z        PSCENC =         0.62641250
  Ewald energy   TEWEN  =       839.74965906
  -Hartree energ DENC   =     -1276.06425653
  -exchange      EXHF   =         0.00000000
  -V(xc)+E(xc)   XCENC  =        66.51466206
  PAW double counting   =       156.01372664     -160.66969168
  entropy T*S    EENTRO =        -0.00000000
  eigenvalues    EBANDS =      -349.40302526
  atomic energy  EATOM  =       663.51739852
  Solvation  Ediel_sol  =         0.00000000
  ---------------------------------------------------
  free energy    TOTEN  =       -59.71511469 eV

  energy without entropy =      -59.71511469  energy(sigma->0) =      -59.71511469


--------------------------------------------------------------------------------------------------------




--------------------------------------- Iteration      1(   4)  ---------------------------------------


     EDDAV:  cpu time      0.4028: real time      0.4051
       DOS:  cpu time      0.0001: real time      0.0001
    --------------------------------------------
      LOOP:  cpu time      0.4029: real time      0.4052

 eigenvalue-minimisations  :    64
 total energy-change (2. order) :-0.1876882E+01  (-0.1873937E+01)
 number of electron      22.0000000 magnetization 
 augmentation part       22.0000000 magnetization 

 Free energy of the ion-electron system (eV)
  ---------------------------------------------------
  alpha Z        PSCENC =         0.62641250
  Ewald energy   TEWEN  =       839.74965906
  -Hartree energ DENC   =     -1276.06425653
  -exchange      EXHF   =         0.00000000
  -V(xc)+E(xc)   XCENC  =        66.51466206
  PAW double counting   =       156.01372664     -160.66969168
  entropy T*S    EENTRO =        -0.00000000
  eigenvalues    EBANDS =      -351.27990755
  atomic energy  EATOM  =       663.51739852
  Solvation  Ediel_sol  =         0.00000000
  ---------------------------------------------------
  free energy    TOTEN  =       -61.59199698 eV

  energy without entropy =      -61.59199698  energy(sigma->0) =      -61.59199698


--------------------------------------------------------------------------------------------------------




--------------------------------------- Iteration      1(   5)  ---------------------------------------


     EDDAV:  cpu time      0.4455: real time      0.4480
       DOS:  cpu time      0.0001: real time      0.0001
    CHARGE:  cpu time      0.1990: real time      0.1998
    MIXING:  cpu time      0.0128: real time      0.0128
    --------------------------------------------
      LOOP:  cpu time      0.6574: real time      0.6608

 eigenvalue-minimisations  :    72
 total energy-change (2. order) :-0.3205503E-01  (-0.3203996E-01)
 number of electron      22.0000000 magnetization 
 augmentation part        0.5421706 magnetization 

 Broyden mixing:
  rms(total) = 0.10827E+01    rms(broyden)= 0.10826E+01
  rms(prec ) = 0.12977E+01
  weight for this iteration     100.00

 Free energy of the ion-electron system (eV)
  ---------------------------------------------------
  alpha Z        PSCENC =         0.62641250
  Ewald energy   TEWEN  =       839.74965906
  -Hartree energ DENC   =     -1276.06425653
  -exchange      EXHF   =         0.00000000
  -V(xc)+E(xc)   XCENC  =        66.51466206
  PAW double counting   =       156.01372664     -160.66969168
  entropy T*S    EENTRO =        -0.00000000
  eigenvalues    EBANDS =      -351.31196258
  atomic energy  EATOM  =       663.51739852
  Solvation  Ediel_sol  =         0.00000000
  ---------------------------------------------------
  free energy    TOTEN  =       -61.62405201 eV

  energy without entropy =      -61.62405201  energy(sigma->0) =      -61.62405201


--------------------------------------------------------------------------------------------------------




--------------------------------------- Iteration      1(   6)  ---------------------------------------


    POTLOK:  cpu time      0.3107: real time      0.3124
    SETDIJ:  cpu time      0.1885: real time      0.1893
     EDDAV:  cpu time      0.4061: real time      0.4084
       DOS:  cpu time      0.0001: real time      0.0001
    CHARGE:  cpu time      0.1966: real time      0.1974
    MIXING:  cpu time      0.0109: real time      0.0109
    --------------------------------------------
      LOOP:  cpu time      1.1129: real time      1.1185

 eigenvalue-minimisations  :    64
 total energy-change (2. order) : 0.4177869E+01  (-0.5880856E+00)
 number of electron      22.0000000 magnetization 
 augmentation part        0.4995197 magnetization 

 Broyden mixing:
  rms(total) = 0.53488E+00    rms(broyden)= 0.53486E+00
  rms(prec ) = 0.63442E+00
  weight for this iteration     100.00

 eigenvalues of (default mixing * dielectric matrix)
  average eigenvalue GAMMA=   1.6479
  1.6479

 Free energy of the ion-electron system (eV)
  ---------------------------------------------------
  alpha Z        PSCENC =         0.62641250
  Ewald energy   TEWEN  =       839.74965906
  -Hartree energ DENC   =     -1317.66058964
  -exchange      EXHF   =         0.00000000
  -V(xc)+E(xc)   XCENC  =        68.72905476
  PAW double counting   =       218.74825294     -223.87593467
  entropy T*S    EENTRO =        -0.00000000
  eigenvalues    EBANDS =      -307.28043667
  atomic energy  EATOM  =       663.51739852
  Solvation  Ediel_sol  =         0.00000000
  ---------------------------------------------------
  free energy    TOTEN  =       -57.44618321 eV

  energy without entropy =      -57.44618321  energy(sigma->0) =      -57.44618321


--------------------------------------------------------------------------------------------------------




--------------------------------------- Iteration      1(   7)  ---------------------------------------


    POTLOK:  cpu time      0.3120: real time      0.3138
    SETDIJ:  cpu time      0.1872: real time      0.1881
     EDDAV:  cpu time      0.4094: real time      0.4117
       DOS:  cpu time      0.0001: real time      0.0001
    CHARGE:  cpu time      0.1975: real time      0.1983
    MIXING:  cpu time      0.0125: real time      0.0126
    --------------------------------------------
      LOOP:  cpu time      1.1188: real time      1.1245

 eigenvalue-minimisations  :    64
 total energy-change (2. order) : 0.1067161E+01  (-0.3575715E+00)
 number of electron      22.0000000 magnetization 
 augmentation part        0.4710066 magnetization 

 Broyden mixing:
  rms(total) = 0.21153E+00    rms(broyden)= 0.21147E+00
  rms(prec ) = 0.24324E+00
  weight for this iteration     100.00

 eigenvalues of (default mixing * dielectric matrix)
  average eigenvalue GAMMA=   1.7074
  1.7074  1.7074

 Free energy of the ion-electron system (eV)
  ---------------------------------------------------
  alpha Z        PSCENC =         0.62641250
  Ewald energy   TEWEN  =       839.74965906
  -Hartree energ DENC   =     -1352.61155351
  -exchange      EXHF   =         0.00000000
  -V(xc)+E(xc)   XCENC  =        70.77499177
  PAW double counting   =       271.40265313     -276.75225396
  entropy T*S    EENTRO =        -0.00000000
  eigenvalues    EBANDS =      -273.08632991
  atomic energy  EATOM  =       663.51739852
  Solvation  Ediel_sol  =         0.00000000
  ---------------------------------------------------
  free energy    TOTEN  =       -56.37902239 eV

  energy without entropy =      -56.37902239  energy(sigma->0) =      -56.37902239


--------------------------------------------------------------------------------------------------------




--------------------------------------- Iteration      1(   8)  ---------------------------------------


    POTLOK:  cpu time      0.3161: real time      0.3178
    SETDIJ:  cpu time      0.1876: real time      0.1884
     EDDAV:  cpu time      0.4511: real time      0.4536
       DOS:  cpu time      0.0001: real time      0.0001
    CHARGE:  cpu time      0.1973: real time      0.1981
    MIXING:  cpu time      0.0100: real time      0.0100
    --------------------------------------------
      LOOP:  cpu time      1.1622: real time      1.1680

 eigenvalue-minimisations  :    72
 total energy-change (2. order) : 0.1318915E+00  (-0.2136739E-01)
 number of electron      22.0000000 magnetization 
 augmentation part        0.4716077 magnetization 

 Broyden mixing:
  rms(total) = 0.71995E-01    rms(broyden)= 0.71987E-01
  rms(prec ) = 0.97636E-01
  weight for this iteration     100.00

 eigenvalues of (default mixing * dielectric matrix)
  average eigenvalue GAMMA=   1.6128
  2.4112  1.6294  0.7978

 Free energy of the ion-electron system (eV)
  ---------------------------------------------------
  alpha Z        PSCENC =         0.62641250
  Ewald energy   TEWEN  =       839.74965906
  -Hartree energ DENC   =     -1357.96624626
  -exchange      EXHF   =         0.00000000
  -V(xc)+E(xc)   XCENC  =        71.19206472
  PAW double counting   =       274.76473283     -280.01524201
  entropy T*S    EENTRO =        -0.00000000
  eigenvalues    EBANDS =      -268.11591026
  atomic energy  EATOM  =       663.51739852
  Solvation  Ediel_sol  =         0.00000000
  ---------------------------------------------------
  free energy    TOTEN  =       -56.24713090 eV

  energy without entropy =      -56.24713090  energy(sigma->0) =      -56.24713090


--------------------------------------------------------------------------------------------------------




--------------------------------------- Iteration      1(   9)  ---------------------------------------


    POTLOK:  cpu time      0.3168: real time      0.3185
    SETDIJ:  cpu time      0.1882: real time      0.1891
     EDDAV:  cpu time      0.3635: real time      0.3655
       DOS:  cpu time      0.0001: real time      0.0002
    CHARGE:  cpu time      0.1937: real time      0.1945
    MIXING:  cpu time      0.0114: real time      0.0115
    --------------------------------------------
      LOOP:  cpu time      1.0737: real time      1.0791

 eigenvalue-minimisations  :    56
 total energy-change (2. order) : 0.3716857E-01  (-0.6145764E-02)
 number of electron      22.0000000 magnetization 
 augmentation part        0.4700545 magnetization 

 Broyden mixing:
  rms(total) = 0.25692E-01    rms(broyden)= 0.25685E-01
  rms(prec ) = 0.48713E-01
  weight for this iteration     100.00

 eigenvalues of (default mixing * dielectric matrix)
  average eigenvalue GAMMA=   1.4035
  2.3065  1.5992  0.8542  0.8542

 Free energy of the ion-electron system (eV)
  ---------------------------------------------------
  alpha Z        PSCENC =         0.62641250
  Ewald energy   TEWEN  =       839.74965906
  -Hartree energ DENC   =     -1363.40736754
  -exchange      EXHF   =         0.00000000
  -V(xc)+E(xc)   XCENC  =        71.51027622
  PAW double counting   =       278.15641739     -283.37182368
  entropy T*S    EENTRO =        -0.00000000
  eigenvalues    EBANDS =      -262.99093481
  atomic energy  EATOM  =       663.51739852
  Solvation  Ediel_sol  =         0.00000000
  ---------------------------------------------------
  free energy    TOTEN  =       -56.20996233 eV

  energy without entropy =      -56.20996233  energy(sigma->0) =      -56.20996233


--------------------------------------------------------------------------------------------------------




--------------------------------------- Iteration      1(  10)  ---------------------------------------


    POTLOK:  cpu time      0.3174: real time      0.3190
    SETDIJ:  cpu time      0.1884: real time      0.1892
     EDDAV:  cpu time      0.4432: real time      0.4457
       DOS:  cpu time      0.0001: real time      0.0001
    CHARGE:  cpu time      0.1944: real time      0.1952
    MIXING:  cpu time      0.0137: real time      0.0137
    --------------------------------------------
      LOOP:  cpu time      1.1572: real time      1.1629

 eigenvalue-minimisations  :    72
 total energy-change (2. order) : 0.4769050E-02  (-0.1308741E-02)
 number of electron      22.0000000 magnetization 
 augmentation part        0.4687428 magnetization 

 Broyden mixing:
  rms(total) = 0.16424E-01    rms(broyden)= 0.16421E-01
  rms(prec ) = 0.36302E-01
  weight for this iteration     100.00

 eigenvalues of (default mixing * dielectric matrix)
  average eigenvalue GAMMA=   1.5624
  2.3360  2.3360  1.3889  0.8756  0.8756

 Free energy of the ion-electron system (eV)
  ---------------------------------------------------
  alpha Z        PSCENC =         0.62641250
  Ewald energy   TEWEN  =       839.74965906
  -Hartree energ DENC   =     -1365.30782317
  -exchange      EXHF   =         0.00000000
  -V(xc)+E(xc)   XCENC  =        71.55152078
  PAW double counting   =       278.35499616     -283.58137950
  entropy T*S    EENTRO =        -0.00000000
  eigenvalues    EBANDS =      -261.11597763
  atomic energy  EATOM  =       663.51739852
  Solvation  Ediel_sol  =         0.00000000
  ---------------------------------------------------
  free energy    TOTEN  =       -56.20519328 eV

  energy without entropy =      -56.20519328  energy(sigma->0) =      -56.20519328


--------------------------------------------------------------------------------------------------------




--------------------------------------- Iteration      1(  11)  ---------------------------------------


    POTLOK:  cpu time      0.3181: real time      0.3198
    SETDIJ:  cpu time      0.1931: real time      0.1939
     EDDAV:  cpu time      0.3632: real time      0.3653
       DOS:  cpu time      0.0001: real time      0.0001
    CHARGE:  cpu time      0.1965: real time      0.1973
    MIXING:  cpu time      0.0122: real time      0.0122
    --------------------------------------------
      LOOP:  cpu time      1.0833: real time      1.0887

 eigenvalue-minimisations  :    56
 total energy-change (2. order) : 0.9364329E-02  (-0.1278916E-02)
 number of electron      22.0000000 magnetization 
 augmentation part        0.4677820 magnetization 

 Broyden mixing:
  rms(total) = 0.99800E-02    rms(broyden)= 0.99786E-02
  rms(prec ) = 0.19278E-01
  weight for this iteration     100.00

 eigenvalues of (default mixing * dielectric matrix)
  average eigenvalue GAMMA=   1.6363
  3.1677  2.4313  1.3249  1.0967  0.8985  0.8985

 Free energy of the ion-electron system (eV)
  ---------------------------------------------------
  alpha Z        PSCENC =         0.62641250
  Ewald energy   TEWEN  =       839.74965906
  -Hartree energ DENC   =     -1370.10359922
  -exchange      EXHF   =         0.00000000
  -V(xc)+E(xc)   XCENC  =        71.66800495
  PAW double counting   =       276.98583632     -282.20525143
  entropy T*S    EENTRO =        -0.00000000
  eigenvalues    EBANDS =      -256.43428965
  atomic energy  EATOM  =       663.51739852
  Solvation  Ediel_sol  =         0.00000000
  ---------------------------------------------------
  free energy    TOTEN  =       -56.19582895 eV

  energy without entropy =      -56.19582895  energy(sigma->0) =      -56.19582895


--------------------------------------------------------------------------------------------------------




--------------------------------------- Iteration      1(  12)  ---------------------------------------


    POTLOK:  cpu time      0.3193: real time      0.3210
    SETDIJ:  cpu time      0.1918: real time      0.1926
     EDDAV:  cpu time      0.4016: real time      0.4038
       DOS:  cpu time      0.0001: real time      0.0001
    CHARGE:  cpu time      0.1977: real time      0.1985
    MIXING:  cpu time      0.0090: real time      0.0090
    --------------------------------------------
      LOOP:  cpu time      1.1195: real time      1.1250

 eigenvalue-minimisations  :    64
 total energy-change (2. order) : 0.1177883E-02  (-0.1347980E-03)
 number of electron      22.0000000 magnetization 
 augmentation part        0.4678191 magnetization 

 Broyden mixing:
  rms(total) = 0.60267E-02    rms(broyden)= 0.60266E-02
  rms(prec ) = 0.12828E-01
  weight for this iteration     100.00

 eigenvalues of (default mixing * dielectric matrix)
  average eigenvalue GAMMA=   1.8486
  4.0317  2.4422  2.2412  1.3390  1.1582  0.8638  0.8638

 Free energy of the ion-electron system (eV)
  ---------------------------------------------------
  alpha Z        PSCENC =         0.62641250
  Ewald energy   TEWEN  =       839.74965906
  -Hartree energ DENC   =     -1371.34153402
  -exchange      EXHF   =         0.00000000
  -V(xc)+E(xc)   XCENC  =        71.69355449
  PAW double counting   =       276.43441062     -281.64804214
  entropy T*S    EENTRO =        -0.00000000
  eigenvalues    EBANDS =      -255.22651011
  atomic energy  EATOM  =       663.51739852
  Solvation  Ediel_sol  =         0.00000000
  ---------------------------------------------------
  free energy    TOTEN  =       -56.19465107 eV

  energy without entropy =      -56.19465107  energy(sigma->0) =      -56.19465107


--------------------------------------------------------------------------------------------------------




--------------------------------------- Iteration      1(  13)  ---------------------------------------


    POTLOK:  cpu time      0.3120: real time      0.3136
    SETDIJ:  cpu time      0.1910: real time      0.1918
     EDDAV:  cpu time      0.3631: real time      0.3651
       DOS:  cpu time      0.0001: real time      0.0001
    CHARGE:  cpu time      0.1982: real time      0.1990
    MIXING:  cpu time      0.0093: real time      0.0093
    --------------------------------------------
      LOOP:  cpu time      1.0737: real time      1.0790

 eigenvalue-minimisations  :    56
 total energy-change (2. order) :-0.9505393E-02  (-0.1918731E-03)
 number of electron      22.0000000 magnetization 
 augmentation part        0.4677043 magnetization 

 Broyden mixing:
  rms(total) = 0.33163E-02    rms(broyden)= 0.33160E-02
  rms(prec ) = 0.66354E-02
  weight for this iteration     100.00

 eigenvalues of (default mixing * dielectric matrix)
  average eigenvalue GAMMA=   1.8691
  4.9306  2.6207  2.1696  1.3176  0.8623  0.8623  1.0950  1.0950

 Free energy of the ion-electron system (eV)
  ---------------------------------------------------
  alpha Z        PSCENC =         0.62641250
  Ewald energy   TEWEN  =       839.74965906
  -Hartree energ DENC   =     -1372.69388590
  -exchange      EXHF   =         0.00000000
  -V(xc)+E(xc)   XCENC  =        71.70736117
  PAW double counting   =       276.41872208     -281.63356065
  entropy T*S    EENTRO =        -0.00000000
  eigenvalues    EBANDS =      -253.89626325
  atomic energy  EATOM  =       663.51739852
  Solvation  Ediel_sol  =         0.00000000
  ---------------------------------------------------
  free energy    TOTEN  =       -56.20415646 eV

  energy without entropy =      -56.20415646  energy(sigma->0) =      -56.20415646


--------------------------------------------------------------------------------------------------------




--------------------------------------- Iteration      1(  14)  ---------------------------------------


    POTLOK:  cpu time      0.3157: real time      0.3174
    SETDIJ:  cpu time      0.1926: real time      0.1934
     EDDAV:  cpu time      0.4062: real time      0.4085
       DOS:  cpu time      0.0001: real time      0.0001
    CHARGE:  cpu time      0.1988: real time      0.1995
    MIXING:  cpu time      0.0101: real time      0.0102
    --------------------------------------------
      LOOP:  cpu time      1.1235: real time      1.1291

 eigenvalue-minimisations  :    64
 total energy-change (2. order) :-0.4611682E-02  (-0.5082873E-04)
 number of electron      22.0000000 magnetization 
 augmentation part        0.4676264 magnetization 

 Broyden mixing:
  rms(total) = 0.22020E-02    rms(broyden)= 0.22018E-02
  rms(prec ) = 0.45125E-02
  weight for this iteration     100.00

 eigenvalues of (default mixing * dielectric matrix)
  average eigenvalue GAMMA=   2.1090
  6.0384  3.3287  2.4968  1.8793  1.2900  1.2900  0.8572  0.8572  0.9436

 Free energy of the ion-electron system (eV)
  ---------------------------------------------------
  alpha Z        PSCENC =         0.62641250
  Ewald energy   TEWEN  =       839.74965906
  -Hartree energ DENC   =     -1372.84087054
  -exchange      EXHF   =         0.00000000
  -V(xc)+E(xc)   XCENC  =        71.69742977
  PAW double counting   =       276.39778315     -281.61352130
  entropy T*S    EENTRO =        -0.00000000
  eigenvalues    EBANDS =      -253.74305932
  atomic energy  EATOM  =       663.51739852
  Solvation  Ediel_sol  =         0.00000000
  ---------------------------------------------------
  free energy    TOTEN  =       -56.20876815 eV

  energy without entropy =      -56.20876815  energy(sigma->0) =      -56.20876815


--------------------------------------------------------------------------------------------------------




--------------------------------------- Iteration      1(  15)  ---------------------------------------


    POTLOK:  cpu time      0.3070: real time      0.3087
    SETDIJ:  cpu time      0.1908: real time      0.1917
     EDDAV:  cpu time      0.4048: real time      0.4071
       DOS:  cpu time      0.0001: real time      0.0001
    CHARGE:  cpu time      0.1971: real time      0.1979
    MIXING:  cpu time      0.0105: real time      0.0105
    --------------------------------------------
      LOOP:  cpu time      1.1103: real time      1.1159

 eigenvalue-minimisations  :    64
 total energy-change (2. order) :-0.6010337E-02  (-0.1173852E-03)
 number of electron      22.0000000 magnetization 
 augmentation part        0.4676735 magnetization 

 Broyden mixing:
  rms(total) = 0.18812E-02    rms(broyden)= 0.18811E-02
  rms(prec ) = 0.26605E-02
  weight for this iteration     100.00

 eigenvalues of (default mixing * dielectric matrix)
  average eigenvalue GAMMA=   2.0739
  6.3779  3.6731  2.3576  1.9569  1.4033  1.1687  1.1687  0.8580  0.8580  0.9172

 Free energy of the ion-electron system (eV)
  ---------------------------------------------------
  alpha Z        PSCENC =         0.62641250
  Ewald energy   TEWEN  =       839.74965906
  -Hartree energ DENC   =     -1372.89406445
  -exchange      EXHF   =         0.00000000
  -V(xc)+E(xc)   XCENC  =        71.68505165
  PAW double counting   =       276.44002835     -281.65402359
  entropy T*S    EENTRO =        -0.00000000
  eigenvalues    EBANDS =      -253.68524052
  atomic energy  EATOM  =       663.51739852
  Solvation  Ediel_sol  =         0.00000000
  ---------------------------------------------------
  free energy    TOTEN  =       -56.21477848 eV

  energy without entropy =      -56.21477848  energy(sigma->0) =      -56.21477848


--------------------------------------------------------------------------------------------------------




--------------------------------------- Iteration      1(  16)  ---------------------------------------


    POTLOK:  cpu time      0.3064: real time      0.3081
    SETDIJ:  cpu time      0.1911: real time      0.1919
     EDDAV:  cpu time      0.4429: real time      0.4453
       DOS:  cpu time      0.0001: real time      0.0001
    CHARGE:  cpu time      0.1980: real time      0.1988
    MIXING:  cpu time      0.0095: real time      0.0095
    --------------------------------------------
      LOOP:  cpu time      1.1479: real time      1.1537

 eigenvalue-minimisations  :    72
 total energy-change (2. order) :-0.7493729E-03  (-0.1496818E-04)
 number of electron      22.0000000 magnetization 
 augmentation part        0.4675148 magnetization 

 Broyden mixing:
  rms(total) = 0.83545E-03    rms(broyden)= 0.83524E-03
  rms(prec ) = 0.14636E-02
  weight for this iteration     100.00

 eigenvalues of (default mixing * dielectric matrix)
  average eigenvalue GAMMA=   2.1744
  7.3502  4.0951  2.3452  2.3452  1.5333  1.4526  1.0936  1.0936  0.8497  0.8497
  0.9106

 Free energy of the ion-electron system (eV)
  ---------------------------------------------------
  alpha Z        PSCENC =         0.62641250
  Ewald energy   TEWEN  =       839.74965906
  -Hartree energ DENC   =     -1373.02794894
  -exchange      EXHF   =         0.00000000
  -V(xc)+E(xc)   XCENC  =        71.68694155
  PAW double counting   =       276.48104992     -281.69623211
  entropy T*S    EENTRO =        -0.00000000
  eigenvalues    EBANDS =      -253.55280836
  atomic energy  EATOM  =       663.51739852
  Solvation  Ediel_sol  =         0.00000000
  ---------------------------------------------------
  free energy    TOTEN  =       -56.21552786 eV

  energy without entropy =      -56.21552786  energy(sigma->0) =      -56.21552786


--------------------------------------------------------------------------------------------------------




--------------------------------------- Iteration      1(  17)  ---------------------------------------


    POTLOK:  cpu time      0.3035: real time      0.3051
    SETDIJ:  cpu time      0.1907: real time      0.1916
     EDDAV:  cpu time      0.4022: real time      0.4044
       DOS:  cpu time      0.0001: real time      0.0001
    CHARGE:  cpu time      0.1986: real time      0.1995
    MIXING:  cpu time      0.0105: real time      0.0106
    --------------------------------------------
      LOOP:  cpu time      1.1058: real time      1.1113

 eigenvalue-minimisations  :    64
 total energy-change (2. order) :-0.1060726E-02  (-0.1162489E-04)
 number of electron      22.0000000 magnetization 
 augmentation part        0.4675559 magnetization 

 Broyden mixing:
  rms(total) = 0.41777E-03    rms(broyden)= 0.41771E-03
  rms(prec ) = 0.74615E-03
  weight for this iteration     100.00

 eigenvalues of (default mixing * dielectric matrix)
  average eigenvalue GAMMA=   2.1749
  7.6462  4.5589  2.5165  2.3969  1.5777  1.3892  1.3892  0.8451  0.8451  1.0147
  1.0147  0.9043

 Free energy of the ion-electron system (eV)
  ---------------------------------------------------
  alpha Z        PSCENC =         0.62641250
  Ewald energy   TEWEN  =       839.74965906
  -Hartree energ DENC   =     -1372.98213369
  -exchange      EXHF   =         0.00000000
  -V(xc)+E(xc)   XCENC  =        71.68316559
  PAW double counting   =       276.42414731     -281.63881779
  entropy T*S    EENTRO =        -0.00000000
  eigenvalues    EBANDS =      -253.59642008
  atomic energy  EATOM  =       663.51739852
  Solvation  Ediel_sol  =         0.00000000
  ---------------------------------------------------
  free energy    TOTEN  =       -56.21658858 eV

  energy without entropy =      -56.21658858  energy(sigma->0) =      -56.21658858


--------------------------------------------------------------------------------------------------------




--------------------------------------- Iteration      1(  18)  ---------------------------------------


    POTLOK:  cpu time      0.3030: real time      0.3046
    SETDIJ:  cpu time      0.1909: real time      0.1917
     EDDAV:  cpu time      0.4446: real time      0.4471
       DOS:  cpu time      0.0001: real time      0.0001
    CHARGE:  cpu time      0.1968: real time      0.1975
    MIXING:  cpu time      0.0097: real time      0.0098
    --------------------------------------------
      LOOP:  cpu time      1.1450: real time      1.1508

 eigenvalue-minimisations  :    72
 total energy-change (2. order) :-0.2400396E-03  (-0.1465581E-05)
 number of electron      22.0000000 magnetization 
 augmentation part        0.4675358 magnetization 

 Broyden mixing:
  rms(total) = 0.29000E-03    rms(broyden)= 0.28993E-03
  rms(prec ) = 0.51498E-03
  weight for this iteration     100.00

 eigenvalues of (default mixing * dielectric matrix)
  average eigenvalue GAMMA=   2.2522
  8.2944  4.9407  2.7167  2.7167  1.8970  1.4650  1.4650  1.1382  1.1382  0.9975
  0.8543  0.8543  0.8008

 Free energy of the ion-electron system (eV)
  ---------------------------------------------------
  alpha Z        PSCENC =         0.62641250
  Ewald energy   TEWEN  =       839.74965906
  -Hartree energ DENC   =     -1373.01443126
  -exchange      EXHF   =         0.00000000
  -V(xc)+E(xc)   XCENC  =        71.68420975
  PAW double counting   =       276.44171619     -281.65650259
  entropy T*S    EENTRO =        -0.00000000
  eigenvalues    EBANDS =      -253.56529080
  atomic energy  EATOM  =       663.51739852
  Solvation  Ediel_sol  =         0.00000000
  ---------------------------------------------------
  free energy    TOTEN  =       -56.21682862 eV

  energy without entropy =      -56.21682862  energy(sigma->0) =      -56.21682862


--------------------------------------------------------------------------------------------------------




--------------------------------------- Iteration      1(  19)  ---------------------------------------


    POTLOK:  cpu time      0.2999: real time      0.3015
    SETDIJ:  cpu time      0.1900: real time      0.1908
     EDDAV:  cpu time      0.4017: real time      0.4040
       DOS:  cpu time      0.0001: real time      0.0001
    CHARGE:  cpu time      0.1901: real time      0.1908
    MIXING:  cpu time      0.0188: real time      0.0188
    --------------------------------------------
      LOOP:  cpu time      1.1004: real time      1.1060

 eigenvalue-minimisations  :    64
 total energy-change (2. order) :-0.2300408E-03  (-0.1280245E-05)
 number of electron      22.0000000 magnetization 
 augmentation part        0.4675320 magnetization 

 Broyden mixing:
  rms(total) = 0.25143E-03    rms(broyden)= 0.25138E-03
  rms(prec ) = 0.35088E-03
  weight for this iteration     100.00

 eigenvalues of (default mixing * dielectric matrix)
  average eigenvalue GAMMA=   2.2073
  8.4332  5.1632  3.0484  2.3547  2.0505  1.3320  1.3320  1.3788  1.1992  1.0343
  1.0343  0.8522  0.8522  0.8374

 Free energy of the ion-electron system (eV)
  ---------------------------------------------------
  alpha Z        PSCENC =         0.62641250
  Ewald energy   TEWEN  =       839.74965906
  -Hartree energ DENC   =     -1373.01870858
  -exchange      EXHF   =         0.00000000
  -V(xc)+E(xc)   XCENC  =        71.68388766
  PAW double counting   =       276.43407252     -281.64899494
  entropy T*S    EENTRO =        -0.00000000
  eigenvalues    EBANDS =      -253.56078540
  atomic energy  EATOM  =       663.51739852
  Solvation  Ediel_sol  =         0.00000000
  ---------------------------------------------------
  free energy    TOTEN  =       -56.21705866 eV

  energy without entropy =      -56.21705866  energy(sigma->0) =      -56.21705866


--------------------------------------------------------------------------------------------------------




--------------------------------------- Iteration      1(  20)  ---------------------------------------


    POTLOK:  cpu time      0.3015: real time      0.3031
    SETDIJ:  cpu time      0.1904: real time      0.1912
     EDDAV:  cpu time      0.4062: real time      0.4084
       DOS:  cpu time      0.0001: real time      0.0001
    CHARGE:  cpu time      0.1928: real time      0.1936
    MIXING:  cpu time      0.0185: real time      0.0185
    --------------------------------------------
      LOOP:  cpu time      1.1095: real time      1.1150

 eigenvalue-minimisations  :    64
 total energy-change (2. order) :-0.4974448E-04  (-0.1964706E-06)
 number of electron      22.0000000 magnetization 
 augmentation part        0.4675424 magnetization 

 Broyden mixing:
  rms(total) = 0.11959E-03    rms(broyden)= 0.11949E-03
  rms(prec ) = 0.19731E-03
  weight for this iteration     100.00

 eigenvalues of (default mixing * dielectric matrix)
  average eigenvalue GAMMA=   2.2808
  8.7085  5.5787  3.6347  2.5104  2.3050  1.7216  1.5121  1.2749  1.2749  1.1098
  1.1098  0.8535  0.8535  0.9497  0.8151

 Free energy of the ion-electron system (eV)
  ---------------------------------------------------
  alpha Z        PSCENC =         0.62641250
  Ewald energy   TEWEN  =       839.74965906
  -Hartree energ DENC   =     -1373.01446628
  -exchange      EXHF   =         0.00000000
  -V(xc)+E(xc)   XCENC  =        71.68386946
  PAW double counting   =       276.43019711     -281.64492005
  entropy T*S    EENTRO =        -0.00000000
  eigenvalues    EBANDS =      -253.56525873
  atomic energy  EATOM  =       663.51739852
  Solvation  Ediel_sol  =         0.00000000
  ---------------------------------------------------
  free energy    TOTEN  =       -56.21710841 eV

  energy without entropy =      -56.21710841  energy(sigma->0) =      -56.21710841


--------------------------------------------------------------------------------------------------------




--------------------------------------- Iteration      1(  21)  ---------------------------------------


    POTLOK:  cpu time      0.3069: real time      0.3085
    SETDIJ:  cpu time      0.1905: real time      0.1913
     EDDAV:  cpu time      0.4045: real time      0.4068
       DOS:  cpu time      0.0001: real time      0.0001
    CHARGE:  cpu time      0.2009: real time      0.2017
    MIXING:  cpu time      0.0105: real time      0.0106
    --------------------------------------------
      LOOP:  cpu time      1.1133: real time      1.1190

 eigenvalue-minimisations  :    64
 total energy-change (2. order) :-0.5215451E-04  (-0.1492961E-06)
 number of electron      22.0000000 magnetization 
 augmentation part        0.4675401 magnetization 

 Broyden mixing:
  rms(total) = 0.44455E-04    rms(broyden)= 0.44291E-04
  rms(prec ) = 0.82397E-04
  weight for this iteration     100.00

 eigenvalues of (default mixing * dielectric matrix)
  average eigenvalue GAMMA=   2.2836
  8.8889  5.8144  4.0223  2.7352  2.3829  1.8356  1.4125  1.4125  1.2524  1.2524
  1.0391  1.0391  0.8524  0.8524  0.9204  0.8250

 Free energy of the ion-electron system (eV)
  ---------------------------------------------------
  alpha Z        PSCENC =         0.62641250
  Ewald energy   TEWEN  =       839.74965906
  -Hartree energ DENC   =     -1373.02015624
  -exchange      EXHF   =         0.00000000
  -V(xc)+E(xc)   XCENC  =        71.68378657
  PAW double counting   =       276.43188030     -281.64669352
  entropy T*S    EENTRO =        -0.00000000
  eigenvalues    EBANDS =      -253.55944775
  atomic energy  EATOM  =       663.51739852
  Solvation  Ediel_sol  =         0.00000000
  ---------------------------------------------------
  free energy    TOTEN  =       -56.21716056 eV

  energy without entropy =      -56.21716056  energy(sigma->0) =      -56.21716056


--------------------------------------------------------------------------------------------------------




--------------------------------------- Iteration      1(  22)  ---------------------------------------


    POTLOK:  cpu time      0.3111: real time      0.3128
    SETDIJ:  cpu time      0.1916: real time      0.1924
     EDDAV:  cpu time      0.4044: real time      0.4067
       DOS:  cpu time      0.0001: real time      0.0001
    CHARGE:  cpu time      0.2027: real time      0.2034
    MIXING:  cpu time      0.0113: real time      0.0113
    --------------------------------------------
      LOOP:  cpu time      1.1211: real time      1.1268

 eigenvalue-minimisations  :    64
 total energy-change (2. order) :-0.1176155E-04  (-0.1187913E-07)
 number of electron      22.0000000 magnetization 
 augmentation part        0.4675409 magnetization 

 Broyden mixing:
  rms(total) = 0.30410E-04    rms(broyden)= 0.30179E-04
  rms(prec ) = 0.52668E-04
  weight for this iteration     100.00

 eigenvalues of (default mixing * dielectric matrix)
  average eigenvalue GAMMA=   2.3767
  9.0296  6.2692  4.5537  3.1361  2.5717  2.1036  1.9927  1.4798  1.2723  1.2723
  1.0990  1.0990  0.8531  0.8531  1.0523  0.9398  0.8271

 Free energy of the ion-electron system (eV)
  ---------------------------------------------------
  alpha Z        PSCENC =         0.62641250
  Ewald energy   TEWEN  =       839.74965906
  -Hartree energ DENC   =     -1373.01924490
  -exchange      EXHF   =         0.00000000
  -V(xc)+E(xc)   XCENC  =        71.68367283
  PAW double counting   =       276.43211181     -281.64691920
  entropy T*S    EENTRO =        -0.00000000
  eigenvalues    EBANDS =      -253.56026294
  atomic energy  EATOM  =       663.51739852
  Solvation  Ediel_sol  =         0.00000000
  ---------------------------------------------------
  free energy    TOTEN  =       -56.21717232 eV

  energy without entropy =      -56.21717232  energy(sigma->0) =      -56.21717232


--------------------------------------------------------------------------------------------------------




--------------------------------------- Iteration      1(  23)  ---------------------------------------


    POTLOK:  cpu time      0.3119: real time      0.3136
    SETDIJ:  cpu time      0.1904: real time      0.1912
     EDDAV:  cpu time      0.4010: real time      0.4033
       DOS:  cpu time      0.0005: real time      0.0005
    CHARGE:  cpu time      0.2000: real time      0.2009
    MIXING:  cpu time      0.0110: real time      0.0111
    --------------------------------------------
      LOOP:  cpu time      1.1150: real time      1.1206

 eigenvalue-minimisations  :    64
 total energy-change (2. order) :-0.8451948E-05  (-0.1683802E-07)
 number of electron      22.0000000 magnetization 
 augmentation part        0.4675410 magnetization 

 Broyden mixing:
  rms(total) = 0.18842E-04    rms(broyden)= 0.18465E-04
  rms(prec ) = 0.27502E-04
  weight for this iteration     100.00

 eigenvalues of (default mixing * dielectric matrix)
  average eigenvalue GAMMA=   2.3694
  9.0608  6.5740  4.8520  3.3413  2.5860  2.3584  1.7488  1.4843  1.4843  1.2766
  1.2766  1.0705  1.0705  0.8532  0.8532  0.9685  0.9685  0.8217

 Free energy of the ion-electron system (eV)
  ---------------------------------------------------
  alpha Z        PSCENC =         0.62641250
  Ewald energy   TEWEN  =       839.74965906
  -Hartree energ DENC   =     -1373.02033216
  -exchange      EXHF   =         0.00000000
  -V(xc)+E(xc)   XCENC  =        71.68366810
  PAW double counting   =       276.43238169     -281.64717674
  entropy T*S    EENTRO =        -0.00000000
  eigenvalues    EBANDS =      -253.55919174
  atomic energy  EATOM  =       663.51739852
  Solvation  Ediel_sol  =         0.00000000
  ---------------------------------------------------
  free energy    TOTEN  =       -56.21718077 eV

  energy without entropy =      -56.21718077  energy(sigma->0) =      -56.21718077


--------------------------------------------------------------------------------------------------------




--------------------------------------- Iteration      1(  24)  ---------------------------------------


    POTLOK:  cpu time      0.3123: real time      0.3140
    SETDIJ:  cpu time      0.1902: real time      0.1910
     EDDAV:  cpu time      0.4433: real time      0.4459
       DOS:  cpu time      0.0001: real time      0.0001
    CHARGE:  cpu time      0.1993: real time      0.2002
    MIXING:  cpu time      0.0113: real time      0.0114
    --------------------------------------------
      LOOP:  cpu time      1.1566: real time      1.1626

 eigenvalue-minimisations  :    72
 total energy-change (2. order) :-0.1324976E-05  (-0.3721532E-08)
 number of electron      22.0000000 magnetization 
 augmentation part        0.4675398 magnetization 

 Broyden mixing:
  rms(total) = 0.14880E-04    rms(broyden)= 0.14403E-04
  rms(prec ) = 0.20181E-04
  weight for this iteration     100.00

 eigenvalues of (default mixing * dielectric matrix)
  average eigenvalue GAMMA=   2.3461
  9.0776  6.6863  4.9820  3.4705  2.5655  2.3693  1.7802  1.7802  1.2828  1.2828
  1.2721  1.2721  0.8530  0.8530  1.1104  1.1104  1.0584  0.9469  0.8226

 Free energy of the ion-electron system (eV)
  ---------------------------------------------------
  alpha Z        PSCENC =         0.62641250
  Ewald energy   TEWEN  =       839.74965906
  -Hartree energ DENC   =     -1373.02162762
  -exchange      EXHF   =         0.00000000
  -V(xc)+E(xc)   XCENC  =        71.68370131
  PAW double counting   =       276.43297492     -281.64778431
  entropy T*S    EENTRO =        -0.00000000
  eigenvalues    EBANDS =      -253.55791647
  atomic energy  EATOM  =       663.51739852
  Solvation  Ediel_sol  =         0.00000000
  ---------------------------------------------------
  free energy    TOTEN  =       -56.21718210 eV

  energy without entropy =      -56.21718210  energy(sigma->0) =      -56.21718210


--------------------------------------------------------------------------------------------------------




--------------------------------------- Iteration      1(  25)  ---------------------------------------


    POTLOK:  cpu time      0.3169: real time      0.3185
    SETDIJ:  cpu time      0.1905: real time      0.1913
     EDDAV:  cpu time      0.3668: real time      0.3689
       DOS:  cpu time      0.0001: real time      0.0001
    --------------------------------------------
      LOOP:  cpu time      0.8742: real time      0.8787

 eigenvalue-minimisations  :    56
 total energy-change (2. order) :-0.9527508E-06  (-0.1838286E-08)
 number of electron      22.0000000 magnetization 
 augmentation part        0.4675398 magnetization 

 Free energy of the ion-electron system (eV)
  ---------------------------------------------------
  alpha Z        PSCENC =         0.62641250
  Ewald energy   TEWEN  =       839.74965906
  -Hartree energ DENC   =     -1373.02131122
  -exchange      EXHF   =         0.00000000
  -V(xc)+E(xc)   XCENC  =        71.68369835
  PAW double counting   =       276.43243297     -281.64723530
  entropy T*S    EENTRO =        -0.00000000
  eigenvalues    EBANDS =      -253.55823793
  atomic energy  EATOM  =       663.51739852
  Solvation  Ediel_sol  =         0.00000000
  ---------------------------------------------------
  free energy    TOTEN  =       -56.21718305 eV

  energy without entropy =      -56.21718305  energy(sigma->0) =      -56.21718305


--------------------------------------------------------------------------------------------------------




 average (electrostatic) potential at core
  the test charge radii are     0.6991  0.5201
  (the norm of the test charge is              1.0000)
       1 -58.8132       2 -59.0585       3 -59.0981       4 -58.7420       5 -41.7033
       6 -41.8228       7 -41.7078       8 -41.9212       9 -42.2081      10 -41.9051
 
 
 
 E-fermi :  -5.0831     XC(G=0):  -0.4530     alpha+bet : -0.1681

 Fermi energy:        -5.0831249776

 k-point     1 :       0.0000    0.0000    0.0000
  band No.  band energies     occupation 
      1     -19.4406      2.00000
      2     -17.3306      2.00000
      3     -15.2553      2.00000
      4     -12.8344      2.00000
      5     -11.6261      2.00000
      6     -10.4452      2.00000
      7      -9.6984      2.00000
      8      -8.6594      2.00000
      9      -8.4792      2.00000
     10      -7.6375      2.00000
     11      -5.3725      2.00000
     12      -2.5805      0.00000
     13      -0.4431      0.00000
     14      -0.0144      0.00000
     15       0.2002      0.00000
     16       0.3009      0.00000
     17       0.3718      0.00000
     18       0.4864      0.00000
     19       0.5194      0.00000
     20       0.6450      0.00000
     21       0.8205      0.00000
     22       0.9180      0.00000
     23       1.0067      0.00000
     24       1.1221      0.00000


--------------------------------------------------------------------------------------------------------


 soft charge-density along one line, spin component           1
         0         1         2         3         4         5         6         7         8         9
 total charge-density along one line
 
 pseudopotential strength for first ion, spin component:           1
 10.257   0.020  -0.001  -0.000   0.000   0.000   0.000  -0.001
  0.020  -0.001   0.000   0.000  -0.000  -0.000   0.000  -0.000
 -0.001   0.000  -4.371   0.000   0.002  -0.008   0.000   0.001
 -0.000   0.000   0.000  -4.383   0.000   0.000  -0.012   0.000
  0.000  -0.000   0.002   0.000  -4.385   0.001   0.000  -0.013
  0.000  -0.000  -0.008   0.000   0.001  -0.773   0.000   0.000
  0.000   0.000   0.000  -0.012   0.000   0.000  -0.773   0.000
 -0.001  -0.000   0.001   0.000  -0.013   0.000   0.000  -0.773
 total augmentation occupancy for first ion, spin component:           1
  1.461  -0.930   0.004   0.002   0.006  -0.002   0.005  -0.005
 -0.930   0.660   0.015  -0.024   0.031   0.001  -0.011   0.021
  0.004   0.015   0.877  -0.002  -0.026   0.072  -0.002  -0.014
  0.002  -0.024  -0.002   1.120   0.000  -0.002   0.176  -0.007
  0.006   0.031  -0.026   0.000   1.139  -0.014  -0.007   0.189
 -0.002   0.001   0.072  -0.002  -0.014   0.006  -0.000  -0.003
  0.005  -0.011  -0.002   0.176  -0.007  -0.000   0.029  -0.003
 -0.005   0.021  -0.014  -0.007   0.189  -0.003  -0.003   0.034


------------------------ aborting loop because EDIFF is reached ----------------------------------------


    CHARGE:  cpu time      0.1923: real time      0.1931
    FORLOC:  cpu time      0.0354: real time      0.0355
    FORNL :  cpu time      1.0685: real time      1.0735
    STRESS:  cpu time      3.3796: real time      3.3957
    FORHAR:  cpu time      0.1103: real time      0.1108
    MIXING:  cpu time      0.0122: real time      0.0122
    OFIELD:  cpu time      0.0001: real time      0.0001

  FORCE on cell =-STRESS in cart. coord.  units (eV):
  Direction    XX          YY          ZZ          XY          YZ          ZX
  --------------------------------------------------------------------------------------
  Alpha Z     0.62641     0.62641     0.62641
  Ewald     370.51882  -184.36741   653.59791  -123.10586   -47.78633   -60.24456
  Hartree   476.23275   194.92551   701.86319   -57.14876   -29.85353   -48.71473
  E(xc)     -74.69930   -76.64093   -74.52643    -0.47966    -0.10227    -0.03057
  Local   -1037.05083  -230.45048 -1544.02472   172.33630    76.61753   109.19666
  n-local   -29.41801   -27.05803   -29.18112     0.62436     0.06202    -0.16345
  augment    -0.56076    -0.45063    -0.55840     0.03303     0.00210    -0.00356
  Kinetic   283.97792   322.75331   285.52494     9.67924     1.77560    -0.10699
  Fock        0.00000     0.00000     0.00000     0.00000     0.00000     0.00000
  -------------------------------------------------------------------------------------
  Total     -10.37299    -0.66224    -6.67821     1.93865     0.71512    -0.06719
  in kB      -4.92426    -0.31438    -3.17027     0.92031     0.33948    -0.03190
  external pressure =       -2.80 kB  Pullay stress =        0.00 kB


 VOLUME and BASIS-vectors are now :
 -----------------------------------------------------------------------------
  energy-cutoff  :      520.00
  volume of cell :     3375.00
      direct lattice vectors                 reciprocal lattice vectors
    15.000000000  0.000000000  0.000000000     0.066666667  0.000000000  0.000000000
     0.000000000 15.000000000  0.000000000     0.000000000  0.066666667  0.000000000
     0.000000000  0.000000000 15.000000000     0.000000000  0.000000000  0.066666667

  length of vectors
    15.000000000 15.000000000 15.000000000     0.066666667  0.066666667  0.066666667


 FORCES acting on ions
    electron-ion (+dipol)            ewald-force                    non-local-force                 convergence-correction
 -----------------------------------------------------------------------------------------------
   -.950E+02 0.416E+01 0.844E+02   0.936E+02 -.374E+01 -.839E+02   -.135E+01 -.382E+00 0.549E+00   -.271E-04 -.365E-05 0.500E-04
   0.664E+02 -.887E+01 0.710E+02   -.648E+02 0.841E+01 -.731E+02   0.158E+01 0.351E+00 -.951E+00   0.339E-04 -.108E-04 -.880E-05
   0.923E+02 -.306E+02 -.395E+02   -.918E+02 0.302E+02 0.416E+02   0.111E+01 -.495E+00 -.460E+00   0.375E-04 -.139E-04 -.305E-04
   -.590E+02 0.205E+02 -.114E+03   0.580E+02 -.201E+02 0.114E+03   -.178E+01 0.258E+00 -.839E+00   0.381E-04 -.121E-04 -.134E-04
   -.146E+02 0.676E+00 0.614E+02   0.148E+02 -.680E+00 -.650E+02   -.562E+00 0.134E-01 0.505E+01   -.286E-06 -.134E-05 0.162E-04
   -.595E+02 0.782E+01 -.132E+02   0.632E+02 -.829E+01 0.156E+02   -.451E+01 0.742E+00 -.270E+01   -.775E-05 -.219E-06 0.182E-05
   0.494E+02 -.704E+01 0.462E+02   -.524E+02 0.748E+01 -.487E+02   0.360E+01 -.512E+00 0.360E+01   0.590E-05 -.186E-05 0.898E-05
   0.640E+02 -.159E+02 -.189E+02   -.677E+02 0.170E+02 0.201E+02   0.494E+01 -.115E+01 -.128E+01   -.530E-05 0.205E-06 -.121E-05
   -.563E+02 0.277E+02 -.110E+02   0.615E+02 -.299E+02 0.992E+01   -.517E+01 0.249E+01 0.716E+00   -.184E-05 0.215E-05 -.250E-05
   0.127E+02 0.524E+00 -.647E+02   -.144E+02 -.294E+00 0.699E+02   0.186E+01 -.181E+00 -.531E+01   0.531E-05 -.239E-05 -.879E-05
 -----------------------------------------------------------------------------------------------
   0.284E+00 -.114E+01 0.162E+01   0.124E-13 0.844E-14 0.142E-13   -.285E+00 0.114E+01 -.162E+01   0.785E-04 -.439E-04 0.118E-04
 
 
 POSITION                                       TOTAL-FORCE (eV/Angst)
 -----------------------------------------------------------------------------------
      8.31100      7.52200      6.05900        -2.745965      0.034760      1.067523
      6.99700      7.64600      6.69100         3.181920     -0.105608     -3.023254
      6.69800      7.68600      8.11300         1.570429     -0.971512      1.684263
      7.62600      7.32300      9.12800        -2.810501      0.598814     -1.367958
      8.42700      7.51800      4.92700        -0.372671      0.009365      1.426215
      9.25900      7.36900      6.63600        -0.832998      0.272259     -0.320595
      6.17500      7.76500      5.91600         0.650146     -0.063947      1.144565
      5.63400      7.94400      8.38900         1.161656     -0.081557     -0.084205
      8.60300      6.86700      8.97700         0.040263      0.256883     -0.333677
      7.27000      7.35900     10.16600         0.157722      0.050543     -0.192877
 -----------------------------------------------------------------------------------
    total drift:                               -0.001058     -0.005874      0.004123


--------------------------------------------------------------------------------------------------------



  FREE ENERGIE OF THE ION-ELECTRON SYSTEM (eV)
  ---------------------------------------------------
  free  energy   TOTEN  =       -56.21718305 eV

  energy  without entropy=      -56.21718305  energy(sigma->0) =      -56.21718305
 


--------------------------------------------------------------------------------------------------------


    POTLOK:  cpu time      0.5089: real time      0.5114


--------------------------------------------------------------------------------------------------------


 stress matrix after NEB project (eV)
    -10.37299      1.93865     -0.06719
      1.93865     -0.66224      0.71512
     -0.06719      0.71512     -6.67821
  FORCES: max atom, RMS     4.390425    2.252111
  FORCE total and by dimension    7.121799    3.181920
  Stress total and by dimension   12.695848   10.372992
     LOOP+:  cpu time     30.5221: real time     30.6758
    4ORBIT:  cpu time      0.0000: real time      0.0000

 total amount of memory used by VASP MPI-rank0   224780. kBytes
=======================================================================

   base      :      30000. kBytes
   nonlr-proj:       1256. kBytes
   fftplans  :     123538. kBytes
   grid      :      67787. kBytes
   one-center:         15. kBytes
   wavefun   :       2184. kBytes
 
  
  
 General timing and accounting informations for this job:
 ========================================================
  
                  Total CPU time used (sec):       37.176
                            User time (sec):       33.926
                          System time (sec):        3.250
                         Elapsed time (sec):       38.514
  
                   Maximum memory used (kb):      560500.
                   Average memory used (kb):          N/A
  
                          Minor page faults:       163925
                          Major page faults:         5428
                 Voluntary context switches:         3116
