 vasp.6.4.2 20Jul23 (build Apr 10 2024 13:39:58) complex                        
  
 executed on             LinuxIFC date 2024.05.18  17:24:20
 running   16 mpi-ranks, on    1 nodes
 distrk:  each k-point on   16 cores,    1 groups
 distr:  one band on NCORE=   2 cores,    8 groups


--------------------------------------------------------------------------------------------------------


 INCAR:
   ISTART = 0
   ISPIN = 1
   LREAL = Auto
   ENCUT = 520
   NPAR = 8
   LPLANE = .TRUE.
   LSCALU = .FALSE.
   NSIM = 4
   LWAVE = .FALSE.
   LCHARG = .FALSE.
   ADDGRID = .TRUE.
   LASPH = .TRUE.
   PREC = Accurate
   ISMEAR = 0
   SIGMA = 0.05
   EDIFF = 1E-06
   NSW = 0
   TEBEG = 300
   TEEND = 700     	
   ISYM = 0
   NWRITE = 2

 POTCAR:   PAW_PBE C 08Apr2002                    
 POTCAR:   PAW_PBE H 15Jun2001                    
 POTCAR:   PAW_PBE C 08Apr2002                    
   VRHFIN =C: s2p2                                                                                  
   LEXCH  = PE                                                                                      
   EATOM  =   147.1560 eV,   10.8157 Ry                                                             
                                                                                                    
   TITEL  = PAW_PBE C 08Apr2002                                                                     
   LULTRA =        F    use ultrasoft PP ?                                                          
   IUNSCR =        0    unscreen: 0-lin 1-nonlin 2-no                                               
   RPACOR =     .000    partial core radius                                                         
   POMASS =   12.011; ZVAL   =    4.000    mass and valenz                                          
   RCORE  =    1.500    outmost cutoff radius                                                       
   RWIGS  =    1.630; RWIGS  =     .863    wigner-seitz radius (au A)                               
   ENMAX  =  400.000; ENMIN  =  300.000 eV                                                          
   ICORE  =        2    local potential                                                             
   LCOR   =        T    correct aug charges                                                         
   LPAW   =        T    paw PP                                                                      
   EAUG   =  644.873                                                                                
   DEXC   =     .000                                                                                
   RMAX   =    2.266    core radius for proj-oper                                                   
   RAUG   =    1.300    factor for augmentation sphere                                              
   RDEP   =    1.501    radius for radial grids                                                     
   RDEPT  =    1.300    core radius for aug-charge                                                  
   QCUT   =   -5.516; QGAM   =   11.032    optimization parameters                                  
                                                                                                    
   Description                                                                                      
     l     E      TYP  RCUT    TYP  RCUT                                                            
     0   .000     23  1.200                                                                         
     0   .000     23  1.200                                                                         
     1   .000     23  1.500                                                                         
     1  2.500     23  1.500                                                                         
     2   .000      7  1.500                                                                         
  local pseudopotential read in
  atomic valenz-charges read in
  non local Contribution for L=           0  read in
    real space projection operators read in
  non local Contribution for L=           0  read in
    real space projection operators read in
  non local Contribution for L=           1  read in
    real space projection operators read in
  non local Contribution for L=           1  read in
    real space projection operators read in
    PAW grid and wavefunctions read in
 
   number of l-projection  operators is LMAX  =           4
   number of lm-projection operators is LMMAX =           8
 
 POTCAR:   PAW_PBE H 15Jun2001                    
   VRHFIN =H: ultrasoft test                                                                        
   LEXCH  = PE                                                                                      
   EATOM  =    12.4884 eV,     .9179 Ry                                                             
                                                                                                    
   TITEL  = PAW_PBE H 15Jun2001                                                                     
   LULTRA =        F    use ultrasoft PP ?                                                          
   IUNSCR =        0    unscreen: 0-lin 1-nonlin 2-no                                               
   RPACOR =     .000    partial core radius                                                         
   POMASS =    1.000; ZVAL   =    1.000    mass and valenz                                          
   RCORE  =    1.100    outmost cutoff radius                                                       
   RWIGS  =     .700; RWIGS  =     .370    wigner-seitz radius (au A)                               
   ENMAX  =  250.000; ENMIN  =  200.000 eV                                                          
   RCLOC  =     .701    cutoff for local pot                                                        
   LCOR   =        T    correct aug charges                                                         
   LPAW   =        T    paw PP                                                                      
   EAUG   =  400.000                                                                                
   RMAX   =    2.174    core radius for proj-oper                                                   
   RAUG   =    1.200    factor for augmentation sphere                                              
   RDEP   =    1.112    radius for radial grids                                                     
   QCUT   =   -5.749; QGAM   =   11.498    optimization parameters                                  
                                                                                                    
   Description                                                                                      
     l     E      TYP  RCUT    TYP  RCUT                                                            
     0   .000     23  1.100                                                                         
     0   .500     23  1.100                                                                         
     1  -.300     23  1.100                                                                         
  local pseudopotential read in
  atomic valenz-charges read in
  non local Contribution for L=           0  read in
    real space projection operators read in
  non local Contribution for L=           0  read in
    real space projection operators read in
  non local Contribution for L=           1  read in
    real space projection operators read in
    PAW grid and wavefunctions read in
 
   number of l-projection  operators is LMAX  =           3
   number of lm-projection operators is LMMAX =           5
 
 Optimization of the real space projectors (new method)

 maximal supplied QI-value         = 25.13
 optimisation between [QCUT,QGAM] = [ 11.56, 23.12] = [ 37.43,149.72] Ry 
 Optimized for a Real-space Cutoff    1.04 Angstroem

   l    n(q)    QCUT    max X(q) W(low)/X(q) W(high)/X(q)  e(spline) 
   0      7    11.561     5.582    0.47E-04    0.94E-04    0.17E-07
   0      7    11.561    69.432    0.20E-03    0.59E-03    0.21E-06
   1      7    11.561     2.780    0.24E-04    0.70E-04    0.44E-07
   1      7    11.561     4.549    0.18E-03    0.25E-03    0.12E-06
 Optimization of the real space projectors (new method)

 maximal supplied QI-value         = 34.20
 optimisation between [QCUT,QGAM] = [ 11.63, 23.26] = [ 37.87,151.49] Ry 
 Optimized for a Real-space Cutoff    1.21 Angstroem

   l    n(q)    QCUT    max X(q) W(low)/X(q) W(high)/X(q)  e(spline) 
   0      8    11.629     4.436    0.19E-04    0.32E-04    0.47E-07
   0      8    11.629    16.131    0.16E-03    0.33E-03    0.21E-06
   1      8    11.629     4.654    0.18E-03    0.16E-03    0.26E-06
 PAW_PBE C 08Apr2002                    :
 energy of atom  1       EATOM= -147.1560
 kinetic energy error for atom=    0.0071 (will be added to EATOM!!)
 PAW_PBE H 15Jun2001                    :
 energy of atom  2       EATOM=  -12.4884
 kinetic energy error for atom=    0.0014 (will be added to EATOM!!)
 
 
 POSCAR:  C  H
  positions in cartesian coordinates
  No initial velocities read in
 exchange correlation table for  LEXCH =        8
   RHO(1)=    0.500       N(1)  =     2000
   RHO(2)=  100.500       N(2)  =     4000

 VTST: version 4.1, (05/19/21)

 CHAIN: initializing optimizer
 
 OPT: Using VASP Dynamics algorithm
 CHAIN: Read ICHAIN            0
 
 POSCAR:  C  H
  positions in cartesian coordinates
  No initial velocities read in
 


--------------------------------------------------------------------------------------------------------


 ion  position               nearest neighbor table
   1  0.538  0.525  0.451-   5 1.13   6 1.14   2 1.48   4 1.71
   2  0.462  0.464  0.446-   7 1.06   3 1.39   1 1.48
   3  0.445  0.462  0.538-   8 1.10   2 1.39   4 1.46
   4  0.520  0.519  0.563-   9 1.09  10 1.14   3 1.46   1 1.71
   5  0.607  0.501  0.431-   1 1.13
   6  0.525  0.596  0.425-   1 1.14
   7  0.432  0.434  0.390-   2 1.06
   8  0.390  0.428  0.571-   3 1.10
   9  0.577  0.484  0.592-   4 1.09
  10  0.503  0.587  0.592-   4 1.14
 

IMPORTANT INFORMATION: All symmetrisations will be switched off!
NOSYMM: (Re-)initialisation of all symmetry stuff for point group C_1.


----------------------------------------------------------------------------------------

                                     Primitive cell                                     

  volume of cell :    3375.0000

  direct lattice vectors                    reciprocal lattice vectors
    15.000000000  0.000000000  0.000000000     0.066666667  0.000000000  0.000000000
     0.000000000 15.000000000  0.000000000     0.000000000  0.066666667  0.000000000
     0.000000000  0.000000000 15.000000000     0.000000000  0.000000000  0.066666667

  length of vectors
    15.000000000 15.000000000 15.000000000     0.066666667  0.066666667  0.066666667

  position of ions in fractional coordinates (direct lattice)
     0.538266691  0.525333341  0.451333332
     0.461666679  0.463733323  0.446466668
     0.445333322  0.461933327  0.537733332
     0.520199998  0.518999990  0.563400014
     0.607066663  0.501466656  0.431000010
     0.525333341  0.595533307  0.424733321
     0.431933339  0.434399986  0.389866670
     0.390200011  0.427533340  0.571199989
     0.576800028  0.483933322  0.591799990
     0.503199991  0.587066650  0.592399979

  ion indices of the primitive-cell ions
   primitive index   ion index
                 1           1
                 2           2
                 3           3
                 4           4
                 5           5
                 6           6
                 7           7
                 8           8
                 9           9
                10          10

----------------------------------------------------------------------------------------

 
 
 KPOINTS: K-Spacing Value to Generate K-Mesh: 1.00

Automatic generation of k-mesh.
 Grid dimensions read from file:
 generate k-points for:    1    1    1

 Generating k-lattice:

  Cartesian coordinates                     Fractional coordinates (reciprocal lattice)
     0.066666667  0.000000000  0.000000000     1.000000000  0.000000000  0.000000000
     0.000000000  0.066666667  0.000000000     0.000000000  1.000000000  0.000000000
     0.000000000  0.000000000  0.066666667     0.000000000  0.000000000  1.000000000

  Length of vectors
     0.066666667  0.066666667  0.066666667

  Shift w.r.t. Gamma in fractional coordinates (k-lattice)
     0.000000000  0.000000000  0.000000000

 
 Subroutine IBZKPT returns following result:
 ===========================================
 
 Found      1 irreducible k-points:
 
 Following reciprocal coordinates:
            Coordinates               Weight
  0.000000  0.000000  0.000000      1.000000
 
 Following cartesian coordinates:
            Coordinates               Weight
  0.000000  0.000000  0.000000      1.000000
 


--------------------------------------------------------------------------------------------------------




 Dimension of arrays:
   k-points           NKPTS =      1   k-points in BZ     NKDIM =      1   number of bands    NBANDS=     24
   number of dos      NEDOS =    301   number of ions     NIONS =     10
   non local maximal  LDIM  =      4   non local SUM 2l+1 LMDIM =      8
   total plane-waves  NPLWV = ******
   max r-space proj   IRMAX =   3145   max aug-charges    IRDMAX=  39494
   dimension x,y,z NGX =   112 NGY =  112 NGZ =  112
   dimension x,y,z NGXF=   224 NGYF=  224 NGZF=  224
   support grid    NGXF=   448 NGYF=  448 NGZF=  448
   ions per type =               4   6
   NGX,Y,Z   is equivalent  to a cutoff of  12.41, 12.41, 12.41 a.u.
   NGXF,Y,Z  is equivalent  to a cutoff of  24.83, 24.83, 24.83 a.u.

 SYSTEM =  unknown system                          
 POSCAR =   C  H                                   

 Startparameter for this run:
   NWRITE =      2    write-flag & timer
   PREC   = accura    normal or accurate (medium, high low for compatibility)
   ISTART =      0    job   : 0-new  1-cont  2-samecut
   ICHARG =      2    charge: 1-file 2-atom 10-const
   ISPIN  =      1    spin polarized calculation?
   LNONCOLLINEAR =      F non collinear calculations
   LSORBIT =      F    spin-orbit coupling
   INIWAV =      1    electr: 0-lowe 1-rand  2-diag
   LASPH  =      T    aspherical Exc in radial PAW
 Electronic Relaxation 1
   ENCUT  =  520.0 eV  38.22 Ry    6.18 a.u.  27.89 27.89 27.89*2*pi/ulx,y,z
   ENINI  =  520.0     initial cutoff
   ENAUG  =  644.9 eV  augmentation charge cutoff
   NELM   =     60;   NELMIN=  2; NELMDL= -5     # of ELM steps 
   EDIFF  = 0.1E-05   stopping-criterion for ELM
   LREAL  =      T    real-space projection
   NLSPLINE    = F    spline interpolate recip. space projectors
   LCOMPAT=      F    compatible to vasp.4.4
   GGA_COMPAT  = T    GGA compatible to vasp.4.4-vasp.4.6
   LMAXPAW     = -100 max onsite density
   LMAXMIX     =    2 max onsite mixed and CHGCAR
   VOSKOWN=      0    Vosko Wilk Nusair interpolation
   ROPT   =   -0.00025  -0.00025
 Ionic relaxation
   EDIFFG = 0.1E-04   stopping-criterion for IOM
   NSW    =      0    number of steps for IOM
   NBLOCK =      1;   KBLOCK =      1    inner block; outer block 
   IBRION =     -1    ionic relax: 0-MD 1-quasi-New 2-CG
   NFREE  =      0    steps in history (QN), initial steepest desc. (CG)
   ISIF   =      2    stress and relaxation
   IWAVPR =     10    prediction:  0-non 1-charg 2-wave 3-comb
   ISYM   =      0    0-nonsym 1-usesym 2-fastsym
   LCORR  =      T    Harris-Foulkes like correction to forces

   POTIM  = 0.5000    time-step for ionic-motion
   TEIN   =    0.0    initial temperature
   TEBEG  =  300.0;   TEEND  = 700.0 temperature during run
   SMASS  =  -3.00    Nose mass-parameter (am)
   estimated Nose-frequenzy (Omega)   =  0.10E-29 period in steps = 0.13E+47 mass=  -0.514E-26a.u.
   SCALEE = 1.0000    scale energy and forces
   NPACO  =    256;   APACO  = 10.0  distance and # of slots for P.C.
   PSTRESS=    0.0 pullay stress

  Mass of Ions in am
   POMASS =  12.01  1.00
  Ionic Valenz
   ZVAL   =   4.00  1.00
  Atomic Wigner-Seitz radii
   RWIGS  =  -1.00 -1.00
  virtual crystal weights 
   VCA    =   1.00  1.00
   NELECT =      22.0000    total number of electrons
   NUPDOWN=      -1.0000    fix difference up-down

 DOS related values:
   EMIN   =  10.00;   EMAX   =-10.00  energy-range for DOS
   EFERMI =   0.00;   METHOD = LEGACY      
   ISMEAR =     0;   SIGMA  =   0.05  broadening in eV -4-tet -1-fermi 0-gaus

 Electronic relaxation 2 (details)
   IALGO  =     38    algorithm
   LDIAG  =      T    sub-space diagonalisation (order eigenvalues)
   LSUBROT=      F    optimize rotation matrix (better conditioning)
   TURBO    =      0    0=normal 1=particle mesh
   IRESTART =      0    0=no restart 2=restart with 2 vectors
   NREBOOT  =      0    no. of reboots
   NMIN     =      0    reboot dimension
   EREF     =   0.00    reference energy to select bands
   IMIX   =      4    mixing-type and parameters
     AMIX     =   0.40;   BMIX     =  1.00
     AMIX_MAG =   1.60;   BMIX_MAG =  1.00
     AMIN     =   0.10
     WC   =   100.;   INIMIX=   1;  MIXPRE=   1;  MAXMIX= -45

 Intra band minimization:
   WEIMIN = 0.0000     energy-eigenvalue tresh-hold
   EBREAK =  0.10E-07  absolut break condition
   DEPER  =   0.30     relativ break condition  

   TIME   =   0.40     timestep for ELM

  volume/ion in A,a.u.               =     337.50      2277.56
  Fermi-wavevector in a.u.,A,eV,Ry     =   0.305814  0.577905  1.272449  0.093522
  Thomas-Fermi vector in A             =   1.179187
 
 Write flags
   LWAVE        =      F    write WAVECAR
   LDOWNSAMPLE  =      F    k-point downsampling of WAVECAR
   LCHARG       =      F    write CHGCAR
   LVTOT        =      F    write LOCPOT, total local potential
   LVHAR        =      F    write LOCPOT, Hartree potential only
   LELF         =      F    write electronic localiz. function (ELF)
   LORBIT       =      0    0 simple, 1 ext, 2 COOP (PROOUT), +10 PAW based schemes


 Dipole corrections
   LMONO  =      F    monopole corrections only (constant potential shift)
   LDIPOL =      F    correct potential (dipole corrections)
   IDIPOL =      0    1-x, 2-y, 3-z, 4-all directions 
   EPSILON=  1.0000000 bulk dielectric constant

 Exchange correlation treatment:
   GGA     =    --    GGA type
   LEXCH   =     8    internal setting for exchange type
   LIBXC   =     F    Libxc                    
   VOSKOWN =     0    Vosko Wilk Nusair interpolation
   LHFCALC =     F    Hartree Fock is set to
   LHFONE  =     F    Hartree Fock one center treatment
   AEXX    =    0.0000 exact exchange contribution

 Linear response parameters
   LEPSILON=     F    determine dielectric tensor
   LRPA    =     F    only Hartree local field effects (RPA)
   LNABLA  =     F    use nabla operator in PAW spheres
   LVEL    =     F    velocity operator in full k-point grid
   CSHIFT  =0.1000    complex shift for real part using Kramers Kronig
   OMEGAMAX=  -1.0    maximum frequency
   DEG_THRESHOLD= 0.2000000E-02 threshold for treating states as degnerate
   RTIME   =   -0.100 relaxation time in fs
  (WPLASMAI=    0.000 imaginary part of plasma frequency in eV, 0.658/RTIME)
   DFIELD  = 0.0000000 0.0000000 0.0000000 field for delta impulse in time
 
  Optional k-point grid parameters
   LKPOINTS_OPT  =     F    use optional k-point grid
   KPOINTS_OPT_MODE=     1    mode for optional k-point grid
 
 Orbital magnetization related:
   ORBITALMAG=     F  switch on orbital magnetization
   LCHIMAG   =     F  perturbation theory with respect to B field
   DQ        =  0.001000  dq finite difference perturbation B field
   LLRAUG    =     F  two centre corrections for induced B field
   LBONE     =     F  B-component reconstruction in AE one-centre
   LVGVCALC  =     T  calculate vGv susceptibility
   LVGVAPPL  =     F  apply vGv susceptibility instead of pGv for G=0

 Random number generation:
   RANDOM_GENERATOR = DEFAULT
   PCG_SEED         = not used


--------------------------------------------------------------------------------------------------------


 Static calculation
 charge density and potential will be updated during run
 non-spin polarized calculation
 Variant of blocked Davidson
 Davidson routine will perform the subspace rotation
 perform sub-space diagonalisation
    after iterative eigenvector-optimisation
 modified Broyden-mixing scheme, WC =      100.0
 initial mixing is a Kerker type mixing with AMIX =  0.4000 and BMIX =      1.0000
 Hartree-type preconditioning will be used
 using additional bands           13
 real space projection scheme for non local part
 calculate Harris-corrections to forces 
   (improved forces if not selfconsistent)
 use gradient corrections 
 use of overlap-Matrix (Vanderbilt PP)
 Gauss-broadening in eV      SIGMA  =   0.05


--------------------------------------------------------------------------------------------------------


  energy-cutoff  :      520.00
  volume of cell :     3375.00
      direct lattice vectors                 reciprocal lattice vectors
    15.000000000  0.000000000  0.000000000     0.066666667  0.000000000  0.000000000
     0.000000000 15.000000000  0.000000000     0.000000000  0.066666667  0.000000000
     0.000000000  0.000000000 15.000000000     0.000000000  0.000000000  0.066666667

  length of vectors
    15.000000000 15.000000000 15.000000000     0.066666667  0.066666667  0.066666667


 
 k-points in units of 2pi/SCALE and weight: K-Spacing Value to Generate K-Mesh: 1.00
   0.00000000  0.00000000  0.00000000       1.000
 
 k-points in reciprocal lattice and weights: K-Spacing Value to Generate K-Mesh: 1.00
   0.00000000  0.00000000  0.00000000       1.000
 
 position of ions in fractional coordinates (direct lattice) 
   0.53826669  0.52533334  0.45133333
   0.46166668  0.46373332  0.44646667
   0.44533332  0.46193333  0.53773333
   0.52020000  0.51899999  0.56340001
   0.60706666  0.50146666  0.43100001
   0.52533334  0.59553331  0.42473332
   0.43193334  0.43439999  0.38986667
   0.39020001  0.42753334  0.57119999
   0.57680003  0.48393332  0.59179999
   0.50319999  0.58706665  0.59239998
 
 position of ions in cartesian coordinates  (Angst):
   8.07400036  7.88000011  6.76999998
   6.92500019  6.95599985  6.69700003
   6.67999983  6.92899990  8.06599998
   7.80299997  7.78499985  8.45100021
   9.10599995  7.52199984  6.46500015
   7.88000011  8.93299961  6.37099981
   6.47900009  6.51599979  5.84800005
   5.85300016  6.41300011  8.56799984
   8.65200043  7.25899982  8.87699986
   7.54799986  8.80599976  8.88599968
 


--------------------------------------------------------------------------------------------------------


 k-point   1 :   0.0000 0.0000 0.0000  plane waves:   90879

 maximum and minimum number of plane-waves per node :     45467    45412

 maximum number of plane-waves:     90879
 maximum index in each direction: 
   IXMAX=   27   IYMAX=   27   IZMAX=   27
   IXMIN=  -27   IYMIN=  -27   IZMIN=  -27


 real space projection operators:
  total allocation   :       1186.48 KBytes
  max/ min on nodes  :        593.54        592.95


 parallel 3D FFT for wavefunctions:
    minimum data exchange during FFTs selected (reduces bandwidth)
 parallel 3D FFT for charge:
    minimum data exchange during FFTs selected (reduces bandwidth)


 total amount of memory used by VASP MPI-rank0   224781. kBytes
=======================================================================

   base      :      30000. kBytes
   nonlr-proj:       1257. kBytes
   fftplans  :     123538. kBytes
   grid      :      67787. kBytes
   one-center:         15. kBytes
   wavefun   :       2184. kBytes
 
     INWAV:  cpu time      0.0000: real time      0.0000
 Broyden mixing: mesh for mixing (old mesh)
   NGX = 55   NGY = 55   NGZ = 55
  (NGX  =224   NGY  =224   NGZ  =224)
  gives a total of 166375 points

 initial charge density was supplied:
 charge density of overlapping atoms calculated
 number of electron      22.0000000 magnetization 
 keeping initial charge density in first step


--------------------------------------------------------------------------------------------------------


 Maximum index for non-local projection operator         1510
 Maximum index for augmentation-charges         2491 (set IRDMAX)


--------------------------------------------------------------------------------------------------------


 First call to EWALD:  gamma=   0.118
 Maximum number of real-space cells 3x 3x 3
 Maximum number of reciprocal cells 3x 3x 3

    FEWALD:  cpu time      0.0010: real time      0.0010


--------------------------------------- Ionic step        1  -------------------------------------------




--------------------------------------- Iteration      1(   1)  ---------------------------------------


    POTLOK:  cpu time      0.3364: real time      0.3383
    SETDIJ:  cpu time      0.1940: real time      0.1949
     EDDAV:  cpu time      0.4177: real time      0.4200
       DOS:  cpu time      0.0002: real time      0.0002
    --------------------------------------------
      LOOP:  cpu time      0.9484: real time      0.9535

 eigenvalue-minimisations  :    64
 total energy-change (2. order) : 0.9446431E+02  (-0.5388917E+03)
 number of electron      22.0000000 magnetization 
 augmentation part       22.0000000 magnetization 

 Free energy of the ion-electron system (eV)
  ---------------------------------------------------
  alpha Z        PSCENC =         0.62641250
  Ewald energy   TEWEN  =       985.60413100
  -Hartree energ DENC   =     -1411.03798449
  -exchange      EXHF   =         0.00000000
  -V(xc)+E(xc)   XCENC  =        67.71286719
  PAW double counting   =       156.01372664     -160.66969168
  entropy T*S    EENTRO =        -0.00031873
  eigenvalues    EBANDS =      -207.30223495
  atomic energy  EATOM  =       663.51739852
  Solvation  Ediel_sol  =         0.00000000
  ---------------------------------------------------
  free energy    TOTEN  =        94.46430601 eV

  energy without entropy =       94.46462474  energy(sigma->0) =       94.46446538


--------------------------------------------------------------------------------------------------------




--------------------------------------- Iteration      1(   2)  ---------------------------------------


     EDDAV:  cpu time      0.4875: real time      0.4903
       DOS:  cpu time      0.0001: real time      0.0001
    --------------------------------------------
      LOOP:  cpu time      0.4876: real time      0.4904

 eigenvalue-minimisations  :    80
 total energy-change (2. order) :-0.1141630E+03  (-0.1104426E+03)
 number of electron      22.0000000 magnetization 
 augmentation part       22.0000000 magnetization 

 Free energy of the ion-electron system (eV)
  ---------------------------------------------------
  alpha Z        PSCENC =         0.62641250
  Ewald energy   TEWEN  =       985.60413100
  -Hartree energ DENC   =     -1411.03798449
  -exchange      EXHF   =         0.00000000
  -V(xc)+E(xc)   XCENC  =        67.71286719
  PAW double counting   =       156.01372664     -160.66969168
  entropy T*S    EENTRO =        -0.00000000
  eigenvalues    EBANDS =      -321.46553825
  atomic energy  EATOM  =       663.51739852
  Solvation  Ediel_sol  =         0.00000000
  ---------------------------------------------------
  free energy    TOTEN  =       -19.69867856 eV

  energy without entropy =      -19.69867856  energy(sigma->0) =      -19.69867856


--------------------------------------------------------------------------------------------------------




--------------------------------------- Iteration      1(   3)  ---------------------------------------


     EDDAV:  cpu time      0.4053: real time      0.4077
       DOS:  cpu time      0.0001: real time      0.0001
    --------------------------------------------
      LOOP:  cpu time      0.4054: real time      0.4078

 eigenvalue-minimisations  :    64
 total energy-change (2. order) :-0.3888332E+02  (-0.3877424E+02)
 number of electron      22.0000000 magnetization 
 augmentation part       22.0000000 magnetization 

 Free energy of the ion-electron system (eV)
  ---------------------------------------------------
  alpha Z        PSCENC =         0.62641250
  Ewald energy   TEWEN  =       985.60413100
  -Hartree energ DENC   =     -1411.03798449
  -exchange      EXHF   =         0.00000000
  -V(xc)+E(xc)   XCENC  =        67.71286719
  PAW double counting   =       156.01372664     -160.66969168
  entropy T*S    EENTRO =        -0.00000000
  eigenvalues    EBANDS =      -360.34886243
  atomic energy  EATOM  =       663.51739852
  Solvation  Ediel_sol  =         0.00000000
  ---------------------------------------------------
  free energy    TOTEN  =       -58.58200273 eV

  energy without entropy =      -58.58200273  energy(sigma->0) =      -58.58200273


--------------------------------------------------------------------------------------------------------




--------------------------------------- Iteration      1(   4)  ---------------------------------------


     EDDAV:  cpu time      0.4445: real time      0.4470
       DOS:  cpu time      0.0001: real time      0.0001
    --------------------------------------------
      LOOP:  cpu time      0.4446: real time      0.4471

 eigenvalue-minimisations  :    72
 total energy-change (2. order) :-0.3728465E+01  (-0.3723695E+01)
 number of electron      22.0000000 magnetization 
 augmentation part       22.0000000 magnetization 

 Free energy of the ion-electron system (eV)
  ---------------------------------------------------
  alpha Z        PSCENC =         0.62641250
  Ewald energy   TEWEN  =       985.60413100
  -Hartree energ DENC   =     -1411.03798449
  -exchange      EXHF   =         0.00000000
  -V(xc)+E(xc)   XCENC  =        67.71286719
  PAW double counting   =       156.01372664     -160.66969168
  entropy T*S    EENTRO =        -0.00000000
  eigenvalues    EBANDS =      -364.07732773
  atomic energy  EATOM  =       663.51739852
  Solvation  Ediel_sol  =         0.00000000
  ---------------------------------------------------
  free energy    TOTEN  =       -62.31046804 eV

  energy without entropy =      -62.31046804  energy(sigma->0) =      -62.31046804


--------------------------------------------------------------------------------------------------------




--------------------------------------- Iteration      1(   5)  ---------------------------------------


     EDDAV:  cpu time      0.4463: real time      0.4488
       DOS:  cpu time      0.0001: real time      0.0001
    CHARGE:  cpu time      0.1980: real time      0.1988
    MIXING:  cpu time      0.0135: real time      0.0135
    --------------------------------------------
      LOOP:  cpu time      0.6579: real time      0.6613

 eigenvalue-minimisations  :    72
 total energy-change (2. order) :-0.2825286E-01  (-0.2824131E-01)
 number of electron      22.0000000 magnetization 
 augmentation part        0.5652485 magnetization 

 Broyden mixing:
  rms(total) = 0.11217E+01    rms(broyden)= 0.11216E+01
  rms(prec ) = 0.13607E+01
  weight for this iteration     100.00

 Free energy of the ion-electron system (eV)
  ---------------------------------------------------
  alpha Z        PSCENC =         0.62641250
  Ewald energy   TEWEN  =       985.60413100
  -Hartree energ DENC   =     -1411.03798449
  -exchange      EXHF   =         0.00000000
  -V(xc)+E(xc)   XCENC  =        67.71286719
  PAW double counting   =       156.01372664     -160.66969168
  entropy T*S    EENTRO =        -0.00000000
  eigenvalues    EBANDS =      -364.10558059
  atomic energy  EATOM  =       663.51739852
  Solvation  Ediel_sol  =         0.00000000
  ---------------------------------------------------
  free energy    TOTEN  =       -62.33872090 eV

  energy without entropy =      -62.33872090  energy(sigma->0) =      -62.33872090


--------------------------------------------------------------------------------------------------------




--------------------------------------- Iteration      1(   6)  ---------------------------------------


    POTLOK:  cpu time      0.3097: real time      0.3113
    SETDIJ:  cpu time      0.1918: real time      0.1926
     EDDAV:  cpu time      0.4494: real time      0.4520
       DOS:  cpu time      0.0001: real time      0.0001
    CHARGE:  cpu time      0.1920: real time      0.1928
    MIXING:  cpu time      0.0180: real time      0.0181
    --------------------------------------------
      LOOP:  cpu time      1.1610: real time      1.1669

 eigenvalue-minimisations  :    72
 total energy-change (2. order) : 0.4820379E+01  (-0.7024174E+00)
 number of electron      22.0000000 magnetization 
 augmentation part        0.5213181 magnetization 

 Broyden mixing:
  rms(total) = 0.55508E+00    rms(broyden)= 0.55506E+00
  rms(prec ) = 0.66357E+00
  weight for this iteration     100.00

 eigenvalues of (default mixing * dielectric matrix)
  average eigenvalue GAMMA=   1.6456
  1.6456

 Free energy of the ion-electron system (eV)
  ---------------------------------------------------
  alpha Z        PSCENC =         0.62641250
  Ewald energy   TEWEN  =       985.60413100
  -Hartree energ DENC   =     -1458.54803646
  -exchange      EXHF   =         0.00000000
  -V(xc)+E(xc)   XCENC  =        69.96354668
  PAW double counting   =       224.58141476     -229.75018387
  entropy T*S    EENTRO =        -0.00000000
  eigenvalues    EBANDS =      -313.51302534
  atomic energy  EATOM  =       663.51739852
  Solvation  Ediel_sol  =         0.00000000
  ---------------------------------------------------
  free energy    TOTEN  =       -57.51834221 eV

  energy without entropy =      -57.51834221  energy(sigma->0) =      -57.51834221


--------------------------------------------------------------------------------------------------------




--------------------------------------- Iteration      1(   7)  ---------------------------------------


    POTLOK:  cpu time      0.3108: real time      0.3125
    SETDIJ:  cpu time      0.1931: real time      0.1939
     EDDAV:  cpu time      0.4082: real time      0.4105
       DOS:  cpu time      0.0001: real time      0.0001
    CHARGE:  cpu time      0.1951: real time      0.1958
    MIXING:  cpu time      0.0152: real time      0.0152
    --------------------------------------------
      LOOP:  cpu time      1.1225: real time      1.1281

 eigenvalue-minimisations  :    64
 total energy-change (2. order) : 0.1197824E+01  (-0.4477500E+00)
 number of electron      22.0000000 magnetization 
 augmentation part        0.4908002 magnetization 

 Broyden mixing:
  rms(total) = 0.22408E+00    rms(broyden)= 0.22402E+00
  rms(prec ) = 0.25878E+00
  weight for this iteration     100.00

 eigenvalues of (default mixing * dielectric matrix)
  average eigenvalue GAMMA=   1.9727
  1.9727  1.9727

 Free energy of the ion-electron system (eV)
  ---------------------------------------------------
  alpha Z        PSCENC =         0.62641250
  Ewald energy   TEWEN  =       985.60413100
  -Hartree energ DENC   =     -1497.74053073
  -exchange      EXHF   =         0.00000000
  -V(xc)+E(xc)   XCENC  =        72.11367503
  PAW double counting   =       283.21893920     -288.63291066
  entropy T*S    EENTRO =        -0.00000000
  eigenvalues    EBANDS =      -275.02763265
  atomic energy  EATOM  =       663.51739852
  Solvation  Ediel_sol  =         0.00000000
  ---------------------------------------------------
  free energy    TOTEN  =       -56.32051779 eV

  energy without entropy =      -56.32051779  energy(sigma->0) =      -56.32051779


--------------------------------------------------------------------------------------------------------




--------------------------------------- Iteration      1(   8)  ---------------------------------------


    POTLOK:  cpu time      0.3211: real time      0.3228
    SETDIJ:  cpu time      0.1927: real time      0.1936
     EDDAV:  cpu time      0.4502: real time      0.4527
       DOS:  cpu time      0.0001: real time      0.0001
    CHARGE:  cpu time      0.1928: real time      0.1936
    MIXING:  cpu time      0.0146: real time      0.0147
    --------------------------------------------
      LOOP:  cpu time      1.1716: real time      1.1775

 eigenvalue-minimisations  :    72
 total energy-change (2. order) : 0.1663161E+00  (-0.5265681E-01)
 number of electron      22.0000000 magnetization 
 augmentation part        0.4964470 magnetization 

 Broyden mixing:
  rms(total) = 0.59112E-01    rms(broyden)= 0.59108E-01
  rms(prec ) = 0.94702E-01
  weight for this iteration     100.00

 eigenvalues of (default mixing * dielectric matrix)
  average eigenvalue GAMMA=   1.6108
  2.2969  1.0294  1.5061

 Free energy of the ion-electron system (eV)
  ---------------------------------------------------
  alpha Z        PSCENC =         0.62641250
  Ewald energy   TEWEN  =       985.60413100
  -Hartree energ DENC   =     -1503.65991555
  -exchange      EXHF   =         0.00000000
  -V(xc)+E(xc)   XCENC  =        72.66647309
  PAW double counting   =       285.41033126     -290.65540426
  entropy T*S    EENTRO =        -0.00000000
  eigenvalues    EBANDS =      -269.66362824
  atomic energy  EATOM  =       663.51739852
  Solvation  Ediel_sol  =         0.00000000
  ---------------------------------------------------
  free energy    TOTEN  =       -56.15420168 eV

  energy without entropy =      -56.15420168  energy(sigma->0) =      -56.15420168


--------------------------------------------------------------------------------------------------------




--------------------------------------- Iteration      1(   9)  ---------------------------------------


    POTLOK:  cpu time      0.3207: real time      0.3225
    SETDIJ:  cpu time      0.1954: real time      0.1962
     EDDAV:  cpu time      0.4874: real time      0.4902
       DOS:  cpu time      0.0001: real time      0.0001
    CHARGE:  cpu time      0.1930: real time      0.1938
    MIXING:  cpu time      0.0168: real time      0.0168
    --------------------------------------------
      LOOP:  cpu time      1.2134: real time      1.2195

 eigenvalue-minimisations  :    80
 total energy-change (2. order) : 0.3966445E-01  (-0.1175848E-01)
 number of electron      22.0000000 magnetization 
 augmentation part        0.4919787 magnetization 

 Broyden mixing:
  rms(total) = 0.24663E-01    rms(broyden)= 0.24659E-01
  rms(prec ) = 0.49430E-01
  weight for this iteration     100.00

 eigenvalues of (default mixing * dielectric matrix)
  average eigenvalue GAMMA=   1.5213
  1.9601  1.9179  1.1037  1.1037

 Free energy of the ion-electron system (eV)
  ---------------------------------------------------
  alpha Z        PSCENC =         0.62641250
  Ewald energy   TEWEN  =       985.60413100
  -Hartree energ DENC   =     -1509.69465607
  -exchange      EXHF   =         0.00000000
  -V(xc)+E(xc)   XCENC  =        72.91353895
  PAW double counting   =       291.43361641     -296.71798762
  entropy T*S    EENTRO =        -0.00000000
  eigenvalues    EBANDS =      -263.79699093
  atomic energy  EATOM  =       663.51739852
  Solvation  Ediel_sol  =         0.00000000
  ---------------------------------------------------
  free energy    TOTEN  =       -56.11453723 eV

  energy without entropy =      -56.11453723  energy(sigma->0) =      -56.11453723


--------------------------------------------------------------------------------------------------------




--------------------------------------- Iteration      1(  10)  ---------------------------------------


    POTLOK:  cpu time      0.3227: real time      0.3244
    SETDIJ:  cpu time      0.1925: real time      0.1933
     EDDAV:  cpu time      0.3680: real time      0.3700
       DOS:  cpu time      0.0001: real time      0.0001
    CHARGE:  cpu time      0.1925: real time      0.1933
    MIXING:  cpu time      0.0159: real time      0.0160
    --------------------------------------------
      LOOP:  cpu time      1.0917: real time      1.0971

 eigenvalue-minimisations  :    56
 total energy-change (2. order) : 0.7495331E-02  (-0.2734649E-02)
 number of electron      22.0000000 magnetization 
 augmentation part        0.4901904 magnetization 

 Broyden mixing:
  rms(total) = 0.17497E-01    rms(broyden)= 0.17492E-01
  rms(prec ) = 0.33108E-01
  weight for this iteration     100.00

 eigenvalues of (default mixing * dielectric matrix)
  average eigenvalue GAMMA=   1.6645
  2.4775  2.4775  1.2046  1.2046  0.9582

 Free energy of the ion-electron system (eV)
  ---------------------------------------------------
  alpha Z        PSCENC =         0.62641250
  Ewald energy   TEWEN  =       985.60413100
  -Hartree energ DENC   =     -1513.71088194
  -exchange      EXHF   =         0.00000000
  -V(xc)+E(xc)   XCENC  =        72.99631690
  PAW double counting   =       290.59566566     -295.88300846
  entropy T*S    EENTRO =        -0.00000000
  eigenvalues    EBANDS =      -259.85307608
  atomic energy  EATOM  =       663.51739852
  Solvation  Ediel_sol  =         0.00000000
  ---------------------------------------------------
  free energy    TOTEN  =       -56.10704190 eV

  energy without entropy =      -56.10704190  energy(sigma->0) =      -56.10704190


--------------------------------------------------------------------------------------------------------




--------------------------------------- Iteration      1(  11)  ---------------------------------------


    POTLOK:  cpu time      0.3223: real time      0.3241
    SETDIJ:  cpu time      0.1928: real time      0.1936
     EDDAV:  cpu time      0.4069: real time      0.4091
       DOS:  cpu time      0.0002: real time      0.0002
    CHARGE:  cpu time      0.1928: real time      0.1936
    MIXING:  cpu time      0.0161: real time      0.0162
    --------------------------------------------
      LOOP:  cpu time      1.1312: real time      1.1368

 eigenvalue-minimisations  :    64
 total energy-change (2. order) : 0.1043718E-01  (-0.6435074E-03)
 number of electron      22.0000000 magnetization 
 augmentation part        0.4902977 magnetization 

 Broyden mixing:
  rms(total) = 0.92576E-02    rms(broyden)= 0.92574E-02
  rms(prec ) = 0.19644E-01
  weight for this iteration     100.00

 eigenvalues of (default mixing * dielectric matrix)
  average eigenvalue GAMMA=   1.8010
  3.3947  2.3903  1.7689  0.9465  1.1530  1.1530

 Free energy of the ion-electron system (eV)
  ---------------------------------------------------
  alpha Z        PSCENC =         0.62641250
  Ewald energy   TEWEN  =       985.60413100
  -Hartree energ DENC   =     -1516.73496502
  -exchange      EXHF   =         0.00000000
  -V(xc)+E(xc)   XCENC  =        73.08225078
  PAW double counting   =       289.39176260     -294.66177340
  entropy T*S    EENTRO =        -0.00000000
  eigenvalues    EBANDS =      -256.92182171
  atomic energy  EATOM  =       663.51739852
  Solvation  Ediel_sol  =         0.00000000
  ---------------------------------------------------
  free energy    TOTEN  =       -56.09660472 eV

  energy without entropy =      -56.09660472  energy(sigma->0) =      -56.09660472


--------------------------------------------------------------------------------------------------------




--------------------------------------- Iteration      1(  12)  ---------------------------------------


    POTLOK:  cpu time      0.3182: real time      0.3198
    SETDIJ:  cpu time      0.1929: real time      0.1938
     EDDAV:  cpu time      0.4066: real time      0.4089
       DOS:  cpu time      0.0001: real time      0.0001
    CHARGE:  cpu time      0.1941: real time      0.1949
    MIXING:  cpu time      0.0151: real time      0.0151
    --------------------------------------------
      LOOP:  cpu time      1.1270: real time      1.1327

 eigenvalue-minimisations  :    64
 total energy-change (2. order) :-0.1894125E-02  (-0.7782934E-03)
 number of electron      22.0000000 magnetization 
 augmentation part        0.4892072 magnetization 

 Broyden mixing:
  rms(total) = 0.76018E-02    rms(broyden)= 0.76010E-02
  rms(prec ) = 0.12947E-01
  weight for this iteration     100.00

 eigenvalues of (default mixing * dielectric matrix)
  average eigenvalue GAMMA=   1.9084
  4.3474  2.4592  2.0606  1.3487  1.0312  1.0557  1.0557

 Free energy of the ion-electron system (eV)
  ---------------------------------------------------
  alpha Z        PSCENC =         0.62641250
  Ewald energy   TEWEN  =       985.60413100
  -Hartree energ DENC   =     -1520.14256931
  -exchange      EXHF   =         0.00000000
  -V(xc)+E(xc)   XCENC  =        73.15581225
  PAW double counting   =       289.74098905     -295.02026763
  entropy T*S    EENTRO =        -0.00000000
  eigenvalues    EBANDS =      -253.58040523
  atomic energy  EATOM  =       663.51739852
  Solvation  Ediel_sol  =         0.00000000
  ---------------------------------------------------
  free energy    TOTEN  =       -56.09849884 eV

  energy without entropy =      -56.09849884  energy(sigma->0) =      -56.09849884


--------------------------------------------------------------------------------------------------------




--------------------------------------- Iteration      1(  13)  ---------------------------------------


    POTLOK:  cpu time      0.3175: real time      0.3192
    SETDIJ:  cpu time      0.1918: real time      0.1926
     EDDAV:  cpu time      0.4109: real time      0.4132
       DOS:  cpu time      0.0001: real time      0.0001
    CHARGE:  cpu time      0.1932: real time      0.1940
    MIXING:  cpu time      0.0169: real time      0.0170
    --------------------------------------------
      LOOP:  cpu time      1.1305: real time      1.1361

 eigenvalue-minimisations  :    64
 total energy-change (2. order) :-0.8181468E-02  (-0.2737658E-03)
 number of electron      22.0000000 magnetization 
 augmentation part        0.4896102 magnetization 

 Broyden mixing:
  rms(total) = 0.28341E-02    rms(broyden)= 0.28340E-02
  rms(prec ) = 0.64101E-02
  weight for this iteration     100.00

 eigenvalues of (default mixing * dielectric matrix)
  average eigenvalue GAMMA=   2.0288
  5.0222  2.8132  2.2831  1.7302  1.2741  0.9804  1.0637  1.0637

 Free energy of the ion-electron system (eV)
  ---------------------------------------------------
  alpha Z        PSCENC =         0.62641250
  Ewald energy   TEWEN  =       985.60413100
  -Hartree energ DENC   =     -1520.06283395
  -exchange      EXHF   =         0.00000000
  -V(xc)+E(xc)   XCENC  =        73.12893732
  PAW double counting   =       289.15320508     -294.42747670
  entropy T*S    EENTRO =        -0.00000000
  eigenvalues    EBANDS =      -253.64645409
  atomic energy  EATOM  =       663.51739852
  Solvation  Ediel_sol  =         0.00000000
  ---------------------------------------------------
  free energy    TOTEN  =       -56.10668031 eV

  energy without entropy =      -56.10668031  energy(sigma->0) =      -56.10668031


--------------------------------------------------------------------------------------------------------




--------------------------------------- Iteration      1(  14)  ---------------------------------------


    POTLOK:  cpu time      0.3155: real time      0.3172
    SETDIJ:  cpu time      0.1933: real time      0.1941
     EDDAV:  cpu time      0.4066: real time      0.4087
       DOS:  cpu time      0.0001: real time      0.0001
    CHARGE:  cpu time      0.1923: real time      0.1930
    MIXING:  cpu time      0.0163: real time      0.0163
    --------------------------------------------
      LOOP:  cpu time      1.1240: real time      1.1295

 eigenvalue-minimisations  :    64
 total energy-change (2. order) :-0.6966543E-02  (-0.1151096E-03)
 number of electron      22.0000000 magnetization 
 augmentation part        0.4896490 magnetization 

 Broyden mixing:
  rms(total) = 0.23623E-02    rms(broyden)= 0.23620E-02
  rms(prec ) = 0.39625E-02
  weight for this iteration     100.00

 eigenvalues of (default mixing * dielectric matrix)
  average eigenvalue GAMMA=   2.1970
  6.2082  3.5426  2.1973  1.9894  1.6110  1.0410  1.0410  0.9632  1.1793

 Free energy of the ion-electron system (eV)
  ---------------------------------------------------
  alpha Z        PSCENC =         0.62641250
  Ewald energy   TEWEN  =       985.60413100
  -Hartree energ DENC   =     -1520.40909744
  -exchange      EXHF   =         0.00000000
  -V(xc)+E(xc)   XCENC  =        73.12015289
  PAW double counting   =       289.16427532     -294.43713025
  entropy T*S    EENTRO =        -0.00000000
  eigenvalues    EBANDS =      -253.29978939
  atomic energy  EATOM  =       663.51739852
  Solvation  Ediel_sol  =         0.00000000
  ---------------------------------------------------
  free energy    TOTEN  =       -56.11364685 eV

  energy without entropy =      -56.11364685  energy(sigma->0) =      -56.11364685


--------------------------------------------------------------------------------------------------------




--------------------------------------- Iteration      1(  15)  ---------------------------------------


    POTLOK:  cpu time      0.3117: real time      0.3134
    SETDIJ:  cpu time      0.1925: real time      0.1933
     EDDAV:  cpu time      0.4075: real time      0.4097
       DOS:  cpu time      0.0001: real time      0.0001
    CHARGE:  cpu time      0.1925: real time      0.1933
    MIXING:  cpu time      0.0155: real time      0.0155
    --------------------------------------------
      LOOP:  cpu time      1.1197: real time      1.1254

 eigenvalue-minimisations  :    64
 total energy-change (2. order) :-0.3544290E-02  (-0.5816781E-04)
 number of electron      22.0000000 magnetization 
 augmentation part        0.4894981 magnetization 

 Broyden mixing:
  rms(total) = 0.97438E-03    rms(broyden)= 0.97432E-03
  rms(prec ) = 0.17867E-02
  weight for this iteration     100.00

 eigenvalues of (default mixing * dielectric matrix)
  average eigenvalue GAMMA=   2.3030
  7.0532  4.1661  2.3428  2.3428  1.4973  1.4973  1.0489  1.0489  0.9712  1.0615

 Free energy of the ion-electron system (eV)
  ---------------------------------------------------
  alpha Z        PSCENC =         0.62641250
  Ewald energy   TEWEN  =       985.60413100
  -Hartree energ DENC   =     -1520.60834934
  -exchange      EXHF   =         0.00000000
  -V(xc)+E(xc)   XCENC  =        73.11613686
  PAW double counting   =       289.30008004     -294.57454520
  entropy T*S    EENTRO =        -0.00000000
  eigenvalues    EBANDS =      -253.09845552
  atomic energy  EATOM  =       663.51739852
  Solvation  Ediel_sol  =         0.00000000
  ---------------------------------------------------
  free energy    TOTEN  =       -56.11719114 eV

  energy without entropy =      -56.11719114  energy(sigma->0) =      -56.11719114


--------------------------------------------------------------------------------------------------------




--------------------------------------- Iteration      1(  16)  ---------------------------------------


    POTLOK:  cpu time      0.3094: real time      0.3110
    SETDIJ:  cpu time      0.1930: real time      0.1938
     EDDAV:  cpu time      0.4040: real time      0.4062
       DOS:  cpu time      0.0001: real time      0.0001
    CHARGE:  cpu time      0.1922: real time      0.1930
    MIXING:  cpu time      0.0175: real time      0.0175
    --------------------------------------------
      LOOP:  cpu time      1.1162: real time      1.1216

 eigenvalue-minimisations  :    64
 total energy-change (2. order) :-0.1526677E-02  (-0.2015610E-04)
 number of electron      22.0000000 magnetization 
 augmentation part        0.4895308 magnetization 

 Broyden mixing:
  rms(total) = 0.67931E-03    rms(broyden)= 0.67927E-03
  rms(prec ) = 0.10616E-02
  weight for this iteration     100.00

 eigenvalues of (default mixing * dielectric matrix)
  average eigenvalue GAMMA=   2.4116
  8.0186  4.6756  2.7996  2.3515  1.7681  1.4558  1.4558  1.0291  1.0291  0.9725
  0.9725

 Free energy of the ion-electron system (eV)
  ---------------------------------------------------
  alpha Z        PSCENC =         0.62641250
  Ewald energy   TEWEN  =       985.60413100
  -Hartree energ DENC   =     -1520.52873461
  -exchange      EXHF   =         0.00000000
  -V(xc)+E(xc)   XCENC  =        73.11165342
  PAW double counting   =       289.25145230     -294.52505078
  entropy T*S    EENTRO =        -0.00000000
  eigenvalues    EBANDS =      -253.17598017
  atomic energy  EATOM  =       663.51739852
  Solvation  Ediel_sol  =         0.00000000
  ---------------------------------------------------
  free energy    TOTEN  =       -56.11871782 eV

  energy without entropy =      -56.11871782  energy(sigma->0) =      -56.11871782


--------------------------------------------------------------------------------------------------------




--------------------------------------- Iteration      1(  17)  ---------------------------------------


    POTLOK:  cpu time      0.3058: real time      0.3074
    SETDIJ:  cpu time      0.1919: real time      0.1927
     EDDAV:  cpu time      0.4067: real time      0.4090
       DOS:  cpu time      0.0001: real time      0.0001
    CHARGE:  cpu time      0.1914: real time      0.1922
    MIXING:  cpu time      0.0170: real time      0.0170
    --------------------------------------------
      LOOP:  cpu time      1.1128: real time      1.1184

 eigenvalue-minimisations  :    64
 total energy-change (2. order) :-0.4380211E-03  (-0.4642973E-05)
 number of electron      22.0000000 magnetization 
 augmentation part        0.4894691 magnetization 

 Broyden mixing:
  rms(total) = 0.31851E-03    rms(broyden)= 0.31845E-03
  rms(prec ) = 0.52571E-03
  weight for this iteration     100.00

 eigenvalues of (default mixing * dielectric matrix)
  average eigenvalue GAMMA=   2.4050
  8.3625  4.9223  2.6962  2.6962  2.0571  1.4197  1.3567  1.3567  1.0310  1.0310
  0.9651  0.9651

 Free energy of the ion-electron system (eV)
  ---------------------------------------------------
  alpha Z        PSCENC =         0.62641250
  Ewald energy   TEWEN  =       985.60413100
  -Hartree energ DENC   =     -1520.62305324
  -exchange      EXHF   =         0.00000000
  -V(xc)+E(xc)   XCENC  =        73.11394425
  PAW double counting   =       289.27757582     -294.55174705
  entropy T*S    EENTRO =        -0.00000000
  eigenvalues    EBANDS =      -253.08381765
  atomic energy  EATOM  =       663.51739852
  Solvation  Ediel_sol  =         0.00000000
  ---------------------------------------------------
  free energy    TOTEN  =       -56.11915584 eV

  energy without entropy =      -56.11915584  energy(sigma->0) =      -56.11915584


--------------------------------------------------------------------------------------------------------




--------------------------------------- Iteration      1(  18)  ---------------------------------------


    POTLOK:  cpu time      0.3049: real time      0.3065
    SETDIJ:  cpu time      0.1915: real time      0.1923
     EDDAV:  cpu time      0.3653: real time      0.3673
       DOS:  cpu time      0.0001: real time      0.0001
    CHARGE:  cpu time      0.1925: real time      0.1933
    MIXING:  cpu time      0.0179: real time      0.0179
    --------------------------------------------
      LOOP:  cpu time      1.0722: real time      1.0774

 eigenvalue-minimisations  :    56
 total energy-change (2. order) :-0.1926708E-03  (-0.8682859E-06)
 number of electron      22.0000000 magnetization 
 augmentation part        0.4894829 magnetization 

 Broyden mixing:
  rms(total) = 0.16651E-03    rms(broyden)= 0.16646E-03
  rms(prec ) = 0.26938E-03
  weight for this iteration     100.00

 eigenvalues of (default mixing * dielectric matrix)
  average eigenvalue GAMMA=   2.4554
  8.6899  5.3893  3.4289  2.5831  2.3473  1.6378  1.6378  1.3005  1.0286  1.0286
  0.9805  0.9338  0.9338

 Free energy of the ion-electron system (eV)
  ---------------------------------------------------
  alpha Z        PSCENC =         0.62641250
  Ewald energy   TEWEN  =       985.60413100
  -Hartree energ DENC   =     -1520.59821895
  -exchange      EXHF   =         0.00000000
  -V(xc)+E(xc)   XCENC  =        73.11255790
  PAW double counting   =       289.25143519     -294.52554581
  entropy T*S    EENTRO =        -0.00000000
  eigenvalues    EBANDS =      -253.10751886
  atomic energy  EATOM  =       663.51739852
  Solvation  Ediel_sol  =         0.00000000
  ---------------------------------------------------
  free energy    TOTEN  =       -56.11934851 eV

  energy without entropy =      -56.11934851  energy(sigma->0) =      -56.11934851


--------------------------------------------------------------------------------------------------------




--------------------------------------- Iteration      1(  19)  ---------------------------------------


    POTLOK:  cpu time      0.3074: real time      0.3091
    SETDIJ:  cpu time      0.1914: real time      0.1922
     EDDAV:  cpu time      0.3259: real time      0.3277
       DOS:  cpu time      0.0001: real time      0.0001
    CHARGE:  cpu time      0.1925: real time      0.1933
    MIXING:  cpu time      0.0169: real time      0.0170
    --------------------------------------------
      LOOP:  cpu time      1.0343: real time      1.0395

 eigenvalue-minimisations  :    48
 total energy-change (2. order) :-0.6684564E-04  (-0.2157181E-06)
 number of electron      22.0000000 magnetization 
 augmentation part        0.4894843 magnetization 

 Broyden mixing:
  rms(total) = 0.91707E-04    rms(broyden)= 0.91627E-04
  rms(prec ) = 0.15343E-03
  weight for this iteration     100.00

 eigenvalues of (default mixing * dielectric matrix)
  average eigenvalue GAMMA=   2.4391
  8.7990  5.5999  3.6666  2.6901  2.3018  1.9021  1.4528  1.4528  1.0298  1.0298
  1.2042  0.9891  0.9891  1.0403

 Free energy of the ion-electron system (eV)
  ---------------------------------------------------
  alpha Z        PSCENC =         0.62641250
  Ewald energy   TEWEN  =       985.60413100
  -Hartree energ DENC   =     -1520.60904754
  -exchange      EXHF   =         0.00000000
  -V(xc)+E(xc)   XCENC  =        73.11285330
  PAW double counting   =       289.25737202     -294.53140791
  entropy T*S    EENTRO =        -0.00000000
  eigenvalues    EBANDS =      -253.09712726
  atomic energy  EATOM  =       663.51739852
  Solvation  Ediel_sol  =         0.00000000
  ---------------------------------------------------
  free energy    TOTEN  =       -56.11941536 eV

  energy without entropy =      -56.11941536  energy(sigma->0) =      -56.11941536


--------------------------------------------------------------------------------------------------------




--------------------------------------- Iteration      1(  20)  ---------------------------------------


    POTLOK:  cpu time      0.3120: real time      0.3137
    SETDIJ:  cpu time      0.1915: real time      0.1923
     EDDAV:  cpu time      0.3243: real time      0.3261
       DOS:  cpu time      0.0001: real time      0.0001
    CHARGE:  cpu time      0.1929: real time      0.1937
    MIXING:  cpu time      0.0176: real time      0.0176
    --------------------------------------------
      LOOP:  cpu time      1.0384: real time      1.0435

 eigenvalue-minimisations  :    48
 total energy-change (2. order) :-0.3187851E-04  (-0.3914680E-07)
 number of electron      22.0000000 magnetization 
 augmentation part        0.4894868 magnetization 

 Broyden mixing:
  rms(total) = 0.60352E-04    rms(broyden)= 0.60236E-04
  rms(prec ) = 0.92832E-04
  weight for this iteration     100.00

 eigenvalues of (default mixing * dielectric matrix)
  average eigenvalue GAMMA=   2.4691
  8.8809  5.9042  4.1379  2.6625  2.6625  2.2728  1.7617  1.4171  1.4171  1.0333
  1.0333  0.9561  0.9561  0.9708  0.9708

 Free energy of the ion-electron system (eV)
  ---------------------------------------------------
  alpha Z        PSCENC =         0.62641250
  Ewald energy   TEWEN  =       985.60413100
  -Hartree energ DENC   =     -1520.61096657
  -exchange      EXHF   =         0.00000000
  -V(xc)+E(xc)   XCENC  =        73.11272302
  PAW double counting   =       289.25599621     -294.52999416
  entropy T*S    EENTRO =        -0.00000000
  eigenvalues    EBANDS =      -253.09514777
  atomic energy  EATOM  =       663.51739852
  Solvation  Ediel_sol  =         0.00000000
  ---------------------------------------------------
  free energy    TOTEN  =       -56.11944724 eV

  energy without entropy =      -56.11944724  energy(sigma->0) =      -56.11944724


--------------------------------------------------------------------------------------------------------




--------------------------------------- Iteration      1(  21)  ---------------------------------------


    POTLOK:  cpu time      0.3173: real time      0.3190
    SETDIJ:  cpu time      0.1912: real time      0.1920
     EDDAV:  cpu time      0.2867: real time      0.2883
       DOS:  cpu time      0.0001: real time      0.0001
    CHARGE:  cpu time      0.1929: real time      0.1937
    MIXING:  cpu time      0.0174: real time      0.0175
    --------------------------------------------
      LOOP:  cpu time      1.0057: real time      1.0106

 eigenvalue-minimisations  :    40
 total energy-change (2. order) :-0.1268296E-04  (-0.2757454E-07)
 number of electron      22.0000000 magnetization 
 augmentation part        0.4894828 magnetization 

 Broyden mixing:
  rms(total) = 0.41416E-04    rms(broyden)= 0.41248E-04
  rms(prec ) = 0.57644E-04
  weight for this iteration     100.00

 eigenvalues of (default mixing * dielectric matrix)
  average eigenvalue GAMMA=   2.4727
  8.9748  6.1093  4.4980  2.9884  2.5561  2.2678  1.7334  1.4701  1.4701  1.2846
  1.2846  1.0292  1.0292  0.9842  0.9418  0.9418

 Free energy of the ion-electron system (eV)
  ---------------------------------------------------
  alpha Z        PSCENC =         0.62641250
  Ewald energy   TEWEN  =       985.60413100
  -Hartree energ DENC   =     -1520.61832314
  -exchange      EXHF   =         0.00000000
  -V(xc)+E(xc)   XCENC  =        73.11292232
  PAW double counting   =       289.26269670     -294.53674488
  entropy T*S    EENTRO =        -0.00000000
  eigenvalues    EBANDS =      -253.08795294
  atomic energy  EATOM  =       663.51739852
  Solvation  Ediel_sol  =         0.00000000
  ---------------------------------------------------
  free energy    TOTEN  =       -56.11945992 eV

  energy without entropy =      -56.11945992  energy(sigma->0) =      -56.11945992


--------------------------------------------------------------------------------------------------------




--------------------------------------- Iteration      1(  22)  ---------------------------------------


    POTLOK:  cpu time      0.3241: real time      0.3258
    SETDIJ:  cpu time      0.1922: real time      0.1930
     EDDAV:  cpu time      0.3287: real time      0.3305
       DOS:  cpu time      0.0001: real time      0.0001
    CHARGE:  cpu time      0.1928: real time      0.1936
    MIXING:  cpu time      0.0206: real time      0.0206
    --------------------------------------------
      LOOP:  cpu time      1.0586: real time      1.0637

 eigenvalue-minimisations  :    48
 total energy-change (2. order) :-0.4791691E-05  (-0.9244250E-08)
 number of electron      22.0000000 magnetization 
 augmentation part        0.4894834 magnetization 

 Broyden mixing:
  rms(total) = 0.18217E-04    rms(broyden)= 0.17835E-04
  rms(prec ) = 0.26767E-04
  weight for this iteration     100.00

 eigenvalues of (default mixing * dielectric matrix)
  average eigenvalue GAMMA=   2.4543
  9.0887  6.4177  4.7808  3.2309  2.5152  2.4135  1.8327  1.5843  1.2891  1.2891
  1.2747  1.0293  1.0293  1.0711  0.9799  0.9488  0.9488

 Free energy of the ion-electron system (eV)
  ---------------------------------------------------
  alpha Z        PSCENC =         0.62641250
  Ewald energy   TEWEN  =       985.60413100
  -Hartree energ DENC   =     -1520.61749839
  -exchange      EXHF   =         0.00000000
  -V(xc)+E(xc)   XCENC  =        73.11287212
  PAW double counting   =       289.26106763     -294.53510729
  entropy T*S    EENTRO =        -0.00000000
  eigenvalues    EBANDS =      -253.08874081
  atomic energy  EATOM  =       663.51739852
  Solvation  Ediel_sol  =         0.00000000
  ---------------------------------------------------
  free energy    TOTEN  =       -56.11946471 eV

  energy without entropy =      -56.11946471  energy(sigma->0) =      -56.11946471


--------------------------------------------------------------------------------------------------------




--------------------------------------- Iteration      1(  23)  ---------------------------------------


    POTLOK:  cpu time      0.3109: real time      0.3125
    SETDIJ:  cpu time      0.1910: real time      0.1918
     EDDAV:  cpu time      0.3259: real time      0.3277
       DOS:  cpu time      0.0001: real time      0.0001
    CHARGE:  cpu time      0.1930: real time      0.1937
    MIXING:  cpu time      0.0177: real time      0.0177
    --------------------------------------------
      LOOP:  cpu time      1.0385: real time      1.0436

 eigenvalue-minimisations  :    48
 total energy-change (2. order) :-0.1385306E-05  (-0.1757222E-08)
 number of electron      22.0000000 magnetization 
 augmentation part        0.4894839 magnetization 

 Broyden mixing:
  rms(total) = 0.11300E-04    rms(broyden)= 0.10683E-04
  rms(prec ) = 0.17223E-04
  weight for this iteration     100.00

 eigenvalues of (default mixing * dielectric matrix)
  average eigenvalue GAMMA=   2.4635
  9.1227  6.6177  4.9174  3.3989  2.3784  2.3784  2.3484  1.7299  1.3103  1.3103
  1.4576  1.4227  1.0307  1.0307  1.0099  0.9655  0.9566  0.9566

 Free energy of the ion-electron system (eV)
  ---------------------------------------------------
  alpha Z        PSCENC =         0.62641250
  Ewald energy   TEWEN  =       985.60413100
  -Hartree energ DENC   =     -1520.61673385
  -exchange      EXHF   =         0.00000000
  -V(xc)+E(xc)   XCENC  =        73.11284374
  PAW double counting   =       289.26045671     -294.53449239
  entropy T*S    EENTRO =        -0.00000000
  eigenvalues    EBANDS =      -253.08948234
  atomic energy  EATOM  =       663.51739852
  Solvation  Ediel_sol  =         0.00000000
  ---------------------------------------------------
  free energy    TOTEN  =       -56.11946610 eV

  energy without entropy =      -56.11946610  energy(sigma->0) =      -56.11946610


--------------------------------------------------------------------------------------------------------




--------------------------------------- Iteration      1(  24)  ---------------------------------------


    POTLOK:  cpu time      0.3141: real time      0.3157
    SETDIJ:  cpu time      0.1908: real time      0.1916
     EDDAV:  cpu time      0.2859: real time      0.2876
       DOS:  cpu time      0.0001: real time      0.0001
    CHARGE:  cpu time      0.1932: real time      0.1939
    MIXING:  cpu time      0.0183: real time      0.0183
    --------------------------------------------
      LOOP:  cpu time      1.0024: real time      1.0073

 eigenvalue-minimisations  :    40
 total energy-change (2. order) :-0.1578762E-05  (-0.2563141E-08)
 number of electron      22.0000000 magnetization 
 augmentation part        0.4894845 magnetization 

 Broyden mixing:
  rms(total) = 0.92957E-05    rms(broyden)= 0.85350E-05
  rms(prec ) = 0.12746E-04
  weight for this iteration     100.00

 eigenvalues of (default mixing * dielectric matrix)
  average eigenvalue GAMMA=   2.4633
  9.1701  6.8965  5.1757  3.7105  2.8446  2.4024  2.4024  1.8236  1.5694  1.2837
  1.2837  1.2696  1.0300  1.0300  1.0734  0.9830  0.9439  0.9547  0.9547

 Free energy of the ion-electron system (eV)
  ---------------------------------------------------
  alpha Z        PSCENC =         0.62641250
  Ewald energy   TEWEN  =       985.60413100
  -Hartree energ DENC   =     -1520.61661213
  -exchange      EXHF   =         0.00000000
  -V(xc)+E(xc)   XCENC  =        73.11284093
  PAW double counting   =       289.25980410     -294.53383453
  entropy T*S    EENTRO =        -0.00000000
  eigenvalues    EBANDS =      -253.08960807
  atomic energy  EATOM  =       663.51739852
  Solvation  Ediel_sol  =         0.00000000
  ---------------------------------------------------
  free energy    TOTEN  =       -56.11946768 eV

  energy without entropy =      -56.11946768  energy(sigma->0) =      -56.11946768


--------------------------------------------------------------------------------------------------------




--------------------------------------- Iteration      1(  25)  ---------------------------------------


    POTLOK:  cpu time      0.3192: real time      0.3209
    SETDIJ:  cpu time      0.1908: real time      0.1916
     EDDAV:  cpu time      0.2886: real time      0.2902
       DOS:  cpu time      0.0002: real time      0.0002
    --------------------------------------------
      LOOP:  cpu time      0.7987: real time      0.8028

 eigenvalue-minimisations  :    40
 total energy-change (2. order) :-0.4427213E-06  (-0.9087806E-09)
 number of electron      22.0000000 magnetization 
 augmentation part        0.4894845 magnetization 

 Free energy of the ion-electron system (eV)
  ---------------------------------------------------
  alpha Z        PSCENC =         0.62641250
  Ewald energy   TEWEN  =       985.60413100
  -Hartree energ DENC   =     -1520.61732732
  -exchange      EXHF   =         0.00000000
  -V(xc)+E(xc)   XCENC  =        73.11286135
  PAW double counting   =       289.26015006     -294.53418480
  entropy T*S    EENTRO =        -0.00000000
  eigenvalues    EBANDS =      -253.08890943
  atomic energy  EATOM  =       663.51739852
  Solvation  Ediel_sol  =         0.00000000
  ---------------------------------------------------
  free energy    TOTEN  =       -56.11946812 eV

  energy without entropy =      -56.11946812  energy(sigma->0) =      -56.11946812


--------------------------------------------------------------------------------------------------------




 average (electrostatic) potential at core
  the test charge radii are     0.6991  0.5201
  (the norm of the test charge is              1.0000)
       1 -58.5923       2 -58.4415       3 -58.5269       4 -58.6266       5 -41.4058
       6 -41.3597       7 -42.2602       8 -41.8769       9 -41.8527      10 -41.4371
 
 
 
 E-fermi :  -5.4411     XC(G=0):  -0.4254     alpha+bet : -0.1681

 Fermi energy:        -5.4410623034

 k-point     1 :       0.0000    0.0000    0.0000
  band No.  band energies     occupation 
      1     -20.9439      2.00000
      2     -16.0211      2.00000
      3     -15.5020      2.00000
      4     -12.4436      2.00000
      5     -11.9317      2.00000
      6     -11.0483      2.00000
      7      -9.1393      2.00000
      8      -8.8709      2.00000
      9      -8.0516      2.00000
     10      -6.8534      2.00000
     11      -5.7386      2.00000
     12      -0.8747      0.00000
     13      -0.3892      0.00000
     14       0.1063      0.00000
     15       0.1567      0.00000
     16       0.2611      0.00000
     17       0.3657      0.00000
     18       0.6114      0.00000
     19       0.6378      0.00000
     20       0.8855      0.00000
     21       0.9347      0.00000
     22       0.9572      0.00000
     23       0.9900      0.00000
     24       1.0284      0.00000


--------------------------------------------------------------------------------------------------------


 soft charge-density along one line, spin component           1
         0         1         2         3         4         5         6         7         8         9
 total charge-density along one line
 
 pseudopotential strength for first ion, spin component:           1
 10.244   0.020   0.000   0.003  -0.001   0.001   0.001   0.001
  0.020  -0.001  -0.000  -0.000  -0.000   0.000   0.000   0.000
  0.000  -0.000  -4.368   0.003  -0.001  -0.013   0.000  -0.000
  0.003  -0.000   0.003  -4.361   0.003   0.000  -0.011   0.000
 -0.001  -0.000  -0.001   0.003  -4.371  -0.000   0.000  -0.013
  0.001   0.000  -0.013   0.000  -0.000  -0.773   0.000  -0.000
  0.001   0.000   0.000  -0.011   0.000   0.000  -0.773   0.000
  0.001   0.000  -0.000   0.000  -0.013  -0.000   0.000  -0.773
 total augmentation occupancy for first ion, spin component:           1
  1.428  -0.963  -0.015  -0.035  -0.010  -0.007  -0.014  -0.008
 -0.963   0.787   0.027   0.052   0.034   0.020  -0.002   0.027
 -0.015   0.027   1.112  -0.009   0.017   0.174  -0.008   0.006
 -0.035   0.052  -0.009   0.983  -0.005  -0.008   0.131  -0.006
 -0.010   0.034   0.017  -0.005   1.128   0.006  -0.006   0.182
 -0.007   0.020   0.174  -0.008   0.006   0.029  -0.003   0.003
 -0.014  -0.002  -0.008   0.131  -0.006  -0.003   0.021  -0.003
 -0.008   0.027   0.006  -0.006   0.182   0.003  -0.003   0.033


------------------------ aborting loop because EDIFF is reached ----------------------------------------


    CHARGE:  cpu time      0.1948: real time      0.1956
    FORLOC:  cpu time      0.0347: real time      0.0348
    FORNL :  cpu time      1.0707: real time      1.0758
    STRESS:  cpu time      3.3933: real time      3.4095
    FORHAR:  cpu time      0.1118: real time      0.1123
    MIXING:  cpu time      0.0122: real time      0.0123
    OFIELD:  cpu time      0.0001: real time      0.0001

  FORCE on cell =-STRESS in cart. coord.  units (eV):
  Direction    XX          YY          ZZ          XY          YZ          ZX
  --------------------------------------------------------------------------------------
  Alpha Z     0.62641     0.62641     0.62641
  Ewald     321.53802   176.08905   487.97674   240.61206    31.92373   -21.52456
  Hartree   495.51104   411.78776   613.31887   142.21004    15.80068   -15.51758
  E(xc)     -76.50798   -76.81275   -76.31658     0.47469     0.08556    -0.05514
  Local   -1014.21396  -790.12335 -1301.25852  -376.98354   -45.93222    37.87814
  n-local   -30.20926   -29.94896   -30.31746    -0.12389    -0.13194    -0.02407
  augment    -0.62028    -0.60037    -0.60004    -0.01048    -0.00901    -0.00922
  Kinetic   304.85182   307.93126   301.96076    -3.34908    -0.67705     1.89106
  Fock        0.00000     0.00000     0.00000     0.00000     0.00000     0.00000
  -------------------------------------------------------------------------------------
  Total       0.97581    -1.05095    -4.60981     2.82980     1.05975     2.63863
  in kB       0.46324    -0.49891    -2.18836     1.34336     0.50309     1.25261
  external pressure =       -0.74 kB  Pullay stress =        0.00 kB


 VOLUME and BASIS-vectors are now :
 -----------------------------------------------------------------------------
  energy-cutoff  :      520.00
  volume of cell :     3375.00
      direct lattice vectors                 reciprocal lattice vectors
    15.000000000  0.000000000  0.000000000     0.066666667  0.000000000  0.000000000
     0.000000000 15.000000000  0.000000000     0.000000000  0.066666667  0.000000000
     0.000000000  0.000000000 15.000000000     0.000000000  0.000000000  0.066666667

  length of vectors
    15.000000000 15.000000000 15.000000000     0.066666667  0.066666667  0.066666667


 FORCES acting on ions
    electron-ion (+dipol)            ewald-force                    non-local-force                 convergence-correction
 -----------------------------------------------------------------------------------------------
   -.103E+03 -.731E+02 0.934E+02   0.105E+03 0.743E+02 -.935E+02   -.531E+00 0.691E-01 0.155E+01   -.318E-05 -.135E-05 0.214E-05
   0.740E+02 0.755E+02 0.140E+03   -.758E+02 -.767E+02 -.139E+03   0.153E+01 0.133E+01 0.194E+01   -.379E-04 -.329E-04 -.198E-04
   0.120E+03 0.787E+02 -.107E+03   -.123E+03 -.804E+02 0.107E+03   0.997E+00 0.595E+00 -.237E+01   -.811E-05 -.458E-05 0.166E-04
   -.654E+02 -.638E+02 -.131E+03   0.669E+02 0.659E+02 0.132E+03   -.696E+00 -.150E+00 -.247E+01   0.981E-05 -.553E-05 0.388E-04
   -.642E+02 0.125E+02 0.268E+02   0.679E+02 -.137E+02 -.280E+02   -.459E+01 0.157E+01 0.130E+01   0.118E-04 -.672E-05 -.371E-05
   0.303E+00 -.629E+02 0.322E+02   -.814E+00 0.664E+02 -.335E+02   0.847E+00 -.453E+01 0.168E+01   -.467E-05 0.120E-04 -.481E-05
   0.320E+02 0.316E+02 0.590E+02   -.354E+02 -.349E+02 -.650E+02   0.266E+01 0.262E+01 0.507E+01   0.278E-07 -.209E-06 0.125E-05
   0.534E+02 0.336E+02 -.346E+02   -.574E+02 -.361E+02 0.374E+02   0.430E+01 0.269E+01 -.242E+01   0.169E-05 0.128E-05 0.134E-06
   -.560E+02 0.249E+02 -.410E+02   0.608E+02 -.276E+02 0.438E+02   -.452E+01 0.284E+01 -.212E+01   -.381E-05 0.558E-06 0.873E-06
   0.779E+01 -.596E+02 -.374E+02   -.842E+01 0.630E+02 0.391E+02   0.115E+01 -.450E+01 -.180E+01   -.205E-06 -.310E-05 0.147E-05
 -----------------------------------------------------------------------------------------------
   -.114E+01 -.255E+01 -.362E+00   0.462E-13 0.000E+00 -.639E-13   0.115E+01 0.253E+01 0.372E+00   -.346E-04 -.405E-04 0.329E-04
 
 
 POSITION                                       TOTAL-FORCE (eV/Angst)
 -----------------------------------------------------------------------------------
      8.07400      7.88000      6.77000         0.963790      1.274579      1.481094
      6.92500      6.95600      6.69700        -0.261078      0.088263      2.819086
      6.68000      6.92900      8.06600        -1.194947     -1.124205     -3.024035
      7.80300      7.78500      8.45100         0.719282      1.959126     -1.767080
      9.10600      7.52200      6.46500        -0.923117      0.316736      0.111129
      7.88000      8.93300      6.37100         0.335373     -1.071076      0.356969
      6.47900      6.51600      5.84800        -0.705056     -0.662948     -0.938521
      5.85300      6.41300      8.56800         0.292995      0.170451      0.355868
      8.65200      7.25900      8.87700         0.257575      0.174411      0.670406
      7.54800      8.80600      8.88600         0.515182     -1.125336     -0.064916
 -----------------------------------------------------------------------------------
    total drift:                                0.007139     -0.019347      0.010387


--------------------------------------------------------------------------------------------------------



  FREE ENERGIE OF THE ION-ELECTRON SYSTEM (eV)
  ---------------------------------------------------
  free  energy   TOTEN  =       -56.11946812 eV

  energy  without entropy=      -56.11946812  energy(sigma->0) =      -56.11946812
 


--------------------------------------------------------------------------------------------------------


    POTLOK:  cpu time      0.5122: real time      0.5147


--------------------------------------------------------------------------------------------------------


 stress matrix after NEB project (eV)
      0.97581      2.82980      2.63863
      2.82980     -1.05095      1.05975
      2.63863      1.05975     -4.60981
  FORCES: max atom, RMS     3.440425    1.964129
  FORCE total and by dimension    6.211121    3.024035
  Stress total and by dimension    7.449391    4.609809
     LOOP+:  cpu time     30.1376: real time     30.2886
    4ORBIT:  cpu time      0.0000: real time      0.0000

 total amount of memory used by VASP MPI-rank0   224781. kBytes
=======================================================================

   base      :      30000. kBytes
   nonlr-proj:       1257. kBytes
   fftplans  :     123538. kBytes
   grid      :      67787. kBytes
   one-center:         15. kBytes
   wavefun   :       2184. kBytes
 
  
  
 General timing and accounting informations for this job:
 ========================================================
  
                  Total CPU time used (sec):       36.788
                            User time (sec):       33.531
                          System time (sec):        3.257
                         Elapsed time (sec):       38.307
  
                   Maximum memory used (kb):      560840.
                   Average memory used (kb):          N/A
  
                          Minor page faults:       167600
                          Major page faults:         5446
                 Voluntary context switches:         3113
