 vasp.6.4.2 20Jul23 (build Apr 10 2024 13:39:58) complex                        
  
 executed on             LinuxIFC date 2024.05.17  21:49:14
 running   16 mpi-ranks, on    1 nodes
 distrk:  each k-point on   16 cores,    1 groups
 distr:  one band on NCORE=   2 cores,    8 groups


--------------------------------------------------------------------------------------------------------


 INCAR:
   ISTART = 0
   ISPIN = 1
   LREAL = Auto
   ENCUT = 520
   NPAR = 8
   LPLANE = .TRUE.
   LSCALU = .FALSE.
   NSIM = 4
   LWAVE = .FALSE.
   LCHARG = .FALSE.
   ADDGRID = .TRUE.
   LASPH = .TRUE.
   PREC = Accurate
   ISMEAR = 0
   SIGMA = 0.05
   EDIFF = 1E-06
   NSW = 0
   TEBEG = 300
   TEEND = 700     	
   ISYM = 0
   NWRITE = 2

 POTCAR:   PAW_PBE C 08Apr2002                    
 POTCAR:   PAW_PBE H 15Jun2001                    
 POTCAR:   PAW_PBE C 08Apr2002                    
   VRHFIN =C: s2p2                                                                                  
   LEXCH  = PE                                                                                      
   EATOM  =   147.1560 eV,   10.8157 Ry                                                             
                                                                                                    
   TITEL  = PAW_PBE C 08Apr2002                                                                     
   LULTRA =        F    use ultrasoft PP ?                                                          
   IUNSCR =        0    unscreen: 0-lin 1-nonlin 2-no                                               
   RPACOR =     .000    partial core radius                                                         
   POMASS =   12.011; ZVAL   =    4.000    mass and valenz                                          
   RCORE  =    1.500    outmost cutoff radius                                                       
   RWIGS  =    1.630; RWIGS  =     .863    wigner-seitz radius (au A)                               
   ENMAX  =  400.000; ENMIN  =  300.000 eV                                                          
   ICORE  =        2    local potential                                                             
   LCOR   =        T    correct aug charges                                                         
   LPAW   =        T    paw PP                                                                      
   EAUG   =  644.873                                                                                
   DEXC   =     .000                                                                                
   RMAX   =    2.266    core radius for proj-oper                                                   
   RAUG   =    1.300    factor for augmentation sphere                                              
   RDEP   =    1.501    radius for radial grids                                                     
   RDEPT  =    1.300    core radius for aug-charge                                                  
   QCUT   =   -5.516; QGAM   =   11.032    optimization parameters                                  
                                                                                                    
   Description                                                                                      
     l     E      TYP  RCUT    TYP  RCUT                                                            
     0   .000     23  1.200                                                                         
     0   .000     23  1.200                                                                         
     1   .000     23  1.500                                                                         
     1  2.500     23  1.500                                                                         
     2   .000      7  1.500                                                                         
  local pseudopotential read in
  atomic valenz-charges read in
  non local Contribution for L=           0  read in
    real space projection operators read in
  non local Contribution for L=           0  read in
    real space projection operators read in
  non local Contribution for L=           1  read in
    real space projection operators read in
  non local Contribution for L=           1  read in
    real space projection operators read in
    PAW grid and wavefunctions read in
 
   number of l-projection  operators is LMAX  =           4
   number of lm-projection operators is LMMAX =           8
 
 POTCAR:   PAW_PBE H 15Jun2001                    
   VRHFIN =H: ultrasoft test                                                                        
   LEXCH  = PE                                                                                      
   EATOM  =    12.4884 eV,     .9179 Ry                                                             
                                                                                                    
   TITEL  = PAW_PBE H 15Jun2001                                                                     
   LULTRA =        F    use ultrasoft PP ?                                                          
   IUNSCR =        0    unscreen: 0-lin 1-nonlin 2-no                                               
   RPACOR =     .000    partial core radius                                                         
   POMASS =    1.000; ZVAL   =    1.000    mass and valenz                                          
   RCORE  =    1.100    outmost cutoff radius                                                       
   RWIGS  =     .700; RWIGS  =     .370    wigner-seitz radius (au A)                               
   ENMAX  =  250.000; ENMIN  =  200.000 eV                                                          
   RCLOC  =     .701    cutoff for local pot                                                        
   LCOR   =        T    correct aug charges                                                         
   LPAW   =        T    paw PP                                                                      
   EAUG   =  400.000                                                                                
   RMAX   =    2.174    core radius for proj-oper                                                   
   RAUG   =    1.200    factor for augmentation sphere                                              
   RDEP   =    1.112    radius for radial grids                                                     
   QCUT   =   -5.749; QGAM   =   11.498    optimization parameters                                  
                                                                                                    
   Description                                                                                      
     l     E      TYP  RCUT    TYP  RCUT                                                            
     0   .000     23  1.100                                                                         
     0   .500     23  1.100                                                                         
     1  -.300     23  1.100                                                                         
  local pseudopotential read in
  atomic valenz-charges read in
  non local Contribution for L=           0  read in
    real space projection operators read in
  non local Contribution for L=           0  read in
    real space projection operators read in
  non local Contribution for L=           1  read in
    real space projection operators read in
    PAW grid and wavefunctions read in
 
   number of l-projection  operators is LMAX  =           3
   number of lm-projection operators is LMMAX =           5
 
 Optimization of the real space projectors (new method)

 maximal supplied QI-value         = 25.13
 optimisation between [QCUT,QGAM] = [ 11.56, 23.12] = [ 37.43,149.72] Ry 
 Optimized for a Real-space Cutoff    1.04 Angstroem

   l    n(q)    QCUT    max X(q) W(low)/X(q) W(high)/X(q)  e(spline) 
   0      7    11.561     5.582    0.47E-04    0.94E-04    0.17E-07
   0      7    11.561    69.432    0.20E-03    0.59E-03    0.21E-06
   1      7    11.561     2.780    0.24E-04    0.70E-04    0.44E-07
   1      7    11.561     4.549    0.18E-03    0.25E-03    0.12E-06
 Optimization of the real space projectors (new method)

 maximal supplied QI-value         = 34.20
 optimisation between [QCUT,QGAM] = [ 11.63, 23.26] = [ 37.87,151.49] Ry 
 Optimized for a Real-space Cutoff    1.21 Angstroem

   l    n(q)    QCUT    max X(q) W(low)/X(q) W(high)/X(q)  e(spline) 
   0      8    11.629     4.436    0.19E-04    0.32E-04    0.47E-07
   0      8    11.629    16.131    0.16E-03    0.33E-03    0.21E-06
   1      8    11.629     4.654    0.18E-03    0.16E-03    0.26E-06
 PAW_PBE C 08Apr2002                    :
 energy of atom  1       EATOM= -147.1560
 kinetic energy error for atom=    0.0071 (will be added to EATOM!!)
 PAW_PBE H 15Jun2001                    :
 energy of atom  2       EATOM=  -12.4884
 kinetic energy error for atom=    0.0014 (will be added to EATOM!!)
 
 
 POSCAR:  C  H
  positions in cartesian coordinates
  No initial velocities read in
 exchange correlation table for  LEXCH =        8
   RHO(1)=    0.500       N(1)  =     2000
   RHO(2)=  100.500       N(2)  =     4000

 VTST: version 4.1, (05/19/21)

 CHAIN: initializing optimizer
 
 OPT: Using VASP Dynamics algorithm
 CHAIN: Read ICHAIN            0
 
 POSCAR:  C  H
  positions in cartesian coordinates
  No initial velocities read in
 


--------------------------------------------------------------------------------------------------------


 ion  position               nearest neighbor table
   1  0.528  0.534  0.397-   5 1.07   6 1.12   2 1.35
   2  0.499  0.468  0.450-   7 1.11   1 1.35   3 1.41
   3  0.499  0.460  0.544-   8 1.14   4 1.38   2 1.41
   4  0.474  0.525  0.604-  10 1.09   9 1.13   3 1.38
   5  0.526  0.528  0.326-   1 1.07
   6  0.562  0.594  0.428-   1 1.12
   7  0.479  0.406  0.415-   2 1.11
   8  0.520  0.393  0.574-   3 1.14
   9  0.434  0.586  0.587-   4 1.13
  10  0.478  0.505  0.674-   4 1.09
 

IMPORTANT INFORMATION: All symmetrisations will be switched off!
NOSYMM: (Re-)initialisation of all symmetry stuff for point group C_1.


----------------------------------------------------------------------------------------

                                     Primitive cell                                     

  volume of cell :    3375.0000

  direct lattice vectors                    reciprocal lattice vectors
    15.000000000  0.000000000  0.000000000     0.066666667  0.000000000  0.000000000
     0.000000000 15.000000000  0.000000000     0.000000000  0.066666667  0.000000000
     0.000000000  0.000000000 15.000000000     0.000000000  0.000000000  0.066666667

  length of vectors
    15.000000000 15.000000000 15.000000000     0.066666667  0.066666667  0.066666667

  position of ions in fractional coordinates (direct lattice)
     0.528199991  0.534466680  0.397266674
     0.499266656  0.467866675  0.450466665
     0.499400012  0.459799989  0.544400024
     0.473799992  0.525000000  0.604133352
     0.526333332  0.527933343  0.325933329
     0.561733309  0.594266637  0.427666664
     0.478933334  0.406400013  0.415266673
     0.520066675  0.392800013  0.573933347
     0.434200001  0.586399968  0.587000020
     0.478133329  0.505066681  0.673999977

  ion indices of the primitive-cell ions
   primitive index   ion index
                 1           1
                 2           2
                 3           3
                 4           4
                 5           5
                 6           6
                 7           7
                 8           8
                 9           9
                10          10

----------------------------------------------------------------------------------------

 
 
 KPOINTS: K-Spacing Value to Generate K-Mesh: 1.00

Automatic generation of k-mesh.
 Grid dimensions read from file:
 generate k-points for:    1    1    1

 Generating k-lattice:

  Cartesian coordinates                     Fractional coordinates (reciprocal lattice)
     0.066666667  0.000000000  0.000000000     1.000000000  0.000000000  0.000000000
     0.000000000  0.066666667  0.000000000     0.000000000  1.000000000  0.000000000
     0.000000000  0.000000000  0.066666667     0.000000000  0.000000000  1.000000000

  Length of vectors
     0.066666667  0.066666667  0.066666667

  Shift w.r.t. Gamma in fractional coordinates (k-lattice)
     0.000000000  0.000000000  0.000000000

 
 Subroutine IBZKPT returns following result:
 ===========================================
 
 Found      1 irreducible k-points:
 
 Following reciprocal coordinates:
            Coordinates               Weight
  0.000000  0.000000  0.000000      1.000000
 
 Following cartesian coordinates:
            Coordinates               Weight
  0.000000  0.000000  0.000000      1.000000
 


--------------------------------------------------------------------------------------------------------




 Dimension of arrays:
   k-points           NKPTS =      1   k-points in BZ     NKDIM =      1   number of bands    NBANDS=     24
   number of dos      NEDOS =    301   number of ions     NIONS =     10
   non local maximal  LDIM  =      4   non local SUM 2l+1 LMDIM =      8
   total plane-waves  NPLWV = ******
   max r-space proj   IRMAX =   3145   max aug-charges    IRDMAX=  39494
   dimension x,y,z NGX =   112 NGY =  112 NGZ =  112
   dimension x,y,z NGXF=   224 NGYF=  224 NGZF=  224
   support grid    NGXF=   448 NGYF=  448 NGZF=  448
   ions per type =               4   6
   NGX,Y,Z   is equivalent  to a cutoff of  12.41, 12.41, 12.41 a.u.
   NGXF,Y,Z  is equivalent  to a cutoff of  24.83, 24.83, 24.83 a.u.

 SYSTEM =  unknown system                          
 POSCAR =   C  H                                   

 Startparameter for this run:
   NWRITE =      2    write-flag & timer
   PREC   = accura    normal or accurate (medium, high low for compatibility)
   ISTART =      0    job   : 0-new  1-cont  2-samecut
   ICHARG =      2    charge: 1-file 2-atom 10-const
   ISPIN  =      1    spin polarized calculation?
   LNONCOLLINEAR =      F non collinear calculations
   LSORBIT =      F    spin-orbit coupling
   INIWAV =      1    electr: 0-lowe 1-rand  2-diag
   LASPH  =      T    aspherical Exc in radial PAW
 Electronic Relaxation 1
   ENCUT  =  520.0 eV  38.22 Ry    6.18 a.u.  27.89 27.89 27.89*2*pi/ulx,y,z
   ENINI  =  520.0     initial cutoff
   ENAUG  =  644.9 eV  augmentation charge cutoff
   NELM   =     60;   NELMIN=  2; NELMDL= -5     # of ELM steps 
   EDIFF  = 0.1E-05   stopping-criterion for ELM
   LREAL  =      T    real-space projection
   NLSPLINE    = F    spline interpolate recip. space projectors
   LCOMPAT=      F    compatible to vasp.4.4
   GGA_COMPAT  = T    GGA compatible to vasp.4.4-vasp.4.6
   LMAXPAW     = -100 max onsite density
   LMAXMIX     =    2 max onsite mixed and CHGCAR
   VOSKOWN=      0    Vosko Wilk Nusair interpolation
   ROPT   =   -0.00025  -0.00025
 Ionic relaxation
   EDIFFG = 0.1E-04   stopping-criterion for IOM
   NSW    =      0    number of steps for IOM
   NBLOCK =      1;   KBLOCK =      1    inner block; outer block 
   IBRION =     -1    ionic relax: 0-MD 1-quasi-New 2-CG
   NFREE  =      0    steps in history (QN), initial steepest desc. (CG)
   ISIF   =      2    stress and relaxation
   IWAVPR =     10    prediction:  0-non 1-charg 2-wave 3-comb
   ISYM   =      0    0-nonsym 1-usesym 2-fastsym
   LCORR  =      T    Harris-Foulkes like correction to forces

   POTIM  = 0.5000    time-step for ionic-motion
   TEIN   =    0.0    initial temperature
   TEBEG  =  300.0;   TEEND  = 700.0 temperature during run
   SMASS  =  -3.00    Nose mass-parameter (am)
   estimated Nose-frequenzy (Omega)   =  0.10E-29 period in steps = 0.13E+47 mass=  -0.514E-26a.u.
   SCALEE = 1.0000    scale energy and forces
   NPACO  =    256;   APACO  = 10.0  distance and # of slots for P.C.
   PSTRESS=    0.0 pullay stress

  Mass of Ions in am
   POMASS =  12.01  1.00
  Ionic Valenz
   ZVAL   =   4.00  1.00
  Atomic Wigner-Seitz radii
   RWIGS  =  -1.00 -1.00
  virtual crystal weights 
   VCA    =   1.00  1.00
   NELECT =      22.0000    total number of electrons
   NUPDOWN=      -1.0000    fix difference up-down

 DOS related values:
   EMIN   =  10.00;   EMAX   =-10.00  energy-range for DOS
   EFERMI =   0.00;   METHOD = LEGACY      
   ISMEAR =     0;   SIGMA  =   0.05  broadening in eV -4-tet -1-fermi 0-gaus

 Electronic relaxation 2 (details)
   IALGO  =     38    algorithm
   LDIAG  =      T    sub-space diagonalisation (order eigenvalues)
   LSUBROT=      F    optimize rotation matrix (better conditioning)
   TURBO    =      0    0=normal 1=particle mesh
   IRESTART =      0    0=no restart 2=restart with 2 vectors
   NREBOOT  =      0    no. of reboots
   NMIN     =      0    reboot dimension
   EREF     =   0.00    reference energy to select bands
   IMIX   =      4    mixing-type and parameters
     AMIX     =   0.40;   BMIX     =  1.00
     AMIX_MAG =   1.60;   BMIX_MAG =  1.00
     AMIN     =   0.10
     WC   =   100.;   INIMIX=   1;  MIXPRE=   1;  MAXMIX= -45

 Intra band minimization:
   WEIMIN = 0.0000     energy-eigenvalue tresh-hold
   EBREAK =  0.10E-07  absolut break condition
   DEPER  =   0.30     relativ break condition  

   TIME   =   0.40     timestep for ELM

  volume/ion in A,a.u.               =     337.50      2277.56
  Fermi-wavevector in a.u.,A,eV,Ry     =   0.305814  0.577905  1.272449  0.093522
  Thomas-Fermi vector in A             =   1.179187
 
 Write flags
   LWAVE        =      F    write WAVECAR
   LDOWNSAMPLE  =      F    k-point downsampling of WAVECAR
   LCHARG       =      F    write CHGCAR
   LVTOT        =      F    write LOCPOT, total local potential
   LVHAR        =      F    write LOCPOT, Hartree potential only
   LELF         =      F    write electronic localiz. function (ELF)
   LORBIT       =      0    0 simple, 1 ext, 2 COOP (PROOUT), +10 PAW based schemes


 Dipole corrections
   LMONO  =      F    monopole corrections only (constant potential shift)
   LDIPOL =      F    correct potential (dipole corrections)
   IDIPOL =      0    1-x, 2-y, 3-z, 4-all directions 
   EPSILON=  1.0000000 bulk dielectric constant

 Exchange correlation treatment:
   GGA     =    --    GGA type
   LEXCH   =     8    internal setting for exchange type
   LIBXC   =     F    Libxc                    
   VOSKOWN =     0    Vosko Wilk Nusair interpolation
   LHFCALC =     F    Hartree Fock is set to
   LHFONE  =     F    Hartree Fock one center treatment
   AEXX    =    0.0000 exact exchange contribution

 Linear response parameters
   LEPSILON=     F    determine dielectric tensor
   LRPA    =     F    only Hartree local field effects (RPA)
   LNABLA  =     F    use nabla operator in PAW spheres
   LVEL    =     F    velocity operator in full k-point grid
   CSHIFT  =0.1000    complex shift for real part using Kramers Kronig
   OMEGAMAX=  -1.0    maximum frequency
   DEG_THRESHOLD= 0.2000000E-02 threshold for treating states as degnerate
   RTIME   =   -0.100 relaxation time in fs
  (WPLASMAI=    0.000 imaginary part of plasma frequency in eV, 0.658/RTIME)
   DFIELD  = 0.0000000 0.0000000 0.0000000 field for delta impulse in time
 
  Optional k-point grid parameters
   LKPOINTS_OPT  =     F    use optional k-point grid
   KPOINTS_OPT_MODE=     1    mode for optional k-point grid
 
 Orbital magnetization related:
   ORBITALMAG=     F  switch on orbital magnetization
   LCHIMAG   =     F  perturbation theory with respect to B field
   DQ        =  0.001000  dq finite difference perturbation B field
   LLRAUG    =     F  two centre corrections for induced B field
   LBONE     =     F  B-component reconstruction in AE one-centre
   LVGVCALC  =     T  calculate vGv susceptibility
   LVGVAPPL  =     F  apply vGv susceptibility instead of pGv for G=0

 Random number generation:
   RANDOM_GENERATOR = DEFAULT
   PCG_SEED         = not used


--------------------------------------------------------------------------------------------------------


 Static calculation
 charge density and potential will be updated during run
 non-spin polarized calculation
 Variant of blocked Davidson
 Davidson routine will perform the subspace rotation
 perform sub-space diagonalisation
    after iterative eigenvector-optimisation
 modified Broyden-mixing scheme, WC =      100.0
 initial mixing is a Kerker type mixing with AMIX =  0.4000 and BMIX =      1.0000
 Hartree-type preconditioning will be used
 using additional bands           13
 real space projection scheme for non local part
 calculate Harris-corrections to forces 
   (improved forces if not selfconsistent)
 use gradient corrections 
 use of overlap-Matrix (Vanderbilt PP)
 Gauss-broadening in eV      SIGMA  =   0.05


--------------------------------------------------------------------------------------------------------


  energy-cutoff  :      520.00
  volume of cell :     3375.00
      direct lattice vectors                 reciprocal lattice vectors
    15.000000000  0.000000000  0.000000000     0.066666667  0.000000000  0.000000000
     0.000000000 15.000000000  0.000000000     0.000000000  0.066666667  0.000000000
     0.000000000  0.000000000 15.000000000     0.000000000  0.000000000  0.066666667

  length of vectors
    15.000000000 15.000000000 15.000000000     0.066666667  0.066666667  0.066666667


 
 k-points in units of 2pi/SCALE and weight: K-Spacing Value to Generate K-Mesh: 1.00
   0.00000000  0.00000000  0.00000000       1.000
 
 k-points in reciprocal lattice and weights: K-Spacing Value to Generate K-Mesh: 1.00
   0.00000000  0.00000000  0.00000000       1.000
 
 position of ions in fractional coordinates (direct lattice) 
   0.52819999  0.53446668  0.39726667
   0.49926666  0.46786668  0.45046666
   0.49940001  0.45979999  0.54440002
   0.47379999  0.52500000  0.60413335
   0.52633333  0.52793334  0.32593333
   0.56173331  0.59426664  0.42766666
   0.47893333  0.40640001  0.41526667
   0.52006667  0.39280001  0.57393335
   0.43420000  0.58639997  0.58700002
   0.47813333  0.50506668  0.67399998
 
 position of ions in cartesian coordinates  (Angst):
   7.92299986  8.01700020  5.95900011
   7.48899984  7.01800013  6.75699997
   7.49100018  6.89699984  8.16600037
   7.10699987  7.87500000  9.06200027
   7.89499998  7.91900015  4.88899994
   8.42599964  8.91399956  6.41499996
   7.18400002  6.09600019  6.22900009
   7.80100012  5.89200020  8.60900021
   6.51300001  8.79599953  8.80500031
   7.17199993  7.57600021 10.10999966
 


--------------------------------------------------------------------------------------------------------


 k-point   1 :   0.0000 0.0000 0.0000  plane waves:   90879

 maximum and minimum number of plane-waves per node :     45467    45412

 maximum number of plane-waves:     90879
 maximum index in each direction: 
   IXMAX=   27   IYMAX=   27   IZMAX=   27
   IXMIN=  -27   IYMIN=  -27   IZMIN=  -27


 real space projection operators:
  total allocation   :       1187.48 KBytes
  max/ min on nodes  :        594.83        592.66


 parallel 3D FFT for wavefunctions:
    minimum data exchange during FFTs selected (reduces bandwidth)
 parallel 3D FFT for charge:
    minimum data exchange during FFTs selected (reduces bandwidth)


 total amount of memory used by VASP MPI-rank0   224786. kBytes
=======================================================================

   base      :      30000. kBytes
   nonlr-proj:       1262. kBytes
   fftplans  :     123538. kBytes
   grid      :      67787. kBytes
   one-center:         15. kBytes
   wavefun   :       2184. kBytes
 
     INWAV:  cpu time      0.0000: real time      0.0000
 Broyden mixing: mesh for mixing (old mesh)
   NGX = 55   NGY = 55   NGZ = 55
  (NGX  =224   NGY  =224   NGZ  =224)
  gives a total of 166375 points

 initial charge density was supplied:
 charge density of overlapping atoms calculated
 number of electron      22.0000000 magnetization 
 keeping initial charge density in first step


--------------------------------------------------------------------------------------------------------


 Maximum index for non-local projection operator         1518
 Maximum index for augmentation-charges         2500 (set IRDMAX)


--------------------------------------------------------------------------------------------------------


 First call to EWALD:  gamma=   0.118
 Maximum number of real-space cells 3x 3x 3
 Maximum number of reciprocal cells 3x 3x 3

    FEWALD:  cpu time      0.0010: real time      0.0010


--------------------------------------- Ionic step        1  -------------------------------------------




--------------------------------------- Iteration      1(   1)  ---------------------------------------


    POTLOK:  cpu time      0.3352: real time      0.3371
    SETDIJ:  cpu time      0.1940: real time      0.1948
     EDDAV:  cpu time      0.4230: real time      0.4254
       DOS:  cpu time      0.0002: real time      0.0002
    --------------------------------------------
      LOOP:  cpu time      0.9524: real time      0.9575

 eigenvalue-minimisations  :    64
 total energy-change (2. order) : 0.1057904E+03  (-0.5251301E+03)
 number of electron      22.0000000 magnetization 
 augmentation part       22.0000000 magnetization 

 Free energy of the ion-electron system (eV)
  ---------------------------------------------------
  alpha Z        PSCENC =         0.62641250
  Ewald energy   TEWEN  =       878.39137249
  -Hartree energ DENC   =     -1304.49078346
  -exchange      EXHF   =         0.00000000
  -V(xc)+E(xc)   XCENC  =        67.13484311
  PAW double counting   =       156.01372664     -160.66969168
  entropy T*S    EENTRO =        -0.00002061
  eigenvalues    EBANDS =      -194.73288350
  atomic energy  EATOM  =       663.51739852
  Solvation  Ediel_sol  =         0.00000000
  ---------------------------------------------------
  free energy    TOTEN  =       105.79037401 eV

  energy without entropy =      105.79039463  energy(sigma->0) =      105.79038432


--------------------------------------------------------------------------------------------------------




--------------------------------------- Iteration      1(   2)  ---------------------------------------


     EDDAV:  cpu time      0.4915: real time      0.4942
       DOS:  cpu time      0.0002: real time      0.0002
    --------------------------------------------
      LOOP:  cpu time      0.4916: real time      0.4944

 eigenvalue-minimisations  :    80
 total energy-change (2. order) :-0.1260434E+03  (-0.1229929E+03)
 number of electron      22.0000000 magnetization 
 augmentation part       22.0000000 magnetization 

 Free energy of the ion-electron system (eV)
  ---------------------------------------------------
  alpha Z        PSCENC =         0.62641250
  Ewald energy   TEWEN  =       878.39137249
  -Hartree energ DENC   =     -1304.49078346
  -exchange      EXHF   =         0.00000000
  -V(xc)+E(xc)   XCENC  =        67.13484311
  PAW double counting   =       156.01372664     -160.66969168
  entropy T*S    EENTRO =        -0.00000000
  eigenvalues    EBANDS =      -320.77627438
  atomic energy  EATOM  =       663.51739852
  Solvation  Ediel_sol  =         0.00000000
  ---------------------------------------------------
  free energy    TOTEN  =       -20.25299625 eV

  energy without entropy =      -20.25299625  energy(sigma->0) =      -20.25299625


--------------------------------------------------------------------------------------------------------




--------------------------------------- Iteration      1(   3)  ---------------------------------------


     EDDAV:  cpu time      0.4094: real time      0.4116
       DOS:  cpu time      0.0001: real time      0.0001
    --------------------------------------------
      LOOP:  cpu time      0.4095: real time      0.4117

 eigenvalue-minimisations  :    64
 total energy-change (2. order) :-0.3937060E+02  (-0.3924153E+02)
 number of electron      22.0000000 magnetization 
 augmentation part       22.0000000 magnetization 

 Free energy of the ion-electron system (eV)
  ---------------------------------------------------
  alpha Z        PSCENC =         0.62641250
  Ewald energy   TEWEN  =       878.39137249
  -Hartree energ DENC   =     -1304.49078346
  -exchange      EXHF   =         0.00000000
  -V(xc)+E(xc)   XCENC  =        67.13484311
  PAW double counting   =       156.01372664     -160.66969168
  entropy T*S    EENTRO =        -0.00000000
  eigenvalues    EBANDS =      -360.14687125
  atomic energy  EATOM  =       663.51739852
  Solvation  Ediel_sol  =         0.00000000
  ---------------------------------------------------
  free energy    TOTEN  =       -59.62359312 eV

  energy without entropy =      -59.62359312  energy(sigma->0) =      -59.62359312


--------------------------------------------------------------------------------------------------------




--------------------------------------- Iteration      1(   4)  ---------------------------------------


     EDDAV:  cpu time      0.4091: real time      0.4114
       DOS:  cpu time      0.0001: real time      0.0001
    --------------------------------------------
      LOOP:  cpu time      0.4092: real time      0.4115

 eigenvalue-minimisations  :    64
 total energy-change (2. order) :-0.3302015E+01  (-0.3296506E+01)
 number of electron      22.0000000 magnetization 
 augmentation part       22.0000000 magnetization 

 Free energy of the ion-electron system (eV)
  ---------------------------------------------------
  alpha Z        PSCENC =         0.62641250
  Ewald energy   TEWEN  =       878.39137249
  -Hartree energ DENC   =     -1304.49078346
  -exchange      EXHF   =         0.00000000
  -V(xc)+E(xc)   XCENC  =        67.13484311
  PAW double counting   =       156.01372664     -160.66969168
  entropy T*S    EENTRO =        -0.00000000
  eigenvalues    EBANDS =      -363.44888616
  atomic energy  EATOM  =       663.51739852
  Solvation  Ediel_sol  =         0.00000000
  ---------------------------------------------------
  free energy    TOTEN  =       -62.92560803 eV

  energy without entropy =      -62.92560803  energy(sigma->0) =      -62.92560803


--------------------------------------------------------------------------------------------------------




--------------------------------------- Iteration      1(   5)  ---------------------------------------


     EDDAV:  cpu time      0.4127: real time      0.4150
       DOS:  cpu time      0.0001: real time      0.0001
    CHARGE:  cpu time      0.1980: real time      0.1988
    MIXING:  cpu time      0.0151: real time      0.0152
    --------------------------------------------
      LOOP:  cpu time      0.6259: real time      0.6291

 eigenvalue-minimisations  :    64
 total energy-change (2. order) :-0.6991885E-01  (-0.6990056E-01)
 number of electron      22.0000000 magnetization 
 augmentation part        0.5754264 magnetization 

 Broyden mixing:
  rms(total) = 0.11621E+01    rms(broyden)= 0.11619E+01
  rms(prec ) = 0.13963E+01
  weight for this iteration     100.00

 Free energy of the ion-electron system (eV)
  ---------------------------------------------------
  alpha Z        PSCENC =         0.62641250
  Ewald energy   TEWEN  =       878.39137249
  -Hartree energ DENC   =     -1304.49078346
  -exchange      EXHF   =         0.00000000
  -V(xc)+E(xc)   XCENC  =        67.13484311
  PAW double counting   =       156.01372664     -160.66969168
  entropy T*S    EENTRO =        -0.00000000
  eigenvalues    EBANDS =      -363.51880501
  atomic energy  EATOM  =       663.51739852
  Solvation  Ediel_sol  =         0.00000000
  ---------------------------------------------------
  free energy    TOTEN  =       -62.99552688 eV

  energy without entropy =      -62.99552688  energy(sigma->0) =      -62.99552688


--------------------------------------------------------------------------------------------------------




--------------------------------------- Iteration      1(   6)  ---------------------------------------


    POTLOK:  cpu time      0.3088: real time      0.3104
    SETDIJ:  cpu time      0.1937: real time      0.1944
     EDDAV:  cpu time      0.4090: real time      0.4113
       DOS:  cpu time      0.0001: real time      0.0001
    CHARGE:  cpu time      0.1933: real time      0.1941
    MIXING:  cpu time      0.0162: real time      0.0163
    --------------------------------------------
      LOOP:  cpu time      1.1212: real time      1.1266

 eigenvalue-minimisations  :    64
 total energy-change (2. order) : 0.5048216E+01  (-0.7101221E+00)
 number of electron      22.0000000 magnetization 
 augmentation part        0.5288068 magnetization 

 Broyden mixing:
  rms(total) = 0.56278E+00    rms(broyden)= 0.56275E+00
  rms(prec ) = 0.66776E+00
  weight for this iteration     100.00

 eigenvalues of (default mixing * dielectric matrix)
  average eigenvalue GAMMA=   1.6391
  1.6391

 Free energy of the ion-electron system (eV)
  ---------------------------------------------------
  alpha Z        PSCENC =         0.62641250
  Ewald energy   TEWEN  =       878.39137249
  -Hartree energ DENC   =     -1350.71232155
  -exchange      EXHF   =         0.00000000
  -V(xc)+E(xc)   XCENC  =        69.52269593
  PAW double counting   =       228.03947890     -233.23615362
  entropy T*S    EENTRO =        -0.00000000
  eigenvalues    EBANDS =      -314.09619401
  atomic energy  EATOM  =       663.51739852
  Solvation  Ediel_sol  =         0.00000000
  ---------------------------------------------------
  free energy    TOTEN  =       -57.94731084 eV

  energy without entropy =      -57.94731084  energy(sigma->0) =      -57.94731084


--------------------------------------------------------------------------------------------------------




--------------------------------------- Iteration      1(   7)  ---------------------------------------


    POTLOK:  cpu time      0.3101: real time      0.3118
    SETDIJ:  cpu time      0.1937: real time      0.1945
     EDDAV:  cpu time      0.4118: real time      0.4144
       DOS:  cpu time      0.0001: real time      0.0001
    CHARGE:  cpu time      0.1944: real time      0.1951
    MIXING:  cpu time      0.0162: real time      0.0163
    --------------------------------------------
      LOOP:  cpu time      1.1263: real time      1.1323

 eigenvalue-minimisations  :    64
 total energy-change (2. order) : 0.1196303E+01  (-0.4270120E+00)
 number of electron      22.0000000 magnetization 
 augmentation part        0.4954420 magnetization 

 Broyden mixing:
  rms(total) = 0.22109E+00    rms(broyden)= 0.22102E+00
  rms(prec ) = 0.25317E+00
  weight for this iteration     100.00

 eigenvalues of (default mixing * dielectric matrix)
  average eigenvalue GAMMA=   1.9662
  1.9662  1.9662

 Free energy of the ion-electron system (eV)
  ---------------------------------------------------
  alpha Z        PSCENC =         0.62641250
  Ewald energy   TEWEN  =       878.39137249
  -Hartree energ DENC   =     -1388.63537400
  -exchange      EXHF   =         0.00000000
  -V(xc)+E(xc)   XCENC  =        71.69967001
  PAW double counting   =       289.48220054     -294.93692624
  entropy T*S    EENTRO =        -0.00000000
  eigenvalues    EBANDS =      -276.89576136
  atomic energy  EATOM  =       663.51739852
  Solvation  Ediel_sol  =         0.00000000
  ---------------------------------------------------
  free energy    TOTEN  =       -56.75100753 eV

  energy without entropy =      -56.75100753  energy(sigma->0) =      -56.75100753


--------------------------------------------------------------------------------------------------------




--------------------------------------- Iteration      1(   8)  ---------------------------------------


    POTLOK:  cpu time      0.3211: real time      0.3227
    SETDIJ:  cpu time      0.1924: real time      0.1932
     EDDAV:  cpu time      0.4143: real time      0.4165
       DOS:  cpu time      0.0002: real time      0.0002
    CHARGE:  cpu time      0.1957: real time      0.1965
    MIXING:  cpu time      0.0155: real time      0.0156
    --------------------------------------------
      LOOP:  cpu time      1.1392: real time      1.1446

 eigenvalue-minimisations  :    64
 total energy-change (2. order) : 0.1561068E+00  (-0.3505638E-01)
 number of electron      22.0000000 magnetization 
 augmentation part        0.4976300 magnetization 

 Broyden mixing:
  rms(total) = 0.44959E-01    rms(broyden)= 0.44954E-01
  rms(prec ) = 0.76467E-01
  weight for this iteration     100.00

 eigenvalues of (default mixing * dielectric matrix)
  average eigenvalue GAMMA=   1.6203
  2.3602  0.9303  1.5705

 Free energy of the ion-electron system (eV)
  ---------------------------------------------------
  alpha Z        PSCENC =         0.62641250
  Ewald energy   TEWEN  =       878.39137249
  -Hartree energ DENC   =     -1395.01813530
  -exchange      EXHF   =         0.00000000
  -V(xc)+E(xc)   XCENC  =        72.23979085
  PAW double counting   =       294.09190451     -299.38748406
  entropy T*S    EENTRO =        -0.00000000
  eigenvalues    EBANDS =      -271.05616028
  atomic energy  EATOM  =       663.51739852
  Solvation  Ediel_sol  =         0.00000000
  ---------------------------------------------------
  free energy    TOTEN  =       -56.59490077 eV

  energy without entropy =      -56.59490077  energy(sigma->0) =      -56.59490077


--------------------------------------------------------------------------------------------------------




--------------------------------------- Iteration      1(   9)  ---------------------------------------


    POTLOK:  cpu time      0.3228: real time      0.3245
    SETDIJ:  cpu time      0.1926: real time      0.1935
     EDDAV:  cpu time      0.4089: real time      0.4111
       DOS:  cpu time      0.0001: real time      0.0001
    CHARGE:  cpu time      0.1940: real time      0.1948
    MIXING:  cpu time      0.0151: real time      0.0151
    --------------------------------------------
      LOOP:  cpu time      1.1336: real time      1.1391

 eigenvalue-minimisations  :    64
 total energy-change (2. order) : 0.2524658E-01  (-0.6140827E-02)
 number of electron      22.0000000 magnetization 
 augmentation part        0.4943651 magnetization 

 Broyden mixing:
  rms(total) = 0.22984E-01    rms(broyden)= 0.22980E-01
  rms(prec ) = 0.46813E-01
  weight for this iteration     100.00

 eigenvalues of (default mixing * dielectric matrix)
  average eigenvalue GAMMA=   1.4545
  2.2956  1.6037  0.9593  0.9593

 Free energy of the ion-electron system (eV)
  ---------------------------------------------------
  alpha Z        PSCENC =         0.62641250
  Ewald energy   TEWEN  =       878.39137249
  -Hartree energ DENC   =     -1399.77983308
  -exchange      EXHF   =         0.00000000
  -V(xc)+E(xc)   XCENC  =        72.45572336
  PAW double counting   =       298.72826841     -304.04556612
  entropy T*S    EENTRO =        -0.00000000
  eigenvalues    EBANDS =      -266.46343027
  atomic energy  EATOM  =       663.51739852
  Solvation  Ediel_sol  =         0.00000000
  ---------------------------------------------------
  free energy    TOTEN  =       -56.56965418 eV

  energy without entropy =      -56.56965418  energy(sigma->0) =      -56.56965418


--------------------------------------------------------------------------------------------------------




--------------------------------------- Iteration      1(  10)  ---------------------------------------


    POTLOK:  cpu time      0.3233: real time      0.3250
    SETDIJ:  cpu time      0.1928: real time      0.1937
     EDDAV:  cpu time      0.3664: real time      0.3684
       DOS:  cpu time      0.0001: real time      0.0001
    CHARGE:  cpu time      0.1937: real time      0.1945
    MIXING:  cpu time      0.0152: real time      0.0153
    --------------------------------------------
      LOOP:  cpu time      1.0916: real time      1.0969

 eigenvalue-minimisations  :    56
 total energy-change (2. order) : 0.5927642E-02  (-0.2350911E-02)
 number of electron      22.0000000 magnetization 
 augmentation part        0.4922174 magnetization 

 Broyden mixing:
  rms(total) = 0.16997E-01    rms(broyden)= 0.16992E-01
  rms(prec ) = 0.33000E-01
  weight for this iteration     100.00

 eigenvalues of (default mixing * dielectric matrix)
  average eigenvalue GAMMA=   1.6619
  2.5364  2.3826  1.3506  1.0199  1.0199

 Free energy of the ion-electron system (eV)
  ---------------------------------------------------
  alpha Z        PSCENC =         0.62641250
  Ewald energy   TEWEN  =       878.39137249
  -Hartree energ DENC   =     -1403.09887267
  -exchange      EXHF   =         0.00000000
  -V(xc)+E(xc)   XCENC  =        72.53494499
  PAW double counting   =       298.61792259     -303.94330111
  entropy T*S    EENTRO =        -0.00000000
  eigenvalues    EBANDS =      -263.20960385
  atomic energy  EATOM  =       663.51739852
  Solvation  Ediel_sol  =         0.00000000
  ---------------------------------------------------
  free energy    TOTEN  =       -56.56372654 eV

  energy without entropy =      -56.56372654  energy(sigma->0) =      -56.56372654


--------------------------------------------------------------------------------------------------------




--------------------------------------- Iteration      1(  11)  ---------------------------------------


    POTLOK:  cpu time      0.3229: real time      0.3245
    SETDIJ:  cpu time      0.1925: real time      0.1933
     EDDAV:  cpu time      0.3734: real time      0.3753
       DOS:  cpu time      0.0001: real time      0.0001
    CHARGE:  cpu time      0.1930: real time      0.1937
    MIXING:  cpu time      0.0171: real time      0.0172
    --------------------------------------------
      LOOP:  cpu time      1.0990: real time      1.1042

 eigenvalue-minimisations  :    56
 total energy-change (2. order) : 0.9815669E-02  (-0.5916168E-03)
 number of electron      22.0000000 magnetization 
 augmentation part        0.4918964 magnetization 

 Broyden mixing:
  rms(total) = 0.74679E-02    rms(broyden)= 0.74677E-02
  rms(prec ) = 0.17189E-01
  weight for this iteration     100.00

 eigenvalues of (default mixing * dielectric matrix)
  average eigenvalue GAMMA=   1.7943
  3.5306  2.4983  1.4601  1.2141  1.0314  1.0314

 Free energy of the ion-electron system (eV)
  ---------------------------------------------------
  alpha Z        PSCENC =         0.62641250
  Ewald energy   TEWEN  =       878.39137249
  -Hartree energ DENC   =     -1406.69057325
  -exchange      EXHF   =         0.00000000
  -V(xc)+E(xc)   XCENC  =        72.62857508
  PAW double counting   =       297.31439342     -302.62493113
  entropy T*S    EENTRO =        -0.00000000
  eigenvalues    EBANDS =      -259.71655851
  atomic energy  EATOM  =       663.51739852
  Solvation  Ediel_sol  =         0.00000000
  ---------------------------------------------------
  free energy    TOTEN  =       -56.55391087 eV

  energy without entropy =      -56.55391087  energy(sigma->0) =      -56.55391087


--------------------------------------------------------------------------------------------------------




--------------------------------------- Iteration      1(  12)  ---------------------------------------


    POTLOK:  cpu time      0.3220: real time      0.3237
    SETDIJ:  cpu time      0.1925: real time      0.1933
     EDDAV:  cpu time      0.4074: real time      0.4097
       DOS:  cpu time      0.0002: real time      0.0002
    CHARGE:  cpu time      0.1933: real time      0.1941
    MIXING:  cpu time      0.0168: real time      0.0169
    --------------------------------------------
      LOOP:  cpu time      1.1322: real time      1.1377

 eigenvalue-minimisations  :    64
 total energy-change (2. order) :-0.1891633E-02  (-0.1684673E-03)
 number of electron      22.0000000 magnetization 
 augmentation part        0.4917009 magnetization 

 Broyden mixing:
  rms(total) = 0.54601E-02    rms(broyden)= 0.54600E-02
  rms(prec ) = 0.10656E-01
  weight for this iteration     100.00

 eigenvalues of (default mixing * dielectric matrix)
  average eigenvalue GAMMA=   1.9620
  4.4466  2.4108  2.4108  1.4238  1.0706  0.9858  0.9858

 Free energy of the ion-electron system (eV)
  ---------------------------------------------------
  alpha Z        PSCENC =         0.62641250
  Ewald energy   TEWEN  =       878.39137249
  -Hartree energ DENC   =     -1408.64579495
  -exchange      EXHF   =         0.00000000
  -V(xc)+E(xc)   XCENC  =        72.65710899
  PAW double counting   =       296.68118058     -301.99147102
  entropy T*S    EENTRO =        -0.00000000
  eigenvalues    EBANDS =      -257.79200962
  atomic energy  EATOM  =       663.51739852
  Solvation  Ediel_sol  =         0.00000000
  ---------------------------------------------------
  free energy    TOTEN  =       -56.55580251 eV

  energy without entropy =      -56.55580251  energy(sigma->0) =      -56.55580251


--------------------------------------------------------------------------------------------------------




--------------------------------------- Iteration      1(  13)  ---------------------------------------


    POTLOK:  cpu time      0.3171: real time      0.3187
    SETDIJ:  cpu time      0.1922: real time      0.1930
     EDDAV:  cpu time      0.4089: real time      0.4111
       DOS:  cpu time      0.0001: real time      0.0001
    CHARGE:  cpu time      0.1944: real time      0.1952
    MIXING:  cpu time      0.0167: real time      0.0168
    --------------------------------------------
      LOOP:  cpu time      1.1295: real time      1.1350

 eigenvalue-minimisations  :    64
 total energy-change (2. order) :-0.1010146E-01  (-0.1842274E-03)
 number of electron      22.0000000 magnetization 
 augmentation part        0.4916138 magnetization 

 Broyden mixing:
  rms(total) = 0.30753E-02    rms(broyden)= 0.30751E-02
  rms(prec ) = 0.59405E-02
  weight for this iteration     100.00

 eigenvalues of (default mixing * dielectric matrix)
  average eigenvalue GAMMA=   2.0534
  5.2874  2.8494  2.1514  1.7091  1.4231  1.0050  1.0010  1.0010

 Free energy of the ion-electron system (eV)
  ---------------------------------------------------
  alpha Z        PSCENC =         0.62641250
  Ewald energy   TEWEN  =       878.39137249
  -Hartree energ DENC   =     -1409.40630762
  -exchange      EXHF   =         0.00000000
  -V(xc)+E(xc)   XCENC  =        72.66120742
  PAW double counting   =       296.92626234     -302.23698869
  entropy T*S    EENTRO =        -0.00000000
  eigenvalues    EBANDS =      -257.04526093
  atomic energy  EATOM  =       663.51739852
  Solvation  Ediel_sol  =         0.00000000
  ---------------------------------------------------
  free energy    TOTEN  =       -56.56590397 eV

  energy without entropy =      -56.56590397  energy(sigma->0) =      -56.56590397


--------------------------------------------------------------------------------------------------------




--------------------------------------- Iteration      1(  14)  ---------------------------------------


    POTLOK:  cpu time      0.3159: real time      0.3175
    SETDIJ:  cpu time      0.1936: real time      0.1945
     EDDAV:  cpu time      0.4112: real time      0.4134
       DOS:  cpu time      0.0001: real time      0.0001
    CHARGE:  cpu time      0.1950: real time      0.1958
    MIXING:  cpu time      0.0171: real time      0.0172
    --------------------------------------------
      LOOP:  cpu time      1.1330: real time      1.1385

 eigenvalue-minimisations  :    64
 total energy-change (2. order) :-0.5962073E-02  (-0.9493499E-04)
 number of electron      22.0000000 magnetization 
 augmentation part        0.4916351 magnetization 

 Broyden mixing:
  rms(total) = 0.19546E-02    rms(broyden)= 0.19544E-02
  rms(prec ) = 0.34047E-02
  weight for this iteration     100.00

 eigenvalues of (default mixing * dielectric matrix)
  average eigenvalue GAMMA=   2.1803
  6.1811  3.5060  2.4599  1.8513  1.3446  1.3446  0.9842  0.9754  0.9754

 Free energy of the ion-electron system (eV)
  ---------------------------------------------------
  alpha Z        PSCENC =         0.62641250
  Ewald energy   TEWEN  =       878.39137249
  -Hartree energ DENC   =     -1409.46705270
  -exchange      EXHF   =         0.00000000
  -V(xc)+E(xc)   XCENC  =        72.64280108
  PAW double counting   =       296.74938823     -302.05973466
  entropy T*S    EENTRO =        -0.00000000
  eigenvalues    EBANDS =      -256.97245150
  atomic energy  EATOM  =       663.51739852
  Solvation  Ediel_sol  =         0.00000000
  ---------------------------------------------------
  free energy    TOTEN  =       -56.57186604 eV

  energy without entropy =      -56.57186604  energy(sigma->0) =      -56.57186604


--------------------------------------------------------------------------------------------------------




--------------------------------------- Iteration      1(  15)  ---------------------------------------


    POTLOK:  cpu time      0.3120: real time      0.3137
    SETDIJ:  cpu time      0.1922: real time      0.1930
     EDDAV:  cpu time      0.4521: real time      0.4546
       DOS:  cpu time      0.0001: real time      0.0001
    CHARGE:  cpu time      0.1925: real time      0.1933
    MIXING:  cpu time      0.0172: real time      0.0173
    --------------------------------------------
      LOOP:  cpu time      1.1661: real time      1.1719

 eigenvalue-minimisations  :    72
 total energy-change (2. order) :-0.2995643E-02  (-0.4436306E-04)
 number of electron      22.0000000 magnetization 
 augmentation part        0.4916075 magnetization 

 Broyden mixing:
  rms(total) = 0.17422E-02    rms(broyden)= 0.17421E-02
  rms(prec ) = 0.24013E-02
  weight for this iteration     100.00

 eigenvalues of (default mixing * dielectric matrix)
  average eigenvalue GAMMA=   2.1935
  6.6899  3.9267  2.4251  1.7893  1.7893  1.4258  0.9853  0.9853  1.0433  0.8748

 Free energy of the ion-electron system (eV)
  ---------------------------------------------------
  alpha Z        PSCENC =         0.62641250
  Ewald energy   TEWEN  =       878.39137249
  -Hartree energ DENC   =     -1409.52343866
  -exchange      EXHF   =         0.00000000
  -V(xc)+E(xc)   XCENC  =        72.63898876
  PAW double counting   =       296.83755442     -302.14706548
  entropy T*S    EENTRO =        -0.00000000
  eigenvalues    EBANDS =      -256.91608424
  atomic energy  EATOM  =       663.51739852
  Solvation  Ediel_sol  =         0.00000000
  ---------------------------------------------------
  free energy    TOTEN  =       -56.57486168 eV

  energy without entropy =      -56.57486168  energy(sigma->0) =      -56.57486168


--------------------------------------------------------------------------------------------------------




--------------------------------------- Iteration      1(  16)  ---------------------------------------


    POTLOK:  cpu time      0.3109: real time      0.3126
    SETDIJ:  cpu time      0.1918: real time      0.1926
     EDDAV:  cpu time      0.4907: real time      0.4933
       DOS:  cpu time      0.0002: real time      0.0002
    CHARGE:  cpu time      0.1919: real time      0.1926
    MIXING:  cpu time      0.0182: real time      0.0182
    --------------------------------------------
      LOOP:  cpu time      1.2036: real time      1.2094

 eigenvalue-minimisations  :    80
 total energy-change (2. order) :-0.9267133E-03  (-0.1083151E-04)
 number of electron      22.0000000 magnetization 
 augmentation part        0.4914787 magnetization 

 Broyden mixing:
  rms(total) = 0.62819E-03    rms(broyden)= 0.62786E-03
  rms(prec ) = 0.11358E-02
  weight for this iteration     100.00

 eigenvalues of (default mixing * dielectric matrix)
  average eigenvalue GAMMA=   2.2589
  7.6413  4.3462  2.4453  2.4453  1.6064  1.3380  0.9787  0.9787  0.9334  1.0671
  1.0671

 Free energy of the ion-electron system (eV)
  ---------------------------------------------------
  alpha Z        PSCENC =         0.62641250
  Ewald energy   TEWEN  =       878.39137249
  -Hartree energ DENC   =     -1409.64456125
  -exchange      EXHF   =         0.00000000
  -V(xc)+E(xc)   XCENC  =        72.64027114
  PAW double counting   =       296.87886927     -302.18940699
  entropy T*S    EENTRO =        -0.00000000
  eigenvalues    EBANDS =      -256.79614408
  atomic energy  EATOM  =       663.51739852
  Solvation  Ediel_sol  =         0.00000000
  ---------------------------------------------------
  free energy    TOTEN  =       -56.57578840 eV

  energy without entropy =      -56.57578840  energy(sigma->0) =      -56.57578840


--------------------------------------------------------------------------------------------------------




--------------------------------------- Iteration      1(  17)  ---------------------------------------


    POTLOK:  cpu time      0.3078: real time      0.3094
    SETDIJ:  cpu time      0.1937: real time      0.1945
     EDDAV:  cpu time      0.3697: real time      0.3717
       DOS:  cpu time      0.0001: real time      0.0001
    CHARGE:  cpu time      0.1938: real time      0.1945
    MIXING:  cpu time      0.0181: real time      0.0182
    --------------------------------------------
      LOOP:  cpu time      1.0832: real time      1.0884

 eigenvalue-minimisations  :    56
 total energy-change (2. order) :-0.6305194E-03  (-0.4790732E-05)
 number of electron      22.0000000 magnetization 
 augmentation part        0.4914897 magnetization 

 Broyden mixing:
  rms(total) = 0.50006E-03    rms(broyden)= 0.50003E-03
  rms(prec ) = 0.75601E-03
  weight for this iteration     100.00

 eigenvalues of (default mixing * dielectric matrix)
  average eigenvalue GAMMA=   2.3011
  7.9989  4.8262  2.6513  2.3692  1.8654  1.5856  1.3402  0.9900  0.9900  1.0542
  1.0542  0.8881

 Free energy of the ion-electron system (eV)
  ---------------------------------------------------
  alpha Z        PSCENC =         0.62641250
  Ewald energy   TEWEN  =       878.39137249
  -Hartree energ DENC   =     -1409.61915784
  -exchange      EXHF   =         0.00000000
  -V(xc)+E(xc)   XCENC  =        72.63791955
  PAW double counting   =       296.84300877     -302.15335041
  entropy T*S    EENTRO =        -0.00000000
  eigenvalues    EBANDS =      -256.82002250
  atomic energy  EATOM  =       663.51739852
  Solvation  Ediel_sol  =         0.00000000
  ---------------------------------------------------
  free energy    TOTEN  =       -56.57641892 eV

  energy without entropy =      -56.57641892  energy(sigma->0) =      -56.57641892


--------------------------------------------------------------------------------------------------------




--------------------------------------- Iteration      1(  18)  ---------------------------------------


    POTLOK:  cpu time      0.3066: real time      0.3083
    SETDIJ:  cpu time      0.1922: real time      0.1930
     EDDAV:  cpu time      0.4488: real time      0.4512
       DOS:  cpu time      0.0001: real time      0.0001
    CHARGE:  cpu time      0.1928: real time      0.1936
    MIXING:  cpu time      0.0197: real time      0.0198
    --------------------------------------------
      LOOP:  cpu time      1.1603: real time      1.1660

 eigenvalue-minimisations  :    72
 total energy-change (2. order) :-0.3052504E-03  (-0.1826928E-05)
 number of electron      22.0000000 magnetization 
 augmentation part        0.4914986 magnetization 

 Broyden mixing:
  rms(total) = 0.17756E-03    rms(broyden)= 0.17747E-03
  rms(prec ) = 0.33990E-03
  weight for this iteration     100.00

 eigenvalues of (default mixing * dielectric matrix)
  average eigenvalue GAMMA=   2.3146
  8.4325  5.1641  3.0820  2.4368  2.1129  1.4912  1.3760  0.9971  0.9971  1.0763
  1.0763  0.9015  0.9468

 Free energy of the ion-electron system (eV)
  ---------------------------------------------------
  alpha Z        PSCENC =         0.62641250
  Ewald energy   TEWEN  =       878.39137249
  -Hartree energ DENC   =     -1409.62154128
  -exchange      EXHF   =         0.00000000
  -V(xc)+E(xc)   XCENC  =        72.63791840
  PAW double counting   =       296.83783943     -302.14803463
  entropy T*S    EENTRO =        -0.00000000
  eigenvalues    EBANDS =      -256.81808959
  atomic energy  EATOM  =       663.51739852
  Solvation  Ediel_sol  =         0.00000000
  ---------------------------------------------------
  free energy    TOTEN  =       -56.57672417 eV

  energy without entropy =      -56.57672417  energy(sigma->0) =      -56.57672417


--------------------------------------------------------------------------------------------------------




--------------------------------------- Iteration      1(  19)  ---------------------------------------


    POTLOK:  cpu time      0.2994: real time      0.3010
    SETDIJ:  cpu time      0.1908: real time      0.1917
     EDDAV:  cpu time      0.4522: real time      0.4547
       DOS:  cpu time      0.0001: real time      0.0001
    CHARGE:  cpu time      0.1941: real time      0.1948
    MIXING:  cpu time      0.0167: real time      0.0167
    --------------------------------------------
      LOOP:  cpu time      1.1532: real time      1.1590

 eigenvalue-minimisations  :    72
 total energy-change (2. order) :-0.1065114E-03  (-0.3583313E-06)
 number of electron      22.0000000 magnetization 
 augmentation part        0.4914980 magnetization 

 Broyden mixing:
  rms(total) = 0.11298E-03    rms(broyden)= 0.11292E-03
  rms(prec ) = 0.21137E-03
  weight for this iteration     100.00

 eigenvalues of (default mixing * dielectric matrix)
  average eigenvalue GAMMA=   2.3605
  8.6560  5.4144  3.4818  2.4139  2.3083  1.8685  1.5013  0.9932  0.9932  1.2478
  1.2478  0.9817  0.9817  0.9580

 Free energy of the ion-electron system (eV)
  ---------------------------------------------------
  alpha Z        PSCENC =         0.62641250
  Ewald energy   TEWEN  =       878.39137249
  -Hartree energ DENC   =     -1409.62830689
  -exchange      EXHF   =         0.00000000
  -V(xc)+E(xc)   XCENC  =        72.63792143
  PAW double counting   =       296.83126585     -302.14145878
  entropy T*S    EENTRO =        -0.00000000
  eigenvalues    EBANDS =      -256.81143580
  atomic energy  EATOM  =       663.51739852
  Solvation  Ediel_sol  =         0.00000000
  ---------------------------------------------------
  free energy    TOTEN  =       -56.57683068 eV

  energy without entropy =      -56.57683068  energy(sigma->0) =      -56.57683068


--------------------------------------------------------------------------------------------------------




--------------------------------------- Iteration      1(  20)  ---------------------------------------


    POTLOK:  cpu time      0.3035: real time      0.3052
    SETDIJ:  cpu time      0.1918: real time      0.1926
     EDDAV:  cpu time      0.4113: real time      0.4135
       DOS:  cpu time      0.0001: real time      0.0001
    CHARGE:  cpu time      0.1947: real time      0.1955
    MIXING:  cpu time      0.0177: real time      0.0178
    --------------------------------------------
      LOOP:  cpu time      1.1192: real time      1.1247

 eigenvalue-minimisations  :    64
 total energy-change (2. order) :-0.6677724E-04  (-0.1527301E-06)
 number of electron      22.0000000 magnetization 
 augmentation part        0.4914996 magnetization 

 Broyden mixing:
  rms(total) = 0.70326E-04    rms(broyden)= 0.70253E-04
  rms(prec ) = 0.11217E-03
  weight for this iteration     100.00

 eigenvalues of (default mixing * dielectric matrix)
  average eigenvalue GAMMA=   2.3690
  8.8262  5.7517  3.9662  2.7080  2.3902  1.9300  1.4511  1.3328  1.1638  1.1638
  0.9910  0.9910  0.9823  0.9823  0.9040

 Free energy of the ion-electron system (eV)
  ---------------------------------------------------
  alpha Z        PSCENC =         0.62641250
  Ewald energy   TEWEN  =       878.39137249
  -Hartree energ DENC   =     -1409.63232538
  -exchange      EXHF   =         0.00000000
  -V(xc)+E(xc)   XCENC  =        72.63783771
  PAW double counting   =       296.83116645     -302.14136230
  entropy T*S    EENTRO =        -0.00000000
  eigenvalues    EBANDS =      -256.80739745
  atomic energy  EATOM  =       663.51739852
  Solvation  Ediel_sol  =         0.00000000
  ---------------------------------------------------
  free energy    TOTEN  =       -56.57689745 eV

  energy without entropy =      -56.57689745  energy(sigma->0) =      -56.57689745


--------------------------------------------------------------------------------------------------------




--------------------------------------- Iteration      1(  21)  ---------------------------------------


    POTLOK:  cpu time      0.3079: real time      0.3095
    SETDIJ:  cpu time      0.1903: real time      0.1910
     EDDAV:  cpu time      0.4092: real time      0.4114
       DOS:  cpu time      0.0001: real time      0.0001
    CHARGE:  cpu time      0.1930: real time      0.1938
    MIXING:  cpu time      0.0178: real time      0.0178
    --------------------------------------------
      LOOP:  cpu time      1.1182: real time      1.1236

 eigenvalue-minimisations  :    64
 total energy-change (2. order) :-0.1473194E-04  (-0.1757916E-07)
 number of electron      22.0000000 magnetization 
 augmentation part        0.4914991 magnetization 

 Broyden mixing:
  rms(total) = 0.48455E-04    rms(broyden)= 0.48359E-04
  rms(prec ) = 0.71574E-04
  weight for this iteration     100.00

 eigenvalues of (default mixing * dielectric matrix)
  average eigenvalue GAMMA=   2.4285
  9.0200  6.0027  4.4212  2.7621  2.5834  2.0397  2.0397  1.4510  1.3165  1.3165
  0.9919  0.9919  1.0230  1.0230  0.9709  0.9026

 Free energy of the ion-electron system (eV)
  ---------------------------------------------------
  alpha Z        PSCENC =         0.62641250
  Ewald energy   TEWEN  =       878.39137249
  -Hartree energ DENC   =     -1409.63570551
  -exchange      EXHF   =         0.00000000
  -V(xc)+E(xc)   XCENC  =        72.63785495
  PAW double counting   =       296.83240651     -302.14261696
  entropy T*S    EENTRO =        -0.00000000
  eigenvalues    EBANDS =      -256.80403469
  atomic energy  EATOM  =       663.51739852
  Solvation  Ediel_sol  =         0.00000000
  ---------------------------------------------------
  free energy    TOTEN  =       -56.57691219 eV

  energy without entropy =      -56.57691219  energy(sigma->0) =      -56.57691219


--------------------------------------------------------------------------------------------------------




--------------------------------------- Iteration      1(  22)  ---------------------------------------


    POTLOK:  cpu time      0.3116: real time      0.3132
    SETDIJ:  cpu time      0.1910: real time      0.1918
     EDDAV:  cpu time      0.3708: real time      0.3729
       DOS:  cpu time      0.0001: real time      0.0001
    CHARGE:  cpu time      0.1941: real time      0.1949
    MIXING:  cpu time      0.0177: real time      0.0178
    --------------------------------------------
      LOOP:  cpu time      1.0854: real time      1.0907

 eigenvalue-minimisations  :    56
 total energy-change (2. order) :-0.1079601E-04  (-0.2182147E-07)
 number of electron      22.0000000 magnetization 
 augmentation part        0.4914984 magnetization 

 Broyden mixing:
  rms(total) = 0.32323E-04    rms(broyden)= 0.32177E-04
  rms(prec ) = 0.43432E-04
  weight for this iteration     100.00

 eigenvalues of (default mixing * dielectric matrix)
  average eigenvalue GAMMA=   2.4267
  9.0407  6.3615  4.7139  3.2612  2.4992  2.2996  1.9026  1.3503  1.3503  1.4236
  0.9910  0.9910  1.1198  1.1198  0.9929  0.9184  0.9184

 Free energy of the ion-electron system (eV)
  ---------------------------------------------------
  alpha Z        PSCENC =         0.62641250
  Ewald energy   TEWEN  =       878.39137249
  -Hartree energ DENC   =     -1409.63715327
  -exchange      EXHF   =         0.00000000
  -V(xc)+E(xc)   XCENC  =        72.63785284
  PAW double counting   =       296.83433385     -302.14454875
  entropy T*S    EENTRO =        -0.00000000
  eigenvalues    EBANDS =      -256.80259117
  atomic energy  EATOM  =       663.51739852
  Solvation  Ediel_sol  =         0.00000000
  ---------------------------------------------------
  free energy    TOTEN  =       -56.57692298 eV

  energy without entropy =      -56.57692298  energy(sigma->0) =      -56.57692298


--------------------------------------------------------------------------------------------------------




--------------------------------------- Iteration      1(  23)  ---------------------------------------


    POTLOK:  cpu time      0.3092: real time      0.3108
    SETDIJ:  cpu time      0.1885: real time      0.1893
     EDDAV:  cpu time      0.4178: real time      0.4202
       DOS:  cpu time      0.0001: real time      0.0001
    CHARGE:  cpu time      0.1960: real time      0.1968
    MIXING:  cpu time      0.0181: real time      0.0182
    --------------------------------------------
      LOOP:  cpu time      1.1297: real time      1.1354

 eigenvalue-minimisations  :    64
 total energy-change (2. order) :-0.1902363E-05  (-0.4099835E-08)
 number of electron      22.0000000 magnetization 
 augmentation part        0.4914986 magnetization 

 Broyden mixing:
  rms(total) = 0.15623E-04    rms(broyden)= 0.15327E-04
  rms(prec ) = 0.21533E-04
  weight for this iteration     100.00

 eigenvalues of (default mixing * dielectric matrix)
  average eigenvalue GAMMA=   2.4359
  9.1287  6.5390  4.9088  3.3807  2.5303  2.5303  1.8554  1.8554  1.4020  1.4020
  1.3887  0.9917  0.9917  1.0470  1.0470  1.0102  0.9183  0.9183

 Free energy of the ion-electron system (eV)
  ---------------------------------------------------
  alpha Z        PSCENC =         0.62641250
  Ewald energy   TEWEN  =       878.39137249
  -Hartree energ DENC   =     -1409.63655080
  -exchange      EXHF   =         0.00000000
  -V(xc)+E(xc)   XCENC  =        72.63780861
  PAW double counting   =       296.83380313     -302.14401994
  entropy T*S    EENTRO =        -0.00000000
  eigenvalues    EBANDS =      -256.80314940
  atomic energy  EATOM  =       663.51739852
  Solvation  Ediel_sol  =         0.00000000
  ---------------------------------------------------
  free energy    TOTEN  =       -56.57692488 eV

  energy without entropy =      -56.57692488  energy(sigma->0) =      -56.57692488


--------------------------------------------------------------------------------------------------------




--------------------------------------- Iteration      1(  24)  ---------------------------------------


    POTLOK:  cpu time      0.3131: real time      0.3148
    SETDIJ:  cpu time      0.1879: real time      0.1887
     EDDAV:  cpu time      0.3662: real time      0.3682
       DOS:  cpu time      0.0001: real time      0.0001
    CHARGE:  cpu time      0.1937: real time      0.1945
    MIXING:  cpu time      0.0184: real time      0.0184
    --------------------------------------------
      LOOP:  cpu time      1.0794: real time      1.0847

 eigenvalue-minimisations  :    56
 total energy-change (2. order) :-0.1491040E-05  (-0.3624349E-08)
 number of electron      22.0000000 magnetization 
 augmentation part        0.4914986 magnetization 

 Broyden mixing:
  rms(total) = 0.10026E-04    rms(broyden)= 0.95593E-05
  rms(prec ) = 0.13681E-04
  weight for this iteration     100.00

 eigenvalues of (default mixing * dielectric matrix)
  average eigenvalue GAMMA=   2.4246
  9.1157  6.8340  5.1034  3.7180  2.7073  2.4799  1.9885  1.9885  1.3889  1.3889
  1.4046  0.9916  0.9916  1.1083  1.1083  0.9813  0.9450  0.9450  0.8794

 Free energy of the ion-electron system (eV)
  ---------------------------------------------------
  alpha Z        PSCENC =         0.62641250
  Ewald energy   TEWEN  =       878.39137249
  -Hartree energ DENC   =     -1409.63691201
  -exchange      EXHF   =         0.00000000
  -V(xc)+E(xc)   XCENC  =        72.63781660
  PAW double counting   =       296.83321564     -302.14342888
  entropy T*S    EENTRO =        -0.00000000
  eigenvalues    EBANDS =      -256.80280125
  atomic energy  EATOM  =       663.51739852
  Solvation  Ediel_sol  =         0.00000000
  ---------------------------------------------------
  free energy    TOTEN  =       -56.57692638 eV

  energy without entropy =      -56.57692638  energy(sigma->0) =      -56.57692638


--------------------------------------------------------------------------------------------------------




--------------------------------------- Iteration      1(  25)  ---------------------------------------


    POTLOK:  cpu time      0.3155: real time      0.3171
    SETDIJ:  cpu time      0.1880: real time      0.1888
     EDDAV:  cpu time      0.4094: real time      0.4116
       DOS:  cpu time      0.0002: real time      0.0002
    --------------------------------------------
      LOOP:  cpu time      0.9129: real time      0.9176

 eigenvalue-minimisations  :    64
 total energy-change (2. order) :-0.3985717E-06  (-0.6638192E-09)
 number of electron      22.0000000 magnetization 
 augmentation part        0.4914986 magnetization 

 Free energy of the ion-electron system (eV)
  ---------------------------------------------------
  alpha Z        PSCENC =         0.62641250
  Ewald energy   TEWEN  =       878.39137249
  -Hartree energ DENC   =     -1409.63731490
  -exchange      EXHF   =         0.00000000
  -V(xc)+E(xc)   XCENC  =        72.63783278
  PAW double counting   =       296.83339055     -302.14360227
  entropy T*S    EENTRO =        -0.00000000
  eigenvalues    EBANDS =      -256.80241645
  atomic energy  EATOM  =       663.51739852
  Solvation  Ediel_sol  =         0.00000000
  ---------------------------------------------------
  free energy    TOTEN  =       -56.57692677 eV

  energy without entropy =      -56.57692677  energy(sigma->0) =      -56.57692677


--------------------------------------------------------------------------------------------------------




 average (electrostatic) potential at core
  the test charge radii are     0.6991  0.5201
  (the norm of the test charge is              1.0000)
       1 -58.5697       2 -58.7970       3 -58.9388       4 -58.6115       5 -42.1467
       6 -41.6397       7 -41.8614       8 -41.7971       9 -41.8142      10 -41.8691
 
 
 
 E-fermi :  -5.4695     XC(G=0):  -0.4450     alpha+bet : -0.1681

 Fermi energy:        -5.4695313041

 k-point     1 :       0.0000    0.0000    0.0000
  band No.  band energies     occupation 
      1     -19.8996      2.00000
      2     -17.8023      2.00000
      3     -15.2404      2.00000
      4     -12.6778      2.00000
      5     -11.8542      2.00000
      6     -10.5180      2.00000
      7     -10.1933      2.00000
      8      -8.7583      2.00000
      9      -8.3373      2.00000
     10      -7.3978      2.00000
     11      -5.7222      2.00000
     12      -1.9509      0.00000
     13      -0.4858      0.00000
     14       0.0543      0.00000
     15       0.1023      0.00000
     16       0.2284      0.00000
     17       0.4029      0.00000
     18       0.4182      0.00000
     19       0.5506      0.00000
     20       0.7016      0.00000
     21       0.8902      0.00000
     22       0.9430      0.00000
     23       1.0041      0.00000
     24       1.0979      0.00000


--------------------------------------------------------------------------------------------------------


 soft charge-density along one line, spin component           1
         0         1         2         3         4         5         6         7         8         9
 total charge-density along one line
 
 pseudopotential strength for first ion, spin component:           1
 10.252   0.020   0.001  -0.000   0.000   0.002  -0.000   0.001
  0.020  -0.001  -0.000   0.000  -0.000   0.000   0.000   0.000
  0.001  -0.000  -4.365   0.004  -0.008  -0.016   0.001  -0.002
 -0.000   0.000   0.004  -4.369   0.001   0.001  -0.018   0.000
  0.000  -0.000  -0.008   0.001  -4.352  -0.002   0.000  -0.013
  0.002   0.000  -0.016   0.001  -0.002  -0.773   0.000  -0.000
 -0.000   0.000   0.001  -0.018   0.000   0.000  -0.773   0.000
  0.001   0.000  -0.002   0.000  -0.013  -0.000   0.000  -0.772
 total augmentation occupancy for first ion, spin component:           1
  1.485  -1.074  -0.041   0.007  -0.011  -0.025   0.011  -0.006
 -1.074   0.866   0.106  -0.057   0.028   0.044  -0.026   0.013
 -0.041   0.106   1.140  -0.045   0.121   0.183  -0.017   0.049
  0.007  -0.057  -0.045   1.212  -0.012  -0.017   0.208  -0.006
 -0.011   0.028   0.121  -0.012   0.962   0.049  -0.006   0.111
 -0.025   0.044   0.183  -0.017   0.049   0.033  -0.005   0.012
  0.011  -0.026  -0.017   0.208  -0.006  -0.005   0.037  -0.002
 -0.006   0.013   0.049  -0.006   0.111   0.012  -0.002   0.014


------------------------ aborting loop because EDIFF is reached ----------------------------------------


    CHARGE:  cpu time      0.1941: real time      0.1949
    FORLOC:  cpu time      0.0359: real time      0.0360
    FORNL :  cpu time      1.0713: real time      1.0763
    STRESS:  cpu time      3.3934: real time      3.4090
    FORHAR:  cpu time      0.1104: real time      0.1109
    MIXING:  cpu time      0.0123: real time      0.0123
    OFIELD:  cpu time      0.0001: real time      0.0001

  FORCE on cell =-STRESS in cart. coord.  units (eV):
  Direction    XX          YY          ZZ          XY          YZ          ZX
  --------------------------------------------------------------------------------------
  Alpha Z     0.62641     0.62641     0.62641
  Ewald    -112.10187   300.59435   689.89860    10.09216   -24.73844  -113.80266
  Hartree   244.05207   440.42536   725.16000     6.59771   -15.38778   -82.21458
  E(xc)     -77.38699   -75.87332   -75.47705     0.00129    -0.04032    -0.09065
  Local    -351.07038  -933.07102 -1600.31061   -16.22949    39.12457   196.36848
  n-local   -28.44412   -30.42907   -30.60451    -0.10060    -0.13194    -0.12177
  augment    -0.54982    -0.67782    -0.70966    -0.00558     0.00706    -0.00500
  Kinetic   323.67015   294.12857   292.42759     0.70224     1.04037    -0.11909
  Fock        0.00000     0.00000     0.00000     0.00000     0.00000     0.00000
  -------------------------------------------------------------------------------------
  Total      -1.20456    -4.27653     1.01077     1.05772    -0.12650     0.01473
  in kB      -0.57183    -2.03015     0.47983     0.50212    -0.06005     0.00699
  external pressure =       -0.71 kB  Pullay stress =        0.00 kB


 VOLUME and BASIS-vectors are now :
 -----------------------------------------------------------------------------
  energy-cutoff  :      520.00
  volume of cell :     3375.00
      direct lattice vectors                 reciprocal lattice vectors
    15.000000000  0.000000000  0.000000000     0.066666667  0.000000000  0.000000000
     0.000000000 15.000000000  0.000000000     0.000000000  0.066666667  0.000000000
     0.000000000  0.000000000 15.000000000     0.000000000  0.000000000  0.066666667

  length of vectors
    15.000000000 15.000000000 15.000000000     0.066666667  0.066666667  0.066666667


 FORCES acting on ions
    electron-ion (+dipol)            ewald-force                    non-local-force                 convergence-correction
 -----------------------------------------------------------------------------------------------
   -.401E+02 -.915E+02 0.108E+03   0.408E+02 0.927E+02 -.108E+03   -.156E+00 -.609E+00 0.126E+01   -.807E-05 -.214E-04 0.361E-04
   0.288E+02 0.722E+02 0.557E+02   -.289E+02 -.720E+02 -.573E+02   0.204E+00 -.888E+00 -.376E+00   -.729E-05 -.189E-04 0.492E-04
   -.217E+02 0.882E+02 -.529E+02   0.215E+02 -.878E+02 0.552E+02   0.715E-01 0.330E+00 0.295E+00   0.824E-05 0.197E-04 -.868E-06
   0.307E+02 -.845E+02 -.111E+03   -.306E+02 0.851E+02 0.111E+03   -.548E+00 -.169E+01 -.559E+00   0.202E-04 -.136E-04 -.391E-04
   -.241E+01 -.288E+01 0.677E+02   0.222E+01 0.239E+01 -.742E+02   0.147E+00 0.564E+00 0.597E+01   -.808E-06 -.301E-05 -.608E-06
   -.317E+02 -.550E+02 -.659E+01   0.335E+02 0.585E+02 0.824E+01   -.237E+01 -.413E+01 -.217E+01   0.498E-06 0.206E-05 0.807E-05
   0.196E+02 0.585E+02 0.361E+02   -.212E+02 -.629E+02 -.387E+02   0.149E+01 0.455E+01 0.266E+01   0.790E-07 0.429E-06 0.505E-05
   -.180E+02 0.605E+02 -.285E+02   0.192E+02 -.637E+02 0.299E+02   -.134E+01 0.441E+01 -.201E+01   -.113E-05 0.114E-04 -.943E-05
   0.348E+02 -.533E+02 -.312E+01   -.367E+02 0.568E+02 0.201E+01   0.284E+01 -.424E+01 0.116E+01   0.857E-05 -.103E-04 -.168E-05
   0.331E-01 0.789E+01 -.664E+02   0.248E+00 -.915E+01 0.720E+02   -.367E+00 0.165E+01 -.546E+01   0.569E-06 0.298E-05 -.169E-04
 -----------------------------------------------------------------------------------------------
   0.276E-01 0.449E-01 -.791E+00   -.118E-13 -.284E-13 -.142E-13   -.259E-01 -.530E-01 0.779E+00   0.208E-04 -.306E-04 0.299E-04
 
 
 POSITION                                       TOTAL-FORCE (eV/Angst)
 -----------------------------------------------------------------------------------
      7.92300      8.01700      5.95900         0.525435      0.643562      1.537700
      7.48900      7.01800      6.75700         0.061515     -0.646000     -2.024389
      7.49100      6.89700      8.16600        -0.137041      0.720501      2.609879
      7.10700      7.87500      9.06200        -0.392453     -1.117432     -0.794293
      7.89500      7.91900      4.88900        -0.042046      0.069871     -0.470575
      8.42600      8.91400      6.41500        -0.560806     -0.645912     -0.518593
      7.18400      6.09600      6.22900        -0.083636      0.168726      0.055430
      7.80100      5.89200      8.60900        -0.226444      1.169136     -0.562275
      6.51300      8.79600      8.80500         0.941250     -0.758283      0.050246
      7.17200      7.57600     10.11000        -0.085775      0.395830      0.116871
 -----------------------------------------------------------------------------------
    total drift:                                0.001651     -0.008077     -0.011836


--------------------------------------------------------------------------------------------------------



  FREE ENERGIE OF THE ION-ELECTRON SYSTEM (eV)
  ---------------------------------------------------
  free  energy   TOTEN  =       -56.57692677 eV

  energy  without entropy=      -56.57692677  energy(sigma->0) =      -56.57692677
 


--------------------------------------------------------------------------------------------------------


    POTLOK:  cpu time      0.5089: real time      0.5113


--------------------------------------------------------------------------------------------------------


 stress matrix after NEB project (eV)
     -1.20456      1.05773      0.01473
      1.05772     -4.27653     -0.12650
      0.01473     -0.12650      1.01077
  FORCES: max atom, RMS     2.710972    1.469684
  FORCE total and by dimension    4.647550    2.609879
  Stress total and by dimension    4.799099    4.276534
     LOOP+:  cpu time     30.7261: real time     30.8768
    4ORBIT:  cpu time      0.0000: real time      0.0000

 total amount of memory used by VASP MPI-rank0   224786. kBytes
=======================================================================

   base      :      30000. kBytes
   nonlr-proj:       1262. kBytes
   fftplans  :     123538. kBytes
   grid      :      67787. kBytes
   one-center:         15. kBytes
   wavefun   :       2184. kBytes
 
  
  
 General timing and accounting informations for this job:
 ========================================================
  
                  Total CPU time used (sec):       37.342
                            User time (sec):       34.148
                          System time (sec):        3.195
                         Elapsed time (sec):       38.373
  
                   Maximum memory used (kb):      560508.
                   Average memory used (kb):          N/A
  
                          Minor page faults:       170101
                          Major page faults:         5451
                 Voluntary context switches:         3115
