 vasp.6.4.2 20Jul23 (build Apr 10 2024 13:39:58) complex                        
  
 executed on             LinuxIFC date 2024.05.18  20:34:40
 running   16 mpi-ranks, on    1 nodes
 distrk:  each k-point on   16 cores,    1 groups
 distr:  one band on NCORE=   2 cores,    8 groups


--------------------------------------------------------------------------------------------------------


 INCAR:
   ISTART = 0
   ISPIN = 1
   LREAL = Auto
   ENCUT = 520
   NPAR = 8
   LPLANE = .TRUE.
   LSCALU = .FALSE.
   NSIM = 4
   LWAVE = .FALSE.
   LCHARG = .FALSE.
   ADDGRID = .TRUE.
   LASPH = .TRUE.
   PREC = Accurate
   ISMEAR = 0
   SIGMA = 0.05
   EDIFF = 1E-06
   NSW = 0
   TEBEG = 300
   TEEND = 700     	
   ISYM = 0
   NWRITE = 2

 POTCAR:   PAW_PBE C 08Apr2002                    
 POTCAR:   PAW_PBE H 15Jun2001                    
 POTCAR:   PAW_PBE C 08Apr2002                    
   VRHFIN =C: s2p2                                                                                  
   LEXCH  = PE                                                                                      
   EATOM  =   147.1560 eV,   10.8157 Ry                                                             
                                                                                                    
   TITEL  = PAW_PBE C 08Apr2002                                                                     
   LULTRA =        F    use ultrasoft PP ?                                                          
   IUNSCR =        0    unscreen: 0-lin 1-nonlin 2-no                                               
   RPACOR =     .000    partial core radius                                                         
   POMASS =   12.011; ZVAL   =    4.000    mass and valenz                                          
   RCORE  =    1.500    outmost cutoff radius                                                       
   RWIGS  =    1.630; RWIGS  =     .863    wigner-seitz radius (au A)                               
   ENMAX  =  400.000; ENMIN  =  300.000 eV                                                          
   ICORE  =        2    local potential                                                             
   LCOR   =        T    correct aug charges                                                         
   LPAW   =        T    paw PP                                                                      
   EAUG   =  644.873                                                                                
   DEXC   =     .000                                                                                
   RMAX   =    2.266    core radius for proj-oper                                                   
   RAUG   =    1.300    factor for augmentation sphere                                              
   RDEP   =    1.501    radius for radial grids                                                     
   RDEPT  =    1.300    core radius for aug-charge                                                  
   QCUT   =   -5.516; QGAM   =   11.032    optimization parameters                                  
                                                                                                    
   Description                                                                                      
     l     E      TYP  RCUT    TYP  RCUT                                                            
     0   .000     23  1.200                                                                         
     0   .000     23  1.200                                                                         
     1   .000     23  1.500                                                                         
     1  2.500     23  1.500                                                                         
     2   .000      7  1.500                                                                         
  local pseudopotential read in
  atomic valenz-charges read in
  non local Contribution for L=           0  read in
    real space projection operators read in
  non local Contribution for L=           0  read in
    real space projection operators read in
  non local Contribution for L=           1  read in
    real space projection operators read in
  non local Contribution for L=           1  read in
    real space projection operators read in
    PAW grid and wavefunctions read in
 
   number of l-projection  operators is LMAX  =           4
   number of lm-projection operators is LMMAX =           8
 
 POTCAR:   PAW_PBE H 15Jun2001                    
   VRHFIN =H: ultrasoft test                                                                        
   LEXCH  = PE                                                                                      
   EATOM  =    12.4884 eV,     .9179 Ry                                                             
                                                                                                    
   TITEL  = PAW_PBE H 15Jun2001                                                                     
   LULTRA =        F    use ultrasoft PP ?                                                          
   IUNSCR =        0    unscreen: 0-lin 1-nonlin 2-no                                               
   RPACOR =     .000    partial core radius                                                         
   POMASS =    1.000; ZVAL   =    1.000    mass and valenz                                          
   RCORE  =    1.100    outmost cutoff radius                                                       
   RWIGS  =     .700; RWIGS  =     .370    wigner-seitz radius (au A)                               
   ENMAX  =  250.000; ENMIN  =  200.000 eV                                                          
   RCLOC  =     .701    cutoff for local pot                                                        
   LCOR   =        T    correct aug charges                                                         
   LPAW   =        T    paw PP                                                                      
   EAUG   =  400.000                                                                                
   RMAX   =    2.174    core radius for proj-oper                                                   
   RAUG   =    1.200    factor for augmentation sphere                                              
   RDEP   =    1.112    radius for radial grids                                                     
   QCUT   =   -5.749; QGAM   =   11.498    optimization parameters                                  
                                                                                                    
   Description                                                                                      
     l     E      TYP  RCUT    TYP  RCUT                                                            
     0   .000     23  1.100                                                                         
     0   .500     23  1.100                                                                         
     1  -.300     23  1.100                                                                         
  local pseudopotential read in
  atomic valenz-charges read in
  non local Contribution for L=           0  read in
    real space projection operators read in
  non local Contribution for L=           0  read in
    real space projection operators read in
  non local Contribution for L=           1  read in
    real space projection operators read in
    PAW grid and wavefunctions read in
 
   number of l-projection  operators is LMAX  =           3
   number of lm-projection operators is LMMAX =           5
 
 Optimization of the real space projectors (new method)

 maximal supplied QI-value         = 25.13
 optimisation between [QCUT,QGAM] = [ 11.56, 23.12] = [ 37.43,149.72] Ry 
 Optimized for a Real-space Cutoff    1.04 Angstroem

   l    n(q)    QCUT    max X(q) W(low)/X(q) W(high)/X(q)  e(spline) 
   0      7    11.561     5.582    0.47E-04    0.94E-04    0.17E-07
   0      7    11.561    69.432    0.20E-03    0.59E-03    0.21E-06
   1      7    11.561     2.780    0.24E-04    0.70E-04    0.44E-07
   1      7    11.561     4.549    0.18E-03    0.25E-03    0.12E-06
 Optimization of the real space projectors (new method)

 maximal supplied QI-value         = 34.20
 optimisation between [QCUT,QGAM] = [ 11.63, 23.26] = [ 37.87,151.49] Ry 
 Optimized for a Real-space Cutoff    1.21 Angstroem

   l    n(q)    QCUT    max X(q) W(low)/X(q) W(high)/X(q)  e(spline) 
   0      8    11.629     4.436    0.19E-04    0.32E-04    0.47E-07
   0      8    11.629    16.131    0.16E-03    0.33E-03    0.21E-06
   1      8    11.629     4.654    0.18E-03    0.16E-03    0.26E-06
 PAW_PBE C 08Apr2002                    :
 energy of atom  1       EATOM= -147.1560
 kinetic energy error for atom=    0.0071 (will be added to EATOM!!)
 PAW_PBE H 15Jun2001                    :
 energy of atom  2       EATOM=  -12.4884
 kinetic energy error for atom=    0.0014 (will be added to EATOM!!)
 
 
 POSCAR:  C  H
  positions in cartesian coordinates
  No initial velocities read in
 exchange correlation table for  LEXCH =        8
   RHO(1)=    0.500       N(1)  =     2000
   RHO(2)=  100.500       N(2)  =     4000

 VTST: version 4.1, (05/19/21)

 CHAIN: initializing optimizer
 
 OPT: Using VASP Dynamics algorithm
 CHAIN: Read ICHAIN            0
 
 POSCAR:  C  H
  positions in cartesian coordinates
  No initial velocities read in
 


--------------------------------------------------------------------------------------------------------


 ion  position               nearest neighbor table
   1  0.509  0.540  0.454-   5 1.12   6 1.13   2 1.43   4 1.50   3 2.06
   2  0.505  0.444  0.451-   7 1.15   3 1.34   1 1.43   4 2.07
   3  0.492  0.434  0.539-   8 1.14   2 1.34   4 1.56   1 2.06
   4  0.494  0.537  0.552-   9 1.10  10 1.14   1 1.50   3 1.56   2 2.07
   5  0.574  0.571  0.433-   1 1.12
   6  0.458  0.578  0.414-   1 1.13
   7  0.511  0.394  0.394-   2 1.15
   8  0.484  0.375  0.586-   3 1.14
   9  0.545  0.564  0.598-   4 1.10
  10  0.427  0.564  0.578-   4 1.14
 

IMPORTANT INFORMATION: All symmetrisations will be switched off!
NOSYMM: (Re-)initialisation of all symmetry stuff for point group C_1.


----------------------------------------------------------------------------------------

                                     Primitive cell                                     

  volume of cell :    3375.0000

  direct lattice vectors                    reciprocal lattice vectors
    15.000000000  0.000000000  0.000000000     0.066666667  0.000000000  0.000000000
     0.000000000 15.000000000  0.000000000     0.000000000  0.066666667  0.000000000
     0.000000000  0.000000000 15.000000000     0.000000000  0.000000000  0.066666667

  length of vectors
    15.000000000 15.000000000 15.000000000     0.066666667  0.066666667  0.066666667

  position of ions in fractional coordinates (direct lattice)
     0.509399986  0.539533361  0.453733349
     0.504999987  0.444133345  0.451399994
     0.492400010  0.433799998  0.539200020
     0.493666681  0.537133344  0.552400017
     0.573733330  0.570999972  0.433466657
     0.458333333  0.577533340  0.413733323
     0.511266677  0.393866666  0.394266669
     0.484200001  0.374800014  0.586200015
     0.544799995  0.563866679  0.597800001
     0.427133338  0.564333344  0.577733358

  ion indices of the primitive-cell ions
   primitive index   ion index
                 1           1
                 2           2
                 3           3
                 4           4
                 5           5
                 6           6
                 7           7
                 8           8
                 9           9
                10          10

----------------------------------------------------------------------------------------

 
 
 KPOINTS: K-Spacing Value to Generate K-Mesh: 1.00

Automatic generation of k-mesh.
 Grid dimensions read from file:
 generate k-points for:    1    1    1

 Generating k-lattice:

  Cartesian coordinates                     Fractional coordinates (reciprocal lattice)
     0.066666667  0.000000000  0.000000000     1.000000000  0.000000000  0.000000000
     0.000000000  0.066666667  0.000000000     0.000000000  1.000000000  0.000000000
     0.000000000  0.000000000  0.066666667     0.000000000  0.000000000  1.000000000

  Length of vectors
     0.066666667  0.066666667  0.066666667

  Shift w.r.t. Gamma in fractional coordinates (k-lattice)
     0.000000000  0.000000000  0.000000000

 
 Subroutine IBZKPT returns following result:
 ===========================================
 
 Found      1 irreducible k-points:
 
 Following reciprocal coordinates:
            Coordinates               Weight
  0.000000  0.000000  0.000000      1.000000
 
 Following cartesian coordinates:
            Coordinates               Weight
  0.000000  0.000000  0.000000      1.000000
 


--------------------------------------------------------------------------------------------------------




 Dimension of arrays:
   k-points           NKPTS =      1   k-points in BZ     NKDIM =      1   number of bands    NBANDS=     24
   number of dos      NEDOS =    301   number of ions     NIONS =     10
   non local maximal  LDIM  =      4   non local SUM 2l+1 LMDIM =      8
   total plane-waves  NPLWV = ******
   max r-space proj   IRMAX =   3145   max aug-charges    IRDMAX=  39494
   dimension x,y,z NGX =   112 NGY =  112 NGZ =  112
   dimension x,y,z NGXF=   224 NGYF=  224 NGZF=  224
   support grid    NGXF=   448 NGYF=  448 NGZF=  448
   ions per type =               4   6
   NGX,Y,Z   is equivalent  to a cutoff of  12.41, 12.41, 12.41 a.u.
   NGXF,Y,Z  is equivalent  to a cutoff of  24.83, 24.83, 24.83 a.u.

 SYSTEM =  unknown system                          
 POSCAR =   C  H                                   

 Startparameter for this run:
   NWRITE =      2    write-flag & timer
   PREC   = accura    normal or accurate (medium, high low for compatibility)
   ISTART =      0    job   : 0-new  1-cont  2-samecut
   ICHARG =      2    charge: 1-file 2-atom 10-const
   ISPIN  =      1    spin polarized calculation?
   LNONCOLLINEAR =      F non collinear calculations
   LSORBIT =      F    spin-orbit coupling
   INIWAV =      1    electr: 0-lowe 1-rand  2-diag
   LASPH  =      T    aspherical Exc in radial PAW
 Electronic Relaxation 1
   ENCUT  =  520.0 eV  38.22 Ry    6.18 a.u.  27.89 27.89 27.89*2*pi/ulx,y,z
   ENINI  =  520.0     initial cutoff
   ENAUG  =  644.9 eV  augmentation charge cutoff
   NELM   =     60;   NELMIN=  2; NELMDL= -5     # of ELM steps 
   EDIFF  = 0.1E-05   stopping-criterion for ELM
   LREAL  =      T    real-space projection
   NLSPLINE    = F    spline interpolate recip. space projectors
   LCOMPAT=      F    compatible to vasp.4.4
   GGA_COMPAT  = T    GGA compatible to vasp.4.4-vasp.4.6
   LMAXPAW     = -100 max onsite density
   LMAXMIX     =    2 max onsite mixed and CHGCAR
   VOSKOWN=      0    Vosko Wilk Nusair interpolation
   ROPT   =   -0.00025  -0.00025
 Ionic relaxation
   EDIFFG = 0.1E-04   stopping-criterion for IOM
   NSW    =      0    number of steps for IOM
   NBLOCK =      1;   KBLOCK =      1    inner block; outer block 
   IBRION =     -1    ionic relax: 0-MD 1-quasi-New 2-CG
   NFREE  =      0    steps in history (QN), initial steepest desc. (CG)
   ISIF   =      2    stress and relaxation
   IWAVPR =     10    prediction:  0-non 1-charg 2-wave 3-comb
   ISYM   =      0    0-nonsym 1-usesym 2-fastsym
   LCORR  =      T    Harris-Foulkes like correction to forces

   POTIM  = 0.5000    time-step for ionic-motion
   TEIN   =    0.0    initial temperature
   TEBEG  =  300.0;   TEEND  = 700.0 temperature during run
   SMASS  =  -3.00    Nose mass-parameter (am)
   estimated Nose-frequenzy (Omega)   =  0.10E-29 period in steps = 0.13E+47 mass=  -0.514E-26a.u.
   SCALEE = 1.0000    scale energy and forces
   NPACO  =    256;   APACO  = 10.0  distance and # of slots for P.C.
   PSTRESS=    0.0 pullay stress

  Mass of Ions in am
   POMASS =  12.01  1.00
  Ionic Valenz
   ZVAL   =   4.00  1.00
  Atomic Wigner-Seitz radii
   RWIGS  =  -1.00 -1.00
  virtual crystal weights 
   VCA    =   1.00  1.00
   NELECT =      22.0000    total number of electrons
   NUPDOWN=      -1.0000    fix difference up-down

 DOS related values:
   EMIN   =  10.00;   EMAX   =-10.00  energy-range for DOS
   EFERMI =   0.00;   METHOD = LEGACY      
   ISMEAR =     0;   SIGMA  =   0.05  broadening in eV -4-tet -1-fermi 0-gaus

 Electronic relaxation 2 (details)
   IALGO  =     38    algorithm
   LDIAG  =      T    sub-space diagonalisation (order eigenvalues)
   LSUBROT=      F    optimize rotation matrix (better conditioning)
   TURBO    =      0    0=normal 1=particle mesh
   IRESTART =      0    0=no restart 2=restart with 2 vectors
   NREBOOT  =      0    no. of reboots
   NMIN     =      0    reboot dimension
   EREF     =   0.00    reference energy to select bands
   IMIX   =      4    mixing-type and parameters
     AMIX     =   0.40;   BMIX     =  1.00
     AMIX_MAG =   1.60;   BMIX_MAG =  1.00
     AMIN     =   0.10
     WC   =   100.;   INIMIX=   1;  MIXPRE=   1;  MAXMIX= -45

 Intra band minimization:
   WEIMIN = 0.0000     energy-eigenvalue tresh-hold
   EBREAK =  0.10E-07  absolut break condition
   DEPER  =   0.30     relativ break condition  

   TIME   =   0.40     timestep for ELM

  volume/ion in A,a.u.               =     337.50      2277.56
  Fermi-wavevector in a.u.,A,eV,Ry     =   0.305814  0.577905  1.272449  0.093522
  Thomas-Fermi vector in A             =   1.179187
 
 Write flags
   LWAVE        =      F    write WAVECAR
   LDOWNSAMPLE  =      F    k-point downsampling of WAVECAR
   LCHARG       =      F    write CHGCAR
   LVTOT        =      F    write LOCPOT, total local potential
   LVHAR        =      F    write LOCPOT, Hartree potential only
   LELF         =      F    write electronic localiz. function (ELF)
   LORBIT       =      0    0 simple, 1 ext, 2 COOP (PROOUT), +10 PAW based schemes


 Dipole corrections
   LMONO  =      F    monopole corrections only (constant potential shift)
   LDIPOL =      F    correct potential (dipole corrections)
   IDIPOL =      0    1-x, 2-y, 3-z, 4-all directions 
   EPSILON=  1.0000000 bulk dielectric constant

 Exchange correlation treatment:
   GGA     =    --    GGA type
   LEXCH   =     8    internal setting for exchange type
   LIBXC   =     F    Libxc                    
   VOSKOWN =     0    Vosko Wilk Nusair interpolation
   LHFCALC =     F    Hartree Fock is set to
   LHFONE  =     F    Hartree Fock one center treatment
   AEXX    =    0.0000 exact exchange contribution

 Linear response parameters
   LEPSILON=     F    determine dielectric tensor
   LRPA    =     F    only Hartree local field effects (RPA)
   LNABLA  =     F    use nabla operator in PAW spheres
   LVEL    =     F    velocity operator in full k-point grid
   CSHIFT  =0.1000    complex shift for real part using Kramers Kronig
   OMEGAMAX=  -1.0    maximum frequency
   DEG_THRESHOLD= 0.2000000E-02 threshold for treating states as degnerate
   RTIME   =   -0.100 relaxation time in fs
  (WPLASMAI=    0.000 imaginary part of plasma frequency in eV, 0.658/RTIME)
   DFIELD  = 0.0000000 0.0000000 0.0000000 field for delta impulse in time
 
  Optional k-point grid parameters
   LKPOINTS_OPT  =     F    use optional k-point grid
   KPOINTS_OPT_MODE=     1    mode for optional k-point grid
 
 Orbital magnetization related:
   ORBITALMAG=     F  switch on orbital magnetization
   LCHIMAG   =     F  perturbation theory with respect to B field
   DQ        =  0.001000  dq finite difference perturbation B field
   LLRAUG    =     F  two centre corrections for induced B field
   LBONE     =     F  B-component reconstruction in AE one-centre
   LVGVCALC  =     T  calculate vGv susceptibility
   LVGVAPPL  =     F  apply vGv susceptibility instead of pGv for G=0

 Random number generation:
   RANDOM_GENERATOR = DEFAULT
   PCG_SEED         = not used


--------------------------------------------------------------------------------------------------------


 Static calculation
 charge density and potential will be updated during run
 non-spin polarized calculation
 Variant of blocked Davidson
 Davidson routine will perform the subspace rotation
 perform sub-space diagonalisation
    after iterative eigenvector-optimisation
 modified Broyden-mixing scheme, WC =      100.0
 initial mixing is a Kerker type mixing with AMIX =  0.4000 and BMIX =      1.0000
 Hartree-type preconditioning will be used
 using additional bands           13
 real space projection scheme for non local part
 calculate Harris-corrections to forces 
   (improved forces if not selfconsistent)
 use gradient corrections 
 use of overlap-Matrix (Vanderbilt PP)
 Gauss-broadening in eV      SIGMA  =   0.05


--------------------------------------------------------------------------------------------------------


  energy-cutoff  :      520.00
  volume of cell :     3375.00
      direct lattice vectors                 reciprocal lattice vectors
    15.000000000  0.000000000  0.000000000     0.066666667  0.000000000  0.000000000
     0.000000000 15.000000000  0.000000000     0.000000000  0.066666667  0.000000000
     0.000000000  0.000000000 15.000000000     0.000000000  0.000000000  0.066666667

  length of vectors
    15.000000000 15.000000000 15.000000000     0.066666667  0.066666667  0.066666667


 
 k-points in units of 2pi/SCALE and weight: K-Spacing Value to Generate K-Mesh: 1.00
   0.00000000  0.00000000  0.00000000       1.000
 
 k-points in reciprocal lattice and weights: K-Spacing Value to Generate K-Mesh: 1.00
   0.00000000  0.00000000  0.00000000       1.000
 
 position of ions in fractional coordinates (direct lattice) 
   0.50939999  0.53953336  0.45373335
   0.50499999  0.44413335  0.45139999
   0.49240001  0.43380000  0.53920002
   0.49366668  0.53713334  0.55240002
   0.57373333  0.57099997  0.43346666
   0.45833333  0.57753334  0.41373332
   0.51126668  0.39386667  0.39426667
   0.48420000  0.37480001  0.58620001
   0.54480000  0.56386668  0.59780000
   0.42713334  0.56433334  0.57773336
 
 position of ions in cartesian coordinates  (Angst):
   7.64099979  8.09300041  6.80600023
   7.57499981  6.66200018  6.77099991
   7.38600016  6.50699997  8.08800030
   7.40500021  8.05700016  8.28600025
   8.60599995  8.56499958  6.50199986
   6.87500000  8.66300011  6.20599985
   7.66900015  5.90799999  5.91400003
   7.26300001  5.62200022  8.79300022
   8.17199993  8.45800018  8.96700001
   6.40700006  8.46500015  8.66600037
 


--------------------------------------------------------------------------------------------------------


 k-point   1 :   0.0000 0.0000 0.0000  plane waves:   90879

 maximum and minimum number of plane-waves per node :     45467    45412

 maximum number of plane-waves:     90879
 maximum index in each direction: 
   IXMAX=   27   IYMAX=   27   IZMAX=   27
   IXMIN=  -27   IYMIN=  -27   IZMIN=  -27


 real space projection operators:
  total allocation   :       1185.41 KBytes
  max/ min on nodes  :        593.92        591.49


 parallel 3D FFT for wavefunctions:
    minimum data exchange during FFTs selected (reduces bandwidth)
 parallel 3D FFT for charge:
    minimum data exchange during FFTs selected (reduces bandwidth)


 total amount of memory used by VASP MPI-rank0   224782. kBytes
=======================================================================

   base      :      30000. kBytes
   nonlr-proj:       1258. kBytes
   fftplans  :     123538. kBytes
   grid      :      67787. kBytes
   one-center:         15. kBytes
   wavefun   :       2184. kBytes
 
     INWAV:  cpu time      0.0000: real time      0.0000
 Broyden mixing: mesh for mixing (old mesh)
   NGX = 55   NGY = 55   NGZ = 55
  (NGX  =224   NGY  =224   NGZ  =224)
  gives a total of 166375 points

 initial charge density was supplied:
 charge density of overlapping atoms calculated
 number of electron      22.0000000 magnetization 
 keeping initial charge density in first step


--------------------------------------------------------------------------------------------------------


 Maximum index for non-local projection operator         1512
 Maximum index for augmentation-charges         2446 (set IRDMAX)


--------------------------------------------------------------------------------------------------------


 First call to EWALD:  gamma=   0.118
 Maximum number of real-space cells 3x 3x 3
 Maximum number of reciprocal cells 3x 3x 3

    FEWALD:  cpu time      0.0015: real time      0.0016


--------------------------------------- Ionic step        1  -------------------------------------------




--------------------------------------- Iteration      1(   1)  ---------------------------------------


    POTLOK:  cpu time      0.3322: real time      0.3341
    SETDIJ:  cpu time      0.1958: real time      0.1966
     EDDAV:  cpu time      0.4181: real time      0.4204
       DOS:  cpu time      0.0003: real time      0.0003
    --------------------------------------------
      LOOP:  cpu time      0.9463: real time      0.9514

 eigenvalue-minimisations  :    64
 total energy-change (2. order) : 0.1041798E+03  (-0.5329027E+03)
 number of electron      22.0000000 magnetization 
 augmentation part       22.0000000 magnetization 

 Free energy of the ion-electron system (eV)
  ---------------------------------------------------
  alpha Z        PSCENC =         0.62641250
  Ewald energy   TEWEN  =      1008.91829129
  -Hartree energ DENC   =     -1430.59646444
  -exchange      EXHF   =         0.00000000
  -V(xc)+E(xc)   XCENC  =        68.03367445
  PAW double counting   =       156.01372664     -160.66969168
  entropy T*S    EENTRO =        -0.01098511
  eigenvalues    EBANDS =      -201.65251406
  atomic energy  EATOM  =       663.51739852
  Solvation  Ediel_sol  =         0.00000000
  ---------------------------------------------------
  free energy    TOTEN  =       104.17984813 eV

  energy without entropy =      104.19083323  energy(sigma->0) =      104.18534068


--------------------------------------------------------------------------------------------------------




--------------------------------------- Iteration      1(   2)  ---------------------------------------


     EDDAV:  cpu time      0.4836: real time      0.4863
       DOS:  cpu time      0.0001: real time      0.0001
    --------------------------------------------
      LOOP:  cpu time      0.4837: real time      0.4865

 eigenvalue-minimisations  :    80
 total energy-change (2. order) :-0.1184670E+03  (-0.1145998E+03)
 number of electron      22.0000000 magnetization 
 augmentation part       22.0000000 magnetization 

 Free energy of the ion-electron system (eV)
  ---------------------------------------------------
  alpha Z        PSCENC =         0.62641250
  Ewald energy   TEWEN  =      1008.91829129
  -Hartree energ DENC   =     -1430.59646444
  -exchange      EXHF   =         0.00000000
  -V(xc)+E(xc)   XCENC  =        68.03367445
  PAW double counting   =       156.01372664     -160.66969168
  entropy T*S    EENTRO =        -0.00000000
  eigenvalues    EBANDS =      -320.13053678
  atomic energy  EATOM  =       663.51739852
  Solvation  Ediel_sol  =         0.00000000
  ---------------------------------------------------
  free energy    TOTEN  =       -14.28718949 eV

  energy without entropy =      -14.28718949  energy(sigma->0) =      -14.28718949


--------------------------------------------------------------------------------------------------------




--------------------------------------- Iteration      1(   3)  ---------------------------------------


     EDDAV:  cpu time      0.4034: real time      0.4057
       DOS:  cpu time      0.0001: real time      0.0001
    --------------------------------------------
      LOOP:  cpu time      0.4036: real time      0.4059

 eigenvalue-minimisations  :    64
 total energy-change (2. order) :-0.4347332E+02  (-0.4332931E+02)
 number of electron      22.0000000 magnetization 
 augmentation part       22.0000000 magnetization 

 Free energy of the ion-electron system (eV)
  ---------------------------------------------------
  alpha Z        PSCENC =         0.62641250
  Ewald energy   TEWEN  =      1008.91829129
  -Hartree energ DENC   =     -1430.59646444
  -exchange      EXHF   =         0.00000000
  -V(xc)+E(xc)   XCENC  =        68.03367445
  PAW double counting   =       156.01372664     -160.66969168
  entropy T*S    EENTRO =        -0.00000000
  eigenvalues    EBANDS =      -363.60386104
  atomic energy  EATOM  =       663.51739852
  Solvation  Ediel_sol  =         0.00000000
  ---------------------------------------------------
  free energy    TOTEN  =       -57.76051374 eV

  energy without entropy =      -57.76051374  energy(sigma->0) =      -57.76051374


--------------------------------------------------------------------------------------------------------




--------------------------------------- Iteration      1(   4)  ---------------------------------------


     EDDAV:  cpu time      0.4424: real time      0.4449
       DOS:  cpu time      0.0001: real time      0.0001
    --------------------------------------------
      LOOP:  cpu time      0.4425: real time      0.4450

 eigenvalue-minimisations  :    72
 total energy-change (2. order) :-0.5042899E+01  (-0.5032982E+01)
 number of electron      22.0000000 magnetization 
 augmentation part       22.0000000 magnetization 

 Free energy of the ion-electron system (eV)
  ---------------------------------------------------
  alpha Z        PSCENC =         0.62641250
  Ewald energy   TEWEN  =      1008.91829129
  -Hartree energ DENC   =     -1430.59646444
  -exchange      EXHF   =         0.00000000
  -V(xc)+E(xc)   XCENC  =        68.03367445
  PAW double counting   =       156.01372664     -160.66969168
  entropy T*S    EENTRO =        -0.00000000
  eigenvalues    EBANDS =      -368.64676041
  atomic energy  EATOM  =       663.51739852
  Solvation  Ediel_sol  =         0.00000000
  ---------------------------------------------------
  free energy    TOTEN  =       -62.80341312 eV

  energy without entropy =      -62.80341312  energy(sigma->0) =      -62.80341312


--------------------------------------------------------------------------------------------------------




--------------------------------------- Iteration      1(   5)  ---------------------------------------


     EDDAV:  cpu time      0.4042: real time      0.4065
       DOS:  cpu time      0.0001: real time      0.0001
    CHARGE:  cpu time      0.1968: real time      0.1976
    MIXING:  cpu time      0.0139: real time      0.0139
    --------------------------------------------
      LOOP:  cpu time      0.6150: real time      0.6181

 eigenvalue-minimisations  :    64
 total energy-change (2. order) :-0.4340670E-01  (-0.4337118E-01)
 number of electron      22.0000000 magnetization 
 augmentation part        0.5801779 magnetization 

 Broyden mixing:
  rms(total) = 0.11370E+01    rms(broyden)= 0.11368E+01
  rms(prec ) = 0.13922E+01
  weight for this iteration     100.00

 Free energy of the ion-electron system (eV)
  ---------------------------------------------------
  alpha Z        PSCENC =         0.62641250
  Ewald energy   TEWEN  =      1008.91829129
  -Hartree energ DENC   =     -1430.59646444
  -exchange      EXHF   =         0.00000000
  -V(xc)+E(xc)   XCENC  =        68.03367445
  PAW double counting   =       156.01372664     -160.66969168
  entropy T*S    EENTRO =        -0.00000000
  eigenvalues    EBANDS =      -368.69016711
  atomic energy  EATOM  =       663.51739852
  Solvation  Ediel_sol  =         0.00000000
  ---------------------------------------------------
  free energy    TOTEN  =       -62.84681982 eV

  energy without entropy =      -62.84681982  energy(sigma->0) =      -62.84681982


--------------------------------------------------------------------------------------------------------




--------------------------------------- Iteration      1(   6)  ---------------------------------------


    POTLOK:  cpu time      0.3045: real time      0.3061
    SETDIJ:  cpu time      0.1930: real time      0.1938
     EDDAV:  cpu time      0.4444: real time      0.4469
       DOS:  cpu time      0.0001: real time      0.0001
    CHARGE:  cpu time      0.1982: real time      0.1990
    MIXING:  cpu time      0.0079: real time      0.0080
    --------------------------------------------
      LOOP:  cpu time      1.1480: real time      1.1539

 eigenvalue-minimisations  :    72
 total energy-change (2. order) : 0.5252328E+01  (-0.8292952E+00)
 number of electron      22.0000000 magnetization 
 augmentation part        0.5308398 magnetization 

 Broyden mixing:
  rms(total) = 0.54887E+00    rms(broyden)= 0.54884E+00
  rms(prec ) = 0.65845E+00
  weight for this iteration     100.00

 eigenvalues of (default mixing * dielectric matrix)
  average eigenvalue GAMMA=   1.5631
  1.5631

 Free energy of the ion-electron system (eV)
  ---------------------------------------------------
  alpha Z        PSCENC =         0.62641250
  Ewald energy   TEWEN  =      1008.91829129
  -Hartree energ DENC   =     -1480.92294532
  -exchange      EXHF   =         0.00000000
  -V(xc)+E(xc)   XCENC  =        70.31660399
  PAW double counting   =       228.24902613     -233.44729992
  entropy T*S    EENTRO =        -0.00000000
  eigenvalues    EBANDS =      -314.85197882
  atomic energy  EATOM  =       663.51739852
  Solvation  Ediel_sol  =         0.00000000
  ---------------------------------------------------
  free energy    TOTEN  =       -57.59449162 eV

  energy without entropy =      -57.59449162  energy(sigma->0) =      -57.59449162


--------------------------------------------------------------------------------------------------------




--------------------------------------- Iteration      1(   7)  ---------------------------------------


    POTLOK:  cpu time      0.3055: real time      0.3072
    SETDIJ:  cpu time      0.1896: real time      0.1904
     EDDAV:  cpu time      0.4101: real time      0.4125
       DOS:  cpu time      0.0001: real time      0.0001
    CHARGE:  cpu time      0.1926: real time      0.1933
    MIXING:  cpu time      0.0158: real time      0.0159
    --------------------------------------------
      LOOP:  cpu time      1.1138: real time      1.1194

 eigenvalue-minimisations  :    64
 total energy-change (2. order) : 0.1120458E+01  (-0.4703459E+00)
 number of electron      22.0000000 magnetization 
 augmentation part        0.4995054 magnetization 

 Broyden mixing:
  rms(total) = 0.24323E+00    rms(broyden)= 0.24317E+00
  rms(prec ) = 0.27967E+00
  weight for this iteration     100.00

 eigenvalues of (default mixing * dielectric matrix)
  average eigenvalue GAMMA=   1.8982
  1.8982  1.8982

 Free energy of the ion-electron system (eV)
  ---------------------------------------------------
  alpha Z        PSCENC =         0.62641250
  Ewald energy   TEWEN  =      1008.91829129
  -Hartree energ DENC   =     -1518.74793210
  -exchange      EXHF   =         0.00000000
  -V(xc)+E(xc)   XCENC  =        72.34004781
  PAW double counting   =       285.74592530     -291.17867258
  entropy T*S    EENTRO =        -0.00000000
  eigenvalues    EBANDS =      -277.69550403
  atomic energy  EATOM  =       663.51739852
  Solvation  Ediel_sol  =         0.00000000
  ---------------------------------------------------
  free energy    TOTEN  =       -56.47403328 eV

  energy without entropy =      -56.47403328  energy(sigma->0) =      -56.47403328


--------------------------------------------------------------------------------------------------------




--------------------------------------- Iteration      1(   8)  ---------------------------------------


    POTLOK:  cpu time      0.3105: real time      0.3122
    SETDIJ:  cpu time      0.1901: real time      0.1909
     EDDAV:  cpu time      0.4102: real time      0.4125
       DOS:  cpu time      0.0001: real time      0.0001
    CHARGE:  cpu time      0.1991: real time      0.1999
    MIXING:  cpu time      0.0083: real time      0.0083
    --------------------------------------------
      LOOP:  cpu time      1.1183: real time      1.1239

 eigenvalue-minimisations  :    64
 total energy-change (2. order) : 0.1881349E+00  (-0.5863074E-01)
 number of electron      22.0000000 magnetization 
 augmentation part        0.5051248 magnetization 

 Broyden mixing:
  rms(total) = 0.60487E-01    rms(broyden)= 0.60483E-01
  rms(prec ) = 0.98126E-01
  weight for this iteration     100.00

 eigenvalues of (default mixing * dielectric matrix)
  average eigenvalue GAMMA=   1.5859
  2.2926  1.0458  1.4192

 Free energy of the ion-electron system (eV)
  ---------------------------------------------------
  alpha Z        PSCENC =         0.62641250
  Ewald energy   TEWEN  =      1008.91829129
  -Hartree energ DENC   =     -1524.81285991
  -exchange      EXHF   =         0.00000000
  -V(xc)+E(xc)   XCENC  =        72.94117664
  PAW double counting   =       290.70322034     -295.98152130
  entropy T*S    EENTRO =        -0.00000000
  eigenvalues    EBANDS =      -272.19801643
  atomic energy  EATOM  =       663.51739852
  Solvation  Ediel_sol  =         0.00000000
  ---------------------------------------------------
  free energy    TOTEN  =       -56.28589833 eV

  energy without entropy =      -56.28589833  energy(sigma->0) =      -56.28589833


--------------------------------------------------------------------------------------------------------




--------------------------------------- Iteration      1(   9)  ---------------------------------------


    POTLOK:  cpu time      0.3096: real time      0.3113
    SETDIJ:  cpu time      0.1884: real time      0.1892
     EDDAV:  cpu time      0.4471: real time      0.4495
       DOS:  cpu time      0.0001: real time      0.0001
    CHARGE:  cpu time      0.1997: real time      0.2005
    MIXING:  cpu time      0.0084: real time      0.0084
    --------------------------------------------
      LOOP:  cpu time      1.1532: real time      1.1590

 eigenvalue-minimisations  :    72
 total energy-change (2. order) : 0.4642189E-01  (-0.1303297E-01)
 number of electron      22.0000000 magnetization 
 augmentation part        0.5004128 magnetization 

 Broyden mixing:
  rms(total) = 0.25808E-01    rms(broyden)= 0.25803E-01
  rms(prec ) = 0.50253E-01
  weight for this iteration     100.00

 eigenvalues of (default mixing * dielectric matrix)
  average eigenvalue GAMMA=   1.5380
  1.9269  1.9269  1.0844  1.2137

 Free energy of the ion-electron system (eV)
  ---------------------------------------------------
  alpha Z        PSCENC =         0.62641250
  Ewald energy   TEWEN  =      1008.91829129
  -Hartree energ DENC   =     -1531.81663328
  -exchange      EXHF   =         0.00000000
  -V(xc)+E(xc)   XCENC  =        73.23894546
  PAW double counting   =       297.77293718     -303.08631386
  entropy T*S    EENTRO =        -0.00000000
  eigenvalues    EBANDS =      -265.41051425
  atomic energy  EATOM  =       663.51739852
  Solvation  Ediel_sol  =         0.00000000
  ---------------------------------------------------
  free energy    TOTEN  =       -56.23947644 eV

  energy without entropy =      -56.23947644  energy(sigma->0) =      -56.23947644


--------------------------------------------------------------------------------------------------------




--------------------------------------- Iteration      1(  10)  ---------------------------------------


    POTLOK:  cpu time      0.3125: real time      0.3142
    SETDIJ:  cpu time      0.1900: real time      0.1908
     EDDAV:  cpu time      0.3635: real time      0.3655
       DOS:  cpu time      0.0001: real time      0.0001
    CHARGE:  cpu time      0.1920: real time      0.1928
    MIXING:  cpu time      0.0152: real time      0.0153
    --------------------------------------------
      LOOP:  cpu time      1.0733: real time      1.0787

 eigenvalue-minimisations  :    56
 total energy-change (2. order) : 0.7692061E-02  (-0.3487054E-02)
 number of electron      22.0000000 magnetization 
 augmentation part        0.4983972 magnetization 

 Broyden mixing:
  rms(total) = 0.21700E-01    rms(broyden)= 0.21695E-01
  rms(prec ) = 0.36004E-01
  weight for this iteration     100.00

 eigenvalues of (default mixing * dielectric matrix)
  average eigenvalue GAMMA=   1.6480
  2.4262  2.4262  1.2125  1.2125  0.9629

 Free energy of the ion-electron system (eV)
  ---------------------------------------------------
  alpha Z        PSCENC =         0.62641250
  Ewald energy   TEWEN  =      1008.91829129
  -Hartree energ DENC   =     -1536.15061659
  -exchange      EXHF   =         0.00000000
  -V(xc)+E(xc)   XCENC  =        73.32673208
  PAW double counting   =       296.84888272     -302.16416896
  entropy T*S    EENTRO =        -0.00000000
  eigenvalues    EBANDS =      -261.15471596
  atomic energy  EATOM  =       663.51739852
  Solvation  Ediel_sol  =         0.00000000
  ---------------------------------------------------
  free energy    TOTEN  =       -56.23178438 eV

  energy without entropy =      -56.23178438  energy(sigma->0) =      -56.23178438


--------------------------------------------------------------------------------------------------------




--------------------------------------- Iteration      1(  11)  ---------------------------------------


    POTLOK:  cpu time      0.3130: real time      0.3148
    SETDIJ:  cpu time      0.1928: real time      0.1936
     EDDAV:  cpu time      0.4061: real time      0.4083
       DOS:  cpu time      0.0001: real time      0.0001
    CHARGE:  cpu time      0.1929: real time      0.1937
    MIXING:  cpu time      0.0140: real time      0.0141
    --------------------------------------------
      LOOP:  cpu time      1.1190: real time      1.1246

 eigenvalue-minimisations  :    64
 total energy-change (2. order) : 0.1002333E-01  (-0.1217665E-02)
 number of electron      22.0000000 magnetization 
 augmentation part        0.4990905 magnetization 

 Broyden mixing:
  rms(total) = 0.11565E-01    rms(broyden)= 0.11565E-01
  rms(prec ) = 0.21940E-01
  weight for this iteration     100.00

 eigenvalues of (default mixing * dielectric matrix)
  average eigenvalue GAMMA=   1.7741
  3.2876  2.4113  1.7193  0.9493  1.1385  1.1385

 Free energy of the ion-electron system (eV)
  ---------------------------------------------------
  alpha Z        PSCENC =         0.62641250
  Ewald energy   TEWEN  =      1008.91829129
  -Hartree energ DENC   =     -1538.54599440
  -exchange      EXHF   =         0.00000000
  -V(xc)+E(xc)   XCENC  =        73.40077142
  PAW double counting   =       295.47530652     -300.76900542
  entropy T*S    EENTRO =        -0.00000000
  eigenvalues    EBANDS =      -258.84494148
  atomic energy  EATOM  =       663.51739852
  Solvation  Ediel_sol  =         0.00000000
  ---------------------------------------------------
  free energy    TOTEN  =       -56.22176104 eV

  energy without entropy =      -56.22176104  energy(sigma->0) =      -56.22176104


--------------------------------------------------------------------------------------------------------




--------------------------------------- Iteration      1(  12)  ---------------------------------------


    POTLOK:  cpu time      0.3112: real time      0.3129
    SETDIJ:  cpu time      0.1921: real time      0.1929
     EDDAV:  cpu time      0.4039: real time      0.4061
       DOS:  cpu time      0.0001: real time      0.0001
    CHARGE:  cpu time      0.1975: real time      0.1982
    MIXING:  cpu time      0.0100: real time      0.0101
    --------------------------------------------
      LOOP:  cpu time      1.1149: real time      1.1204

 eigenvalue-minimisations  :    64
 total energy-change (2. order) :-0.1323563E-02  (-0.1304102E-02)
 number of electron      22.0000000 magnetization 
 augmentation part        0.4975996 magnetization 

 Broyden mixing:
  rms(total) = 0.91094E-02    rms(broyden)= 0.91084E-02
  rms(prec ) = 0.14614E-01
  weight for this iteration     100.00

 eigenvalues of (default mixing * dielectric matrix)
  average eigenvalue GAMMA=   1.8477
  4.0818  2.4608  1.8920  1.3819  0.9997  1.0588  1.0588

 Free energy of the ion-electron system (eV)
  ---------------------------------------------------
  alpha Z        PSCENC =         0.62641250
  Ewald energy   TEWEN  =      1008.91829129
  -Hartree energ DENC   =     -1542.24613198
  -exchange      EXHF   =         0.00000000
  -V(xc)+E(xc)   XCENC  =        73.47766475
  PAW double counting   =       295.91442108     -301.21989451
  entropy T*S    EENTRO =        -0.00000000
  eigenvalues    EBANDS =      -255.21124627
  atomic energy  EATOM  =       663.51739852
  Solvation  Ediel_sol  =         0.00000000
  ---------------------------------------------------
  free energy    TOTEN  =       -56.22308461 eV

  energy without entropy =      -56.22308461  energy(sigma->0) =      -56.22308461


--------------------------------------------------------------------------------------------------------




--------------------------------------- Iteration      1(  13)  ---------------------------------------


    POTLOK:  cpu time      0.3081: real time      0.3098
    SETDIJ:  cpu time      0.1932: real time      0.1940
     EDDAV:  cpu time      0.4043: real time      0.4065
       DOS:  cpu time      0.0002: real time      0.0002
    CHARGE:  cpu time      0.1990: real time      0.1998
    MIXING:  cpu time      0.0087: real time      0.0087
    --------------------------------------------
      LOOP:  cpu time      1.1134: real time      1.1191

 eigenvalue-minimisations  :    64
 total energy-change (2. order) :-0.7341768E-02  (-0.3476416E-03)
 number of electron      22.0000000 magnetization 
 augmentation part        0.4981399 magnetization 

 Broyden mixing:
  rms(total) = 0.30181E-02    rms(broyden)= 0.30178E-02
  rms(prec ) = 0.69483E-02
  weight for this iteration     100.00

 eigenvalues of (default mixing * dielectric matrix)
  average eigenvalue GAMMA=   1.9760
  4.9616  2.6892  2.2415  1.6179  1.2022  0.9976  1.0490  1.0490

 Free energy of the ion-electron system (eV)
  ---------------------------------------------------
  alpha Z        PSCENC =         0.62641250
  Ewald energy   TEWEN  =      1008.91829129
  -Hartree energ DENC   =     -1542.04472786
  -exchange      EXHF   =         0.00000000
  -V(xc)+E(xc)   XCENC  =        73.45063259
  PAW double counting   =       295.22382710     -300.52345352
  entropy T*S    EENTRO =        -0.00000000
  eigenvalues    EBANDS =      -255.39880701
  atomic energy  EATOM  =       663.51739852
  Solvation  Ediel_sol  =         0.00000000
  ---------------------------------------------------
  free energy    TOTEN  =       -56.23042638 eV

  energy without entropy =      -56.23042638  energy(sigma->0) =      -56.23042638


--------------------------------------------------------------------------------------------------------




--------------------------------------- Iteration      1(  14)  ---------------------------------------


    POTLOK:  cpu time      0.3094: real time      0.3111
    SETDIJ:  cpu time      0.1925: real time      0.1934
     EDDAV:  cpu time      0.4069: real time      0.4091
       DOS:  cpu time      0.0001: real time      0.0001
    CHARGE:  cpu time      0.2003: real time      0.2011
    MIXING:  cpu time      0.0098: real time      0.0098
    --------------------------------------------
      LOOP:  cpu time      1.1190: real time      1.1246

 eigenvalue-minimisations  :    64
 total energy-change (2. order) :-0.6775029E-02  (-0.1040955E-03)
 number of electron      22.0000000 magnetization 
 augmentation part        0.4981655 magnetization 

 Broyden mixing:
  rms(total) = 0.24697E-02    rms(broyden)= 0.24694E-02
  rms(prec ) = 0.43859E-02
  weight for this iteration     100.00

 eigenvalues of (default mixing * dielectric matrix)
  average eigenvalue GAMMA=   2.1480
  5.9653  3.3795  2.2815  1.7295  1.7295  1.0237  1.0237  1.1938  1.0057

 Free energy of the ion-electron system (eV)
  ---------------------------------------------------
  alpha Z        PSCENC =         0.62641250
  Ewald energy   TEWEN  =      1008.91829129
  -Hartree energ DENC   =     -1542.50335034
  -exchange      EXHF   =         0.00000000
  -V(xc)+E(xc)   XCENC  =        73.44569500
  PAW double counting   =       295.25470133     -300.55364913
  entropy T*S    EENTRO =        -0.00000000
  eigenvalues    EBANDS =      -254.94270059
  atomic energy  EATOM  =       663.51739852
  Solvation  Ediel_sol  =         0.00000000
  ---------------------------------------------------
  free energy    TOTEN  =       -56.23720140 eV

  energy without entropy =      -56.23720140  energy(sigma->0) =      -56.23720140


--------------------------------------------------------------------------------------------------------




--------------------------------------- Iteration      1(  15)  ---------------------------------------


    POTLOK:  cpu time      0.3017: real time      0.3034
    SETDIJ:  cpu time      0.1921: real time      0.1929
     EDDAV:  cpu time      0.4022: real time      0.4044
       DOS:  cpu time      0.0001: real time      0.0001
    CHARGE:  cpu time      0.1985: real time      0.1993
    MIXING:  cpu time      0.0094: real time      0.0095
    --------------------------------------------
      LOOP:  cpu time      1.1040: real time      1.1096

 eigenvalue-minimisations  :    64
 total energy-change (2. order) :-0.4452676E-02  (-0.7433109E-04)
 number of electron      22.0000000 magnetization 
 augmentation part        0.4980014 magnetization 

 Broyden mixing:
  rms(total) = 0.12216E-02    rms(broyden)= 0.12215E-02
  rms(prec ) = 0.20674E-02
  weight for this iteration     100.00

 eigenvalues of (default mixing * dielectric matrix)
  average eigenvalue GAMMA=   2.2519
  6.9501  4.0451  2.3425  2.3425  1.3322  1.3322  1.1121  1.0106  1.0259  1.0259

 Free energy of the ion-electron system (eV)
  ---------------------------------------------------
  alpha Z        PSCENC =         0.62641250
  Ewald energy   TEWEN  =      1008.91829129
  -Hartree energ DENC   =     -1542.76972590
  -exchange      EXHF   =         0.00000000
  -V(xc)+E(xc)   XCENC  =        73.44163862
  PAW double counting   =       295.43727387     -300.73795425
  entropy T*S    EENTRO =        -0.00000000
  eigenvalues    EBANDS =      -254.67498874
  atomic energy  EATOM  =       663.51739852
  Solvation  Ediel_sol  =         0.00000000
  ---------------------------------------------------
  free energy    TOTEN  =       -56.24165408 eV

  energy without entropy =      -56.24165408  energy(sigma->0) =      -56.24165408


--------------------------------------------------------------------------------------------------------




--------------------------------------- Iteration      1(  16)  ---------------------------------------


    POTLOK:  cpu time      0.2990: real time      0.3007
    SETDIJ:  cpu time      0.1921: real time      0.1929
     EDDAV:  cpu time      0.4060: real time      0.4083
       DOS:  cpu time      0.0002: real time      0.0002
    CHARGE:  cpu time      0.1954: real time      0.1961
    MIXING:  cpu time      0.0116: real time      0.0116
    --------------------------------------------
      LOOP:  cpu time      1.1042: real time      1.1098

 eigenvalue-minimisations  :    64
 total energy-change (2. order) :-0.1575646E-02  (-0.1984469E-04)
 number of electron      22.0000000 magnetization 
 augmentation part        0.4980344 magnetization 

 Broyden mixing:
  rms(total) = 0.60813E-03    rms(broyden)= 0.60809E-03
  rms(prec ) = 0.10587E-02
  weight for this iteration     100.00

 eigenvalues of (default mixing * dielectric matrix)
  average eigenvalue GAMMA=   2.3376
  7.6910  4.4542  2.6039  2.3563  1.6036  1.6036  1.4076  1.0200  1.0200  0.9767
  0.9767

 Free energy of the ion-electron system (eV)
  ---------------------------------------------------
  alpha Z        PSCENC =         0.62641250
  Ewald energy   TEWEN  =      1008.91829129
  -Hartree energ DENC   =     -1542.67840854
  -exchange      EXHF   =         0.00000000
  -V(xc)+E(xc)   XCENC  =        73.43551924
  PAW double counting   =       295.37306680     -300.67261192
  entropy T*S    EENTRO =        -0.00000000
  eigenvalues    EBANDS =      -254.76289762
  atomic energy  EATOM  =       663.51739852
  Solvation  Ediel_sol  =         0.00000000
  ---------------------------------------------------
  free energy    TOTEN  =       -56.24322973 eV

  energy without entropy =      -56.24322973  energy(sigma->0) =      -56.24322973


--------------------------------------------------------------------------------------------------------




--------------------------------------- Iteration      1(  17)  ---------------------------------------


    POTLOK:  cpu time      0.2959: real time      0.2975
    SETDIJ:  cpu time      0.1918: real time      0.1926
     EDDAV:  cpu time      0.4495: real time      0.4520
       DOS:  cpu time      0.0001: real time      0.0001
    CHARGE:  cpu time      0.1961: real time      0.1969
    MIXING:  cpu time      0.0106: real time      0.0107
    --------------------------------------------
      LOOP:  cpu time      1.1441: real time      1.1498

 eigenvalue-minimisations  :    72
 total energy-change (2. order) :-0.6064604E-03  (-0.4984935E-05)
 number of electron      22.0000000 magnetization 
 augmentation part        0.4980012 magnetization 

 Broyden mixing:
  rms(total) = 0.39813E-03    rms(broyden)= 0.39808E-03
  rms(prec ) = 0.61547E-03
  weight for this iteration     100.00

 eigenvalues of (default mixing * dielectric matrix)
  average eigenvalue GAMMA=   2.3473
  8.3215  4.8107  2.6376  2.6376  2.0382  1.4168  1.1960  1.1960  1.0130  1.0130
  0.9434  0.9434

 Free energy of the ion-electron system (eV)
  ---------------------------------------------------
  alpha Z        PSCENC =         0.62641250
  Ewald energy   TEWEN  =      1008.91829129
  -Hartree energ DENC   =     -1542.74718832
  -exchange      EXHF   =         0.00000000
  -V(xc)+E(xc)   XCENC  =        73.43714690
  PAW double counting   =       295.37859531     -300.67828487
  entropy T*S    EENTRO =        -0.00000000
  eigenvalues    EBANDS =      -254.69620753
  atomic energy  EATOM  =       663.51739852
  Solvation  Ediel_sol  =         0.00000000
  ---------------------------------------------------
  free energy    TOTEN  =       -56.24383619 eV

  energy without entropy =      -56.24383619  energy(sigma->0) =      -56.24383619


--------------------------------------------------------------------------------------------------------




--------------------------------------- Iteration      1(  18)  ---------------------------------------


    POTLOK:  cpu time      0.2951: real time      0.2968
    SETDIJ:  cpu time      0.1926: real time      0.1934
     EDDAV:  cpu time      0.4018: real time      0.4040
       DOS:  cpu time      0.0002: real time      0.0002
    CHARGE:  cpu time      0.1961: real time      0.1969
    MIXING:  cpu time      0.0137: real time      0.0137
    --------------------------------------------
      LOOP:  cpu time      1.0994: real time      1.1049

 eigenvalue-minimisations  :    64
 total energy-change (2. order) :-0.1765451E-03  (-0.1087259E-05)
 number of electron      22.0000000 magnetization 
 augmentation part        0.4980079 magnetization 

 Broyden mixing:
  rms(total) = 0.17982E-03    rms(broyden)= 0.17974E-03
  rms(prec ) = 0.34197E-03
  weight for this iteration     100.00

 eigenvalues of (default mixing * dielectric matrix)
  average eigenvalue GAMMA=   2.3763
  8.5513  5.1875  3.2193  2.3259  2.3259  1.4425  1.4425  1.3206  1.0197  1.0197
  1.0142  1.0115  1.0115

 Free energy of the ion-electron system (eV)
  ---------------------------------------------------
  alpha Z        PSCENC =         0.62641250
  Ewald energy   TEWEN  =      1008.91829129
  -Hartree energ DENC   =     -1542.72565911
  -exchange      EXHF   =         0.00000000
  -V(xc)+E(xc)   XCENC  =        73.43602887
  PAW double counting   =       295.36015801     -300.65991727
  entropy T*S    EENTRO =        -0.00000000
  eigenvalues    EBANDS =      -254.71672555
  atomic energy  EATOM  =       663.51739852
  Solvation  Ediel_sol  =         0.00000000
  ---------------------------------------------------
  free energy    TOTEN  =       -56.24401273 eV

  energy without entropy =      -56.24401273  energy(sigma->0) =      -56.24401273


--------------------------------------------------------------------------------------------------------




--------------------------------------- Iteration      1(  19)  ---------------------------------------


    POTLOK:  cpu time      0.2946: real time      0.2962
    SETDIJ:  cpu time      0.1920: real time      0.1928
     EDDAV:  cpu time      0.4028: real time      0.4050
       DOS:  cpu time      0.0001: real time      0.0001
    CHARGE:  cpu time      0.1953: real time      0.1961
    MIXING:  cpu time      0.0123: real time      0.0123
    --------------------------------------------
      LOOP:  cpu time      1.0971: real time      1.1027

 eigenvalue-minimisations  :    64
 total energy-change (2. order) :-0.1220072E-03  (-0.5083379E-06)
 number of electron      22.0000000 magnetization 
 augmentation part        0.4980016 magnetization 

 Broyden mixing:
  rms(total) = 0.13439E-03    rms(broyden)= 0.13432E-03
  rms(prec ) = 0.21044E-03
  weight for this iteration     100.00

 eigenvalues of (default mixing * dielectric matrix)
  average eigenvalue GAMMA=   2.3651
  8.6927  5.4403  3.4334  2.4505  2.4505  1.9609  1.3922  1.1534  1.1534  1.0272
  1.0272  0.9643  0.9826  0.9826

 Free energy of the ion-electron system (eV)
  ---------------------------------------------------
  alpha Z        PSCENC =         0.62641250
  Ewald energy   TEWEN  =      1008.91829129
  -Hartree energ DENC   =     -1542.74603765
  -exchange      EXHF   =         0.00000000
  -V(xc)+E(xc)   XCENC  =        73.43654032
  PAW double counting   =       295.37068859     -300.67050569
  entropy T*S    EENTRO =        -0.00000000
  eigenvalues    EBANDS =      -254.69692264
  atomic energy  EATOM  =       663.51739852
  Solvation  Ediel_sol  =         0.00000000
  ---------------------------------------------------
  free energy    TOTEN  =       -56.24413474 eV

  energy without entropy =      -56.24413474  energy(sigma->0) =      -56.24413474


--------------------------------------------------------------------------------------------------------




--------------------------------------- Iteration      1(  20)  ---------------------------------------


    POTLOK:  cpu time      0.2981: real time      0.2997
    SETDIJ:  cpu time      0.1929: real time      0.1937
     EDDAV:  cpu time      0.3652: real time      0.3672
       DOS:  cpu time      0.0001: real time      0.0001
    CHARGE:  cpu time      0.1964: real time      0.1972
    MIXING:  cpu time      0.0144: real time      0.0144
    --------------------------------------------
      LOOP:  cpu time      1.0671: real time      1.0723

 eigenvalue-minimisations  :    56
 total energy-change (2. order) :-0.4174603E-04  (-0.8545875E-07)
 number of electron      22.0000000 magnetization 
 augmentation part        0.4980018 magnetization 

 Broyden mixing:
  rms(total) = 0.67872E-04    rms(broyden)= 0.67757E-04
  rms(prec ) = 0.11132E-03
  weight for this iteration     100.00

 eigenvalues of (default mixing * dielectric matrix)
  average eigenvalue GAMMA=   2.3939
  8.8484  5.7639  3.8845  2.7456  2.3352  2.0558  1.6266  1.2709  1.2709  1.0349
  1.0349  1.0428  1.0428  0.9378  1.0132

 Free energy of the ion-electron system (eV)
  ---------------------------------------------------
  alpha Z        PSCENC =         0.62641250
  Ewald energy   TEWEN  =      1008.91829129
  -Hartree energ DENC   =     -1542.74671348
  -exchange      EXHF   =         0.00000000
  -V(xc)+E(xc)   XCENC  =        73.43625987
  PAW double counting   =       295.37001678     -300.66984736
  entropy T*S    EENTRO =        -0.00000000
  eigenvalues    EBANDS =      -254.69599462
  atomic energy  EATOM  =       663.51739852
  Solvation  Ediel_sol  =         0.00000000
  ---------------------------------------------------
  free energy    TOTEN  =       -56.24417649 eV

  energy without entropy =      -56.24417649  energy(sigma->0) =      -56.24417649


--------------------------------------------------------------------------------------------------------




--------------------------------------- Iteration      1(  21)  ---------------------------------------


    POTLOK:  cpu time      0.3051: real time      0.3068
    SETDIJ:  cpu time      0.1916: real time      0.1924
     EDDAV:  cpu time      0.3648: real time      0.3669
       DOS:  cpu time      0.0001: real time      0.0001
    CHARGE:  cpu time      0.1963: real time      0.1971
    MIXING:  cpu time      0.0116: real time      0.0117
    --------------------------------------------
      LOOP:  cpu time      1.0695: real time      1.0750

 eigenvalue-minimisations  :    56
 total energy-change (2. order) :-0.1789621E-04  (-0.2940113E-07)
 number of electron      22.0000000 magnetization 
 augmentation part        0.4980020 magnetization 

 Broyden mixing:
  rms(total) = 0.51897E-04    rms(broyden)= 0.51749E-04
  rms(prec ) = 0.73830E-04
  weight for this iteration     100.00

 eigenvalues of (default mixing * dielectric matrix)
  average eigenvalue GAMMA=   2.4453
  9.0464  6.0928  4.4899  2.9762  2.4900  2.0481  1.8887  1.4907  1.2413  1.2413
  1.0306  1.0306  0.9807  0.9807  1.0479  1.0479

 Free energy of the ion-electron system (eV)
  ---------------------------------------------------
  alpha Z        PSCENC =         0.62641250
  Ewald energy   TEWEN  =      1008.91829129
  -Hartree energ DENC   =     -1542.74738730
  -exchange      EXHF   =         0.00000000
  -V(xc)+E(xc)   XCENC  =        73.43619268
  PAW double counting   =       295.36931881     -300.66913583
  entropy T*S    EENTRO =        -0.00000000
  eigenvalues    EBANDS =      -254.69528505
  atomic energy  EATOM  =       663.51739852
  Solvation  Ediel_sol  =         0.00000000
  ---------------------------------------------------
  free energy    TOTEN  =       -56.24419438 eV

  energy without entropy =      -56.24419438  energy(sigma->0) =      -56.24419438


--------------------------------------------------------------------------------------------------------




--------------------------------------- Iteration      1(  22)  ---------------------------------------


    POTLOK:  cpu time      0.3078: real time      0.3094
    SETDIJ:  cpu time      0.1913: real time      0.1921
     EDDAV:  cpu time      0.3684: real time      0.3704
       DOS:  cpu time      0.0001: real time      0.0001
    CHARGE:  cpu time      0.1974: real time      0.1982
    MIXING:  cpu time      0.0129: real time      0.0130
    --------------------------------------------
      LOOP:  cpu time      1.0780: real time      1.0833

 eigenvalue-minimisations  :    56
 total energy-change (2. order) :-0.7950737E-05  (-0.1570469E-07)
 number of electron      22.0000000 magnetization 
 augmentation part        0.4980046 magnetization 

 Broyden mixing:
  rms(total) = 0.25316E-04    rms(broyden)= 0.25016E-04
  rms(prec ) = 0.36384E-04
  weight for this iteration     100.00

 eigenvalues of (default mixing * dielectric matrix)
  average eigenvalue GAMMA=   2.4141
  9.0776  6.2922  4.5989  3.0735  2.5352  2.1986  2.0303  1.5363  1.2523  1.2523
  1.0249  1.0249  1.1758  1.0361  1.0361  0.9478  0.9478

 Free energy of the ion-electron system (eV)
  ---------------------------------------------------
  alpha Z        PSCENC =         0.62641250
  Ewald energy   TEWEN  =      1008.91829129
  -Hartree energ DENC   =     -1542.74639501
  -exchange      EXHF   =         0.00000000
  -V(xc)+E(xc)   XCENC  =        73.43616159
  PAW double counting   =       295.36806992     -300.66785280
  entropy T*S    EENTRO =        -0.00000000
  eigenvalues    EBANDS =      -254.69628834
  atomic energy  EATOM  =       663.51739852
  Solvation  Ediel_sol  =         0.00000000
  ---------------------------------------------------
  free energy    TOTEN  =       -56.24420233 eV

  energy without entropy =      -56.24420233  energy(sigma->0) =      -56.24420233


--------------------------------------------------------------------------------------------------------




--------------------------------------- Iteration      1(  23)  ---------------------------------------


    POTLOK:  cpu time      0.3089: real time      0.3106
    SETDIJ:  cpu time      0.1921: real time      0.1929
     EDDAV:  cpu time      0.3645: real time      0.3666
       DOS:  cpu time      0.0001: real time      0.0001
    CHARGE:  cpu time      0.1952: real time      0.1960
    MIXING:  cpu time      0.0162: real time      0.0163
    --------------------------------------------
      LOOP:  cpu time      1.0770: real time      1.0824

 eigenvalue-minimisations  :    56
 total energy-change (2. order) :-0.2516227E-05  (-0.4483859E-08)
 number of electron      22.0000000 magnetization 
 augmentation part        0.4980041 magnetization 

 Broyden mixing:
  rms(total) = 0.13930E-04    rms(broyden)= 0.13383E-04
  rms(prec ) = 0.20395E-04
  weight for this iteration     100.00

 eigenvalues of (default mixing * dielectric matrix)
  average eigenvalue GAMMA=   2.4443
  9.1144  6.6399  4.9657  3.4532  2.6394  2.4585  1.8729  1.8729  1.4156  1.2624
  1.2624  1.0266  1.0266  1.0815  1.0230  1.0230  0.9558  0.9038

 Free energy of the ion-electron system (eV)
  ---------------------------------------------------
  alpha Z        PSCENC =         0.62641250
  Ewald energy   TEWEN  =      1008.91829129
  -Hartree energ DENC   =     -1542.74756189
  -exchange      EXHF   =         0.00000000
  -V(xc)+E(xc)   XCENC  =        73.43618874
  PAW double counting   =       295.36865856     -300.66844885
  entropy T*S    EENTRO =        -0.00000000
  eigenvalues    EBANDS =      -254.69514373
  atomic energy  EATOM  =       663.51739852
  Solvation  Ediel_sol  =         0.00000000
  ---------------------------------------------------
  free energy    TOTEN  =       -56.24420485 eV

  energy without entropy =      -56.24420485  energy(sigma->0) =      -56.24420485


--------------------------------------------------------------------------------------------------------




--------------------------------------- Iteration      1(  24)  ---------------------------------------


    POTLOK:  cpu time      0.3081: real time      0.3097
    SETDIJ:  cpu time      0.1928: real time      0.1936
     EDDAV:  cpu time      0.3248: real time      0.3266
       DOS:  cpu time      0.0001: real time      0.0001
    CHARGE:  cpu time      0.1961: real time      0.1969
    MIXING:  cpu time      0.0132: real time      0.0132
    --------------------------------------------
      LOOP:  cpu time      1.0352: real time      1.0403

 eigenvalue-minimisations  :    48
 total energy-change (2. order) :-0.1114224E-05  (-0.2763560E-08)
 number of electron      22.0000000 magnetization 
 augmentation part        0.4980032 magnetization 

 Broyden mixing:
  rms(total) = 0.74452E-05    rms(broyden)= 0.63630E-05
  rms(prec ) = 0.11048E-04
  weight for this iteration     100.00
  WARNING: grid for Broyden might be to small

 eigenvalues of (default mixing * dielectric matrix)
  average eigenvalue GAMMA=   2.4364
  9.1631  6.8592  5.0975  3.6874  2.7247  2.5072  1.9727  1.9727  1.2622  1.2622
  1.3247  1.3247  1.0256  1.0256  1.1547  0.9939  0.9939  0.9697  0.9697

 Free energy of the ion-electron system (eV)
  ---------------------------------------------------
  alpha Z        PSCENC =         0.62641250
  Ewald energy   TEWEN  =      1008.91829129
  -Hartree energ DENC   =     -1542.74882568
  -exchange      EXHF   =         0.00000000
  -V(xc)+E(xc)   XCENC  =        73.43621430
  PAW double counting   =       295.36917707     -300.66897658
  entropy T*S    EENTRO =        -0.00000000
  eigenvalues    EBANDS =      -254.69389739
  atomic energy  EATOM  =       663.51739852
  Solvation  Ediel_sol  =         0.00000000
  ---------------------------------------------------
  free energy    TOTEN  =       -56.24420596 eV

  energy without entropy =      -56.24420596  energy(sigma->0) =      -56.24420596


--------------------------------------------------------------------------------------------------------




--------------------------------------- Iteration      1(  25)  ---------------------------------------


    POTLOK:  cpu time      0.3122: real time      0.3139
    SETDIJ:  cpu time      0.1915: real time      0.1924
     EDDAV:  cpu time      0.2836: real time      0.2852
       DOS:  cpu time      0.0001: real time      0.0001
    --------------------------------------------
      LOOP:  cpu time      0.7874: real time      0.7915

 eigenvalue-minimisations  :    40
 total energy-change (2. order) :-0.6465252E-06  (-0.9402665E-09)
 number of electron      22.0000000 magnetization 
 augmentation part        0.4980032 magnetization 

 Free energy of the ion-electron system (eV)
  ---------------------------------------------------
  alpha Z        PSCENC =         0.62641250
  Ewald energy   TEWEN  =      1008.91829129
  -Hartree energ DENC   =     -1542.74857793
  -exchange      EXHF   =         0.00000000
  -V(xc)+E(xc)   XCENC  =        73.43620478
  PAW double counting   =       295.36883723     -300.66863473
  entropy T*S    EENTRO =        -0.00000000
  eigenvalues    EBANDS =      -254.69413828
  atomic energy  EATOM  =       663.51739852
  Solvation  Ediel_sol  =         0.00000000
  ---------------------------------------------------
  free energy    TOTEN  =       -56.24420661 eV

  energy without entropy =      -56.24420661  energy(sigma->0) =      -56.24420661


--------------------------------------------------------------------------------------------------------




 average (electrostatic) potential at core
  the test charge radii are     0.6991  0.5201
  (the norm of the test charge is              1.0000)
       1 -58.4905       2 -58.5267       3 -58.5422       4 -58.5317       5 -41.4953
       6 -41.3867       7 -41.5383       8 -41.6896       9 -41.6011      10 -41.2685
 
 
 
 E-fermi :  -5.6587     XC(G=0):  -0.4218     alpha+bet : -0.1681

 Fermi energy:        -5.6587164168

 k-point     1 :       0.0000    0.0000    0.0000
  band No.  band energies     occupation 
      1     -21.5956      2.00000
      2     -15.9925      2.00000
      3     -15.6016      2.00000
      4     -12.1553      2.00000
      5     -12.0675      2.00000
      6     -11.0692      2.00000
      7      -9.3133      2.00000
      8      -8.2207      2.00000
      9      -8.0455      2.00000
     10      -7.3710      2.00000
     11      -5.9150      2.00000
     12      -0.5824      0.00000
     13      -0.3849      0.00000
     14       0.1431      0.00000
     15       0.1789      0.00000
     16       0.2287      0.00000
     17       0.3700      0.00000
     18       0.6120      0.00000
     19       0.6158      0.00000
     20       0.8511      0.00000
     21       0.9627      0.00000
     22       0.9851      0.00000
     23       0.9908      0.00000
     24       1.1025      0.00000


--------------------------------------------------------------------------------------------------------


 soft charge-density along one line, spin component           1
         0         1         2         3         4         5         6         7         8         9
 total charge-density along one line
 
 pseudopotential strength for first ion, spin component:           1
 10.247   0.020  -0.000   0.001  -0.000   0.003  -0.002   0.000
  0.020  -0.001  -0.000  -0.000   0.000   0.000  -0.000   0.000
 -0.000  -0.000  -4.360   0.005  -0.001  -0.017   0.001  -0.000
  0.001  -0.000   0.005  -4.356   0.001   0.001  -0.016   0.000
 -0.000   0.000  -0.001   0.001  -4.355  -0.000   0.000  -0.016
  0.003   0.000  -0.017   0.001  -0.000  -0.773   0.000  -0.000
 -0.002  -0.000   0.001  -0.016   0.000   0.000  -0.773   0.000
  0.000   0.000  -0.000   0.000  -0.016  -0.000   0.000  -0.773
 total augmentation occupancy for first ion, spin component:           1
  1.433  -1.110  -0.030   0.006   0.002  -0.013   0.004   0.000
 -1.110   1.036   0.050  -0.017  -0.001   0.040  -0.026   0.004
 -0.030   0.050   1.170  -0.012   0.007   0.200  -0.009   0.004
  0.006  -0.017  -0.012   1.112  -0.001  -0.010   0.183  -0.002
  0.002  -0.001   0.007  -0.001   1.129   0.004  -0.002   0.177
 -0.013   0.040   0.200  -0.010   0.004   0.040  -0.005   0.001
  0.004  -0.026  -0.009   0.183  -0.002  -0.005   0.035  -0.001
  0.000   0.004   0.004  -0.002   0.177   0.001  -0.001   0.029


------------------------ aborting loop because EDIFF is reached ----------------------------------------


    CHARGE:  cpu time      0.1954: real time      0.1962
    FORLOC:  cpu time      0.0319: real time      0.0320
    FORNL :  cpu time      1.0731: real time      1.0782
    STRESS:  cpu time      3.3922: real time      3.4081
    FORHAR:  cpu time      0.1097: real time      0.1102
    MIXING:  cpu time      0.0121: real time      0.0122
    OFIELD:  cpu time      0.0001: real time      0.0001

  FORCE on cell =-STRESS in cart. coord.  units (eV):
  Direction    XX          YY          ZZ          XY          YZ          ZX
  --------------------------------------------------------------------------------------
  Alpha Z     0.62641     0.62641     0.62641
  Ewald     -18.76118   513.60740   514.07178    22.11667     0.38440   -78.60137
  Hartree   305.56003   627.00571   610.18301    11.26976     3.31370   -45.44509
  E(xc)     -77.55245   -76.51119   -76.45325     0.04795    -0.01391    -0.15911
  Local    -496.92638 -1337.73798 -1316.61633   -32.08507    -4.62226   121.87191
  n-local   -30.34563   -30.06710   -30.83129    -0.03686     0.08248     0.00436
  augment    -0.64711    -0.67335    -0.70905    -0.00746     0.00737     0.00508
  Kinetic   316.75307   303.64189   300.49011    -0.79744     0.50600     2.30099
  Fock        0.00000     0.00000     0.00000     0.00000     0.00000     0.00000
  -------------------------------------------------------------------------------------
  Total      -1.29324    -0.10820     0.76140     0.50755    -0.34222    -0.02324
  in kB      -0.61392    -0.05137     0.36145     0.24094    -0.16246    -0.01103
  external pressure =       -0.10 kB  Pullay stress =        0.00 kB


 VOLUME and BASIS-vectors are now :
 -----------------------------------------------------------------------------
  energy-cutoff  :      520.00
  volume of cell :     3375.00
      direct lattice vectors                 reciprocal lattice vectors
    15.000000000  0.000000000  0.000000000     0.066666667  0.000000000  0.000000000
     0.000000000 15.000000000  0.000000000     0.000000000  0.066666667  0.000000000
     0.000000000  0.000000000 15.000000000     0.000000000  0.000000000  0.066666667

  length of vectors
    15.000000000 15.000000000 15.000000000     0.066666667  0.066666667  0.066666667


 FORCES acting on ions
    electron-ion (+dipol)            ewald-force                    non-local-force                 convergence-correction
 -----------------------------------------------------------------------------------------------
   -.224E+02 -.120E+03 0.112E+03   0.227E+02 0.123E+03 -.114E+03   -.103E+00 0.148E+00 0.325E+00   -.538E-07 0.561E-05 0.213E-04
   -.145E+02 0.125E+03 0.147E+03   0.147E+02 -.129E+03 -.149E+03   -.932E-01 0.388E+00 0.118E+01   -.474E-05 0.308E-04 0.548E-04
   0.229E+02 0.139E+03 -.129E+03   -.232E+02 -.141E+03 0.132E+03   0.152E+00 0.175E+01 -.702E+00   0.214E-05 0.341E-04 -.117E-05
   0.168E+02 -.992E+02 -.128E+03   -.175E+02 0.100E+03 0.130E+03   -.757E+00 -.197E+01 0.108E+00   0.194E-05 -.134E-04 -.189E-05
   -.573E+02 -.376E+02 0.285E+02   0.616E+02 0.395E+02 -.298E+02   -.448E+01 -.225E+01 0.144E+01   -.444E-05 0.352E-06 0.298E-05
   0.406E+02 -.422E+02 0.444E+02   -.437E+02 0.444E+02 -.467E+02   0.340E+01 -.259E+01 0.271E+01   0.428E-05 -.452E-06 0.463E-05
   -.557E+01 0.466E+02 0.519E+02   0.584E+01 -.488E+02 -.544E+02   -.403E+00 0.329E+01 0.366E+01   0.420E-06 0.947E-06 0.116E-06
   0.748E+01 0.540E+02 -.426E+02   -.789E+01 -.569E+02 0.448E+02   0.538E+00 0.393E+01 -.312E+01   0.756E-06 0.959E-05 -.269E-05
   -.421E+02 -.324E+02 -.510E+02   0.460E+02 0.343E+02 0.543E+02   -.377E+01 -.199E+01 -.346E+01   -.417E-05 -.211E-05 -.335E-05
   0.553E+02 -.318E+02 -.329E+02   -.586E+02 0.332E+02 0.341E+02   0.426E+01 -.171E+01 -.169E+01   0.582E-05 -.198E-05 -.103E-05
 -----------------------------------------------------------------------------------------------
   0.126E+01 0.102E+01 -.469E+00   -.142E-13 -.355E-13 0.121E-12   -.126E+01 -.101E+01 0.462E+00   0.195E-05 0.636E-04 0.737E-04
 
 
 POSITION                                       TOTAL-FORCE (eV/Angst)
 -----------------------------------------------------------------------------------
      7.64100      8.09300      6.80600         0.249407      3.380047     -2.124638
      7.57500      6.66200      6.77100         0.148668     -3.477526     -1.572518
      7.38600      6.50700      8.08800        -0.139997     -0.243355      1.453450
      7.40500      8.05700      8.28600        -1.438993     -0.734560      2.324263
      8.60600      8.56500      6.50200        -0.185564     -0.264469      0.126316
      6.87500      8.66300      6.20600         0.292317     -0.405189      0.361445
      7.66900      5.90800      5.91400        -0.133708      1.006689      1.087228
      7.26300      5.62200      8.79300         0.130287      1.088769     -0.881877
      8.17200      8.45800      8.96700         0.133638     -0.036223     -0.211003
      6.40700      8.46500      8.66600         0.943946     -0.314183     -0.562666
 -----------------------------------------------------------------------------------
    total drift:                                0.006564      0.002291     -0.007106


--------------------------------------------------------------------------------------------------------



  FREE ENERGIE OF THE ION-ELECTRON SYSTEM (eV)
  ---------------------------------------------------
  free  energy   TOTEN  =       -56.24420661 eV

  energy  without entropy=      -56.24420661  energy(sigma->0) =      -56.24420661
 


--------------------------------------------------------------------------------------------------------


    POTLOK:  cpu time      0.5034: real time      0.5059


--------------------------------------------------------------------------------------------------------


 stress matrix after NEB project (eV)
     -1.29324      0.50755     -0.02324
      0.50755     -0.10820     -0.34222
     -0.02323     -0.34222      0.76140
  FORCES: max atom, RMS     4.000126    2.164649
  FORCE total and by dimension    6.845220    3.477526
  Stress total and by dimension    1.736211    1.293238
     LOOP+:  cpu time     30.1386: real time     30.2906
    4ORBIT:  cpu time      0.0000: real time      0.0000

 total amount of memory used by VASP MPI-rank0   224782. kBytes
=======================================================================

   base      :      30000. kBytes
   nonlr-proj:       1258. kBytes
   fftplans  :     123538. kBytes
   grid      :      67787. kBytes
   one-center:         15. kBytes
   wavefun   :       2184. kBytes
 
  
  
 General timing and accounting informations for this job:
 ========================================================
  
                  Total CPU time used (sec):       36.714
                            User time (sec):       33.599
                          System time (sec):        3.115
                         Elapsed time (sec):       37.792
  
                   Maximum memory used (kb):      548836.
                   Average memory used (kb):          N/A
  
                          Minor page faults:       158625
                          Major page faults:         5454
                 Voluntary context switches:         3113
