 vasp.6.4.2 20Jul23 (build Apr 10 2024 13:39:58) complex                        
  
 executed on             LinuxIFC date 2024.05.18  01:34:23
 running   16 mpi-ranks, on    1 nodes
 distrk:  each k-point on   16 cores,    1 groups
 distr:  one band on NCORE=   2 cores,    8 groups


--------------------------------------------------------------------------------------------------------


 INCAR:
   ISTART = 0
   ISPIN = 1
   LREAL = Auto
   ENCUT = 520
   NPAR = 8
   LPLANE = .TRUE.
   LSCALU = .FALSE.
   NSIM = 4
   LWAVE = .FALSE.
   LCHARG = .FALSE.
   ADDGRID = .TRUE.
   LASPH = .TRUE.
   PREC = Accurate
   ISMEAR = 0
   SIGMA = 0.05
   EDIFF = 1E-06
   NSW = 0
   TEBEG = 300
   TEEND = 700     	
   ISYM = 0
   NWRITE = 2

 POTCAR:   PAW_PBE C 08Apr2002                    
 POTCAR:   PAW_PBE H 15Jun2001                    
 POTCAR:   PAW_PBE C 08Apr2002                    
   VRHFIN =C: s2p2                                                                                  
   LEXCH  = PE                                                                                      
   EATOM  =   147.1560 eV,   10.8157 Ry                                                             
                                                                                                    
   TITEL  = PAW_PBE C 08Apr2002                                                                     
   LULTRA =        F    use ultrasoft PP ?                                                          
   IUNSCR =        0    unscreen: 0-lin 1-nonlin 2-no                                               
   RPACOR =     .000    partial core radius                                                         
   POMASS =   12.011; ZVAL   =    4.000    mass and valenz                                          
   RCORE  =    1.500    outmost cutoff radius                                                       
   RWIGS  =    1.630; RWIGS  =     .863    wigner-seitz radius (au A)                               
   ENMAX  =  400.000; ENMIN  =  300.000 eV                                                          
   ICORE  =        2    local potential                                                             
   LCOR   =        T    correct aug charges                                                         
   LPAW   =        T    paw PP                                                                      
   EAUG   =  644.873                                                                                
   DEXC   =     .000                                                                                
   RMAX   =    2.266    core radius for proj-oper                                                   
   RAUG   =    1.300    factor for augmentation sphere                                              
   RDEP   =    1.501    radius for radial grids                                                     
   RDEPT  =    1.300    core radius for aug-charge                                                  
   QCUT   =   -5.516; QGAM   =   11.032    optimization parameters                                  
                                                                                                    
   Description                                                                                      
     l     E      TYP  RCUT    TYP  RCUT                                                            
     0   .000     23  1.200                                                                         
     0   .000     23  1.200                                                                         
     1   .000     23  1.500                                                                         
     1  2.500     23  1.500                                                                         
     2   .000      7  1.500                                                                         
  local pseudopotential read in
  atomic valenz-charges read in
  non local Contribution for L=           0  read in
    real space projection operators read in
  non local Contribution for L=           0  read in
    real space projection operators read in
  non local Contribution for L=           1  read in
    real space projection operators read in
  non local Contribution for L=           1  read in
    real space projection operators read in
    PAW grid and wavefunctions read in
 
   number of l-projection  operators is LMAX  =           4
   number of lm-projection operators is LMMAX =           8
 
 POTCAR:   PAW_PBE H 15Jun2001                    
   VRHFIN =H: ultrasoft test                                                                        
   LEXCH  = PE                                                                                      
   EATOM  =    12.4884 eV,     .9179 Ry                                                             
                                                                                                    
   TITEL  = PAW_PBE H 15Jun2001                                                                     
   LULTRA =        F    use ultrasoft PP ?                                                          
   IUNSCR =        0    unscreen: 0-lin 1-nonlin 2-no                                               
   RPACOR =     .000    partial core radius                                                         
   POMASS =    1.000; ZVAL   =    1.000    mass and valenz                                          
   RCORE  =    1.100    outmost cutoff radius                                                       
   RWIGS  =     .700; RWIGS  =     .370    wigner-seitz radius (au A)                               
   ENMAX  =  250.000; ENMIN  =  200.000 eV                                                          
   RCLOC  =     .701    cutoff for local pot                                                        
   LCOR   =        T    correct aug charges                                                         
   LPAW   =        T    paw PP                                                                      
   EAUG   =  400.000                                                                                
   RMAX   =    2.174    core radius for proj-oper                                                   
   RAUG   =    1.200    factor for augmentation sphere                                              
   RDEP   =    1.112    radius for radial grids                                                     
   QCUT   =   -5.749; QGAM   =   11.498    optimization parameters                                  
                                                                                                    
   Description                                                                                      
     l     E      TYP  RCUT    TYP  RCUT                                                            
     0   .000     23  1.100                                                                         
     0   .500     23  1.100                                                                         
     1  -.300     23  1.100                                                                         
  local pseudopotential read in
  atomic valenz-charges read in
  non local Contribution for L=           0  read in
    real space projection operators read in
  non local Contribution for L=           0  read in
    real space projection operators read in
  non local Contribution for L=           1  read in
    real space projection operators read in
    PAW grid and wavefunctions read in
 
   number of l-projection  operators is LMAX  =           3
   number of lm-projection operators is LMMAX =           5
 
 Optimization of the real space projectors (new method)

 maximal supplied QI-value         = 25.13
 optimisation between [QCUT,QGAM] = [ 11.56, 23.12] = [ 37.43,149.72] Ry 
 Optimized for a Real-space Cutoff    1.04 Angstroem

   l    n(q)    QCUT    max X(q) W(low)/X(q) W(high)/X(q)  e(spline) 
   0      7    11.561     5.582    0.47E-04    0.94E-04    0.17E-07
   0      7    11.561    69.432    0.20E-03    0.59E-03    0.21E-06
   1      7    11.561     2.780    0.24E-04    0.70E-04    0.44E-07
   1      7    11.561     4.549    0.18E-03    0.25E-03    0.12E-06
 Optimization of the real space projectors (new method)

 maximal supplied QI-value         = 34.20
 optimisation between [QCUT,QGAM] = [ 11.63, 23.26] = [ 37.87,151.49] Ry 
 Optimized for a Real-space Cutoff    1.21 Angstroem

   l    n(q)    QCUT    max X(q) W(low)/X(q) W(high)/X(q)  e(spline) 
   0      8    11.629     4.436    0.19E-04    0.32E-04    0.47E-07
   0      8    11.629    16.131    0.16E-03    0.33E-03    0.21E-06
   1      8    11.629     4.654    0.18E-03    0.16E-03    0.26E-06
 PAW_PBE C 08Apr2002                    :
 energy of atom  1       EATOM= -147.1560
 kinetic energy error for atom=    0.0071 (will be added to EATOM!!)
 PAW_PBE H 15Jun2001                    :
 energy of atom  2       EATOM=  -12.4884
 kinetic energy error for atom=    0.0014 (will be added to EATOM!!)
 
 
 POSCAR:  C  H
  positions in cartesian coordinates
  No initial velocities read in
 exchange correlation table for  LEXCH =        8
   RHO(1)=    0.500       N(1)  =     2000
   RHO(2)=  100.500       N(2)  =     4000

 VTST: version 4.1, (05/19/21)

 CHAIN: initializing optimizer
 
 OPT: Using VASP Dynamics algorithm
 CHAIN: Read ICHAIN            0
 
 POSCAR:  C  H
  positions in cartesian coordinates
  No initial velocities read in
 


--------------------------------------------------------------------------------------------------------


 ion  position               nearest neighbor table
   1  0.531  0.532  0.404-   5 1.08   6 1.09   2 1.34
   2  0.497  0.463  0.448-   7 1.09   1 1.34   3 1.40
   3  0.489  0.456  0.541-   8 1.08   2 1.40   4 1.41
   4  0.481  0.523  0.606-  10 1.13   9 1.14   3 1.41
   5  0.530  0.538  0.332-   1 1.08
   6  0.561  0.590  0.436-   1 1.09
   7  0.469  0.408  0.409-   2 1.09
   8  0.488  0.389  0.569-   3 1.08
   9  0.475  0.592  0.576-   4 1.14
  10  0.479  0.508  0.680-   4 1.13
 

IMPORTANT INFORMATION: All symmetrisations will be switched off!
NOSYMM: (Re-)initialisation of all symmetry stuff for point group C_1.


----------------------------------------------------------------------------------------

                                     Primitive cell                                     

  volume of cell :    3375.0000

  direct lattice vectors                    reciprocal lattice vectors
    15.000000000  0.000000000  0.000000000     0.066666667  0.000000000  0.000000000
     0.000000000 15.000000000  0.000000000     0.000000000  0.066666667  0.000000000
     0.000000000  0.000000000 15.000000000     0.000000000  0.000000000  0.066666667

  length of vectors
    15.000000000 15.000000000 15.000000000     0.066666667  0.066666667  0.066666667

  position of ions in fractional coordinates (direct lattice)
     0.531199996  0.532333342  0.403666655
     0.497066657  0.463000011  0.447866662
     0.489333344  0.455600007  0.540666644
     0.481199996  0.522999986  0.606133334
     0.529933325  0.538333321  0.331666660
     0.560600026  0.590466690  0.436466662
     0.469066652  0.407866669  0.409133339
     0.488266659  0.389000003  0.568666649
     0.474533335  0.592266655  0.575533358
     0.478866673  0.508200010  0.680266698

  ion indices of the primitive-cell ions
   primitive index   ion index
                 1           1
                 2           2
                 3           3
                 4           4
                 5           5
                 6           6
                 7           7
                 8           8
                 9           9
                10          10

----------------------------------------------------------------------------------------

 
 
 KPOINTS: K-Spacing Value to Generate K-Mesh: 1.00

Automatic generation of k-mesh.
 Grid dimensions read from file:
 generate k-points for:    1    1    1

 Generating k-lattice:

  Cartesian coordinates                     Fractional coordinates (reciprocal lattice)
     0.066666667  0.000000000  0.000000000     1.000000000  0.000000000  0.000000000
     0.000000000  0.066666667  0.000000000     0.000000000  1.000000000  0.000000000
     0.000000000  0.000000000  0.066666667     0.000000000  0.000000000  1.000000000

  Length of vectors
     0.066666667  0.066666667  0.066666667

  Shift w.r.t. Gamma in fractional coordinates (k-lattice)
     0.000000000  0.000000000  0.000000000

 
 Subroutine IBZKPT returns following result:
 ===========================================
 
 Found      1 irreducible k-points:
 
 Following reciprocal coordinates:
            Coordinates               Weight
  0.000000  0.000000  0.000000      1.000000
 
 Following cartesian coordinates:
            Coordinates               Weight
  0.000000  0.000000  0.000000      1.000000
 


--------------------------------------------------------------------------------------------------------




 Dimension of arrays:
   k-points           NKPTS =      1   k-points in BZ     NKDIM =      1   number of bands    NBANDS=     24
   number of dos      NEDOS =    301   number of ions     NIONS =     10
   non local maximal  LDIM  =      4   non local SUM 2l+1 LMDIM =      8
   total plane-waves  NPLWV = ******
   max r-space proj   IRMAX =   3145   max aug-charges    IRDMAX=  39494
   dimension x,y,z NGX =   112 NGY =  112 NGZ =  112
   dimension x,y,z NGXF=   224 NGYF=  224 NGZF=  224
   support grid    NGXF=   448 NGYF=  448 NGZF=  448
   ions per type =               4   6
   NGX,Y,Z   is equivalent  to a cutoff of  12.41, 12.41, 12.41 a.u.
   NGXF,Y,Z  is equivalent  to a cutoff of  24.83, 24.83, 24.83 a.u.

 SYSTEM =  unknown system                          
 POSCAR =   C  H                                   

 Startparameter for this run:
   NWRITE =      2    write-flag & timer
   PREC   = accura    normal or accurate (medium, high low for compatibility)
   ISTART =      0    job   : 0-new  1-cont  2-samecut
   ICHARG =      2    charge: 1-file 2-atom 10-const
   ISPIN  =      1    spin polarized calculation?
   LNONCOLLINEAR =      F non collinear calculations
   LSORBIT =      F    spin-orbit coupling
   INIWAV =      1    electr: 0-lowe 1-rand  2-diag
   LASPH  =      T    aspherical Exc in radial PAW
 Electronic Relaxation 1
   ENCUT  =  520.0 eV  38.22 Ry    6.18 a.u.  27.89 27.89 27.89*2*pi/ulx,y,z
   ENINI  =  520.0     initial cutoff
   ENAUG  =  644.9 eV  augmentation charge cutoff
   NELM   =     60;   NELMIN=  2; NELMDL= -5     # of ELM steps 
   EDIFF  = 0.1E-05   stopping-criterion for ELM
   LREAL  =      T    real-space projection
   NLSPLINE    = F    spline interpolate recip. space projectors
   LCOMPAT=      F    compatible to vasp.4.4
   GGA_COMPAT  = T    GGA compatible to vasp.4.4-vasp.4.6
   LMAXPAW     = -100 max onsite density
   LMAXMIX     =    2 max onsite mixed and CHGCAR
   VOSKOWN=      0    Vosko Wilk Nusair interpolation
   ROPT   =   -0.00025  -0.00025
 Ionic relaxation
   EDIFFG = 0.1E-04   stopping-criterion for IOM
   NSW    =      0    number of steps for IOM
   NBLOCK =      1;   KBLOCK =      1    inner block; outer block 
   IBRION =     -1    ionic relax: 0-MD 1-quasi-New 2-CG
   NFREE  =      0    steps in history (QN), initial steepest desc. (CG)
   ISIF   =      2    stress and relaxation
   IWAVPR =     10    prediction:  0-non 1-charg 2-wave 3-comb
   ISYM   =      0    0-nonsym 1-usesym 2-fastsym
   LCORR  =      T    Harris-Foulkes like correction to forces

   POTIM  = 0.5000    time-step for ionic-motion
   TEIN   =    0.0    initial temperature
   TEBEG  =  300.0;   TEEND  = 700.0 temperature during run
   SMASS  =  -3.00    Nose mass-parameter (am)
   estimated Nose-frequenzy (Omega)   =  0.10E-29 period in steps = 0.13E+47 mass=  -0.514E-26a.u.
   SCALEE = 1.0000    scale energy and forces
   NPACO  =    256;   APACO  = 10.0  distance and # of slots for P.C.
   PSTRESS=    0.0 pullay stress

  Mass of Ions in am
   POMASS =  12.01  1.00
  Ionic Valenz
   ZVAL   =   4.00  1.00
  Atomic Wigner-Seitz radii
   RWIGS  =  -1.00 -1.00
  virtual crystal weights 
   VCA    =   1.00  1.00
   NELECT =      22.0000    total number of electrons
   NUPDOWN=      -1.0000    fix difference up-down

 DOS related values:
   EMIN   =  10.00;   EMAX   =-10.00  energy-range for DOS
   EFERMI =   0.00;   METHOD = LEGACY      
   ISMEAR =     0;   SIGMA  =   0.05  broadening in eV -4-tet -1-fermi 0-gaus

 Electronic relaxation 2 (details)
   IALGO  =     38    algorithm
   LDIAG  =      T    sub-space diagonalisation (order eigenvalues)
   LSUBROT=      F    optimize rotation matrix (better conditioning)
   TURBO    =      0    0=normal 1=particle mesh
   IRESTART =      0    0=no restart 2=restart with 2 vectors
   NREBOOT  =      0    no. of reboots
   NMIN     =      0    reboot dimension
   EREF     =   0.00    reference energy to select bands
   IMIX   =      4    mixing-type and parameters
     AMIX     =   0.40;   BMIX     =  1.00
     AMIX_MAG =   1.60;   BMIX_MAG =  1.00
     AMIN     =   0.10
     WC   =   100.;   INIMIX=   1;  MIXPRE=   1;  MAXMIX= -45

 Intra band minimization:
   WEIMIN = 0.0000     energy-eigenvalue tresh-hold
   EBREAK =  0.10E-07  absolut break condition
   DEPER  =   0.30     relativ break condition  

   TIME   =   0.40     timestep for ELM

  volume/ion in A,a.u.               =     337.50      2277.56
  Fermi-wavevector in a.u.,A,eV,Ry     =   0.305814  0.577905  1.272449  0.093522
  Thomas-Fermi vector in A             =   1.179187
 
 Write flags
   LWAVE        =      F    write WAVECAR
   LDOWNSAMPLE  =      F    k-point downsampling of WAVECAR
   LCHARG       =      F    write CHGCAR
   LVTOT        =      F    write LOCPOT, total local potential
   LVHAR        =      F    write LOCPOT, Hartree potential only
   LELF         =      F    write electronic localiz. function (ELF)
   LORBIT       =      0    0 simple, 1 ext, 2 COOP (PROOUT), +10 PAW based schemes


 Dipole corrections
   LMONO  =      F    monopole corrections only (constant potential shift)
   LDIPOL =      F    correct potential (dipole corrections)
   IDIPOL =      0    1-x, 2-y, 3-z, 4-all directions 
   EPSILON=  1.0000000 bulk dielectric constant

 Exchange correlation treatment:
   GGA     =    --    GGA type
   LEXCH   =     8    internal setting for exchange type
   LIBXC   =     F    Libxc                    
   VOSKOWN =     0    Vosko Wilk Nusair interpolation
   LHFCALC =     F    Hartree Fock is set to
   LHFONE  =     F    Hartree Fock one center treatment
   AEXX    =    0.0000 exact exchange contribution

 Linear response parameters
   LEPSILON=     F    determine dielectric tensor
   LRPA    =     F    only Hartree local field effects (RPA)
   LNABLA  =     F    use nabla operator in PAW spheres
   LVEL    =     F    velocity operator in full k-point grid
   CSHIFT  =0.1000    complex shift for real part using Kramers Kronig
   OMEGAMAX=  -1.0    maximum frequency
   DEG_THRESHOLD= 0.2000000E-02 threshold for treating states as degnerate
   RTIME   =   -0.100 relaxation time in fs
  (WPLASMAI=    0.000 imaginary part of plasma frequency in eV, 0.658/RTIME)
   DFIELD  = 0.0000000 0.0000000 0.0000000 field for delta impulse in time
 
  Optional k-point grid parameters
   LKPOINTS_OPT  =     F    use optional k-point grid
   KPOINTS_OPT_MODE=     1    mode for optional k-point grid
 
 Orbital magnetization related:
   ORBITALMAG=     F  switch on orbital magnetization
   LCHIMAG   =     F  perturbation theory with respect to B field
   DQ        =  0.001000  dq finite difference perturbation B field
   LLRAUG    =     F  two centre corrections for induced B field
   LBONE     =     F  B-component reconstruction in AE one-centre
   LVGVCALC  =     T  calculate vGv susceptibility
   LVGVAPPL  =     F  apply vGv susceptibility instead of pGv for G=0

 Random number generation:
   RANDOM_GENERATOR = DEFAULT
   PCG_SEED         = not used


--------------------------------------------------------------------------------------------------------


 Static calculation
 charge density and potential will be updated during run
 non-spin polarized calculation
 Variant of blocked Davidson
 Davidson routine will perform the subspace rotation
 perform sub-space diagonalisation
    after iterative eigenvector-optimisation
 modified Broyden-mixing scheme, WC =      100.0
 initial mixing is a Kerker type mixing with AMIX =  0.4000 and BMIX =      1.0000
 Hartree-type preconditioning will be used
 using additional bands           13
 real space projection scheme for non local part
 calculate Harris-corrections to forces 
   (improved forces if not selfconsistent)
 use gradient corrections 
 use of overlap-Matrix (Vanderbilt PP)
 Gauss-broadening in eV      SIGMA  =   0.05


--------------------------------------------------------------------------------------------------------


  energy-cutoff  :      520.00
  volume of cell :     3375.00
      direct lattice vectors                 reciprocal lattice vectors
    15.000000000  0.000000000  0.000000000     0.066666667  0.000000000  0.000000000
     0.000000000 15.000000000  0.000000000     0.000000000  0.066666667  0.000000000
     0.000000000  0.000000000 15.000000000     0.000000000  0.000000000  0.066666667

  length of vectors
    15.000000000 15.000000000 15.000000000     0.066666667  0.066666667  0.066666667


 
 k-points in units of 2pi/SCALE and weight: K-Spacing Value to Generate K-Mesh: 1.00
   0.00000000  0.00000000  0.00000000       1.000
 
 k-points in reciprocal lattice and weights: K-Spacing Value to Generate K-Mesh: 1.00
   0.00000000  0.00000000  0.00000000       1.000
 
 position of ions in fractional coordinates (direct lattice) 
   0.53120000  0.53233334  0.40366666
   0.49706666  0.46300001  0.44786666
   0.48933334  0.45560001  0.54066664
   0.48120000  0.52299999  0.60613333
   0.52993333  0.53833332  0.33166666
   0.56060003  0.59046669  0.43646666
   0.46906665  0.40786667  0.40913334
   0.48826666  0.38900000  0.56866665
   0.47453334  0.59226665  0.57553336
   0.47886667  0.50820001  0.68026670
 
 position of ions in cartesian coordinates  (Angst):
   7.96799994  7.98500013  6.05499983
   7.45599985  6.94500017  6.71799994
   7.34000015  6.83400011  8.10999966
   7.21799994  7.84499979  9.09200001
   7.94899988  8.07499981  4.97499990
   8.40900040  8.85700035  6.54699993
   7.03599977  6.11800003  6.13700008
   7.32399988  5.83500004  8.52999973
   7.11800003  8.88399982  8.63300037
   7.18300009  7.62300014 10.20400047
 


--------------------------------------------------------------------------------------------------------


 k-point   1 :   0.0000 0.0000 0.0000  plane waves:   90879

 maximum and minimum number of plane-waves per node :     45467    45412

 maximum number of plane-waves:     90879
 maximum index in each direction: 
   IXMAX=   27   IYMAX=   27   IZMAX=   27
   IXMIN=  -27   IYMIN=  -27   IZMIN=  -27


 real space projection operators:
  total allocation   :       1187.45 KBytes
  max/ min on nodes  :        595.11        592.34


 parallel 3D FFT for wavefunctions:
    minimum data exchange during FFTs selected (reduces bandwidth)
 parallel 3D FFT for charge:
    minimum data exchange during FFTs selected (reduces bandwidth)


 total amount of memory used by VASP MPI-rank0   224781. kBytes
=======================================================================

   base      :      30000. kBytes
   nonlr-proj:       1257. kBytes
   fftplans  :     123538. kBytes
   grid      :      67787. kBytes
   one-center:         15. kBytes
   wavefun   :       2184. kBytes
 
     INWAV:  cpu time      0.0000: real time      0.0000
 Broyden mixing: mesh for mixing (old mesh)
   NGX = 55   NGY = 55   NGZ = 55
  (NGX  =224   NGY  =224   NGZ  =224)
  gives a total of 166375 points

 initial charge density was supplied:
 charge density of overlapping atoms calculated
 number of electron      22.0000000 magnetization 
 keeping initial charge density in first step


--------------------------------------------------------------------------------------------------------


 Maximum index for non-local projection operator         1504
 Maximum index for augmentation-charges         2494 (set IRDMAX)


--------------------------------------------------------------------------------------------------------


 First call to EWALD:  gamma=   0.118
 Maximum number of real-space cells 3x 3x 3
 Maximum number of reciprocal cells 3x 3x 3

    FEWALD:  cpu time      0.0011: real time      0.0011


--------------------------------------- Ionic step        1  -------------------------------------------




--------------------------------------- Iteration      1(   1)  ---------------------------------------


    POTLOK:  cpu time      0.3323: real time      0.3342
    SETDIJ:  cpu time      0.1928: real time      0.1936
     EDDAV:  cpu time      0.4206: real time      0.4229
       DOS:  cpu time      0.0002: real time      0.0002
    --------------------------------------------
      LOOP:  cpu time      0.9459: real time      0.9510

 eigenvalue-minimisations  :    64
 total energy-change (2. order) : 0.1050963E+03  (-0.5267759E+03)
 number of electron      22.0000000 magnetization 
 augmentation part       22.0000000 magnetization 

 Free energy of the ion-electron system (eV)
  ---------------------------------------------------
  alpha Z        PSCENC =         0.62641250
  Ewald energy   TEWEN  =       887.42347359
  -Hartree energ DENC   =     -1312.65507734
  -exchange      EXHF   =         0.00000000
  -V(xc)+E(xc)   XCENC  =        67.20409239
  PAW double counting   =       156.01372664     -160.66969168
  entropy T*S    EENTRO =        -0.00001146
  eigenvalues    EBANDS =      -196.36405992
  atomic energy  EATOM  =       663.51739852
  Solvation  Ediel_sol  =         0.00000000
  ---------------------------------------------------
  free energy    TOTEN  =       105.09626325 eV

  energy without entropy =      105.09627471  energy(sigma->0) =      105.09626898


--------------------------------------------------------------------------------------------------------




--------------------------------------- Iteration      1(   2)  ---------------------------------------


     EDDAV:  cpu time      0.4898: real time      0.4930
       DOS:  cpu time      0.0001: real time      0.0001
    --------------------------------------------
      LOOP:  cpu time      0.4899: real time      0.4931

 eigenvalue-minimisations  :    80
 total energy-change (2. order) :-0.1253181E+03  (-0.1214090E+03)
 number of electron      22.0000000 magnetization 
 augmentation part       22.0000000 magnetization 

 Free energy of the ion-electron system (eV)
  ---------------------------------------------------
  alpha Z        PSCENC =         0.62641250
  Ewald energy   TEWEN  =       887.42347359
  -Hartree energ DENC   =     -1312.65507734
  -exchange      EXHF   =         0.00000000
  -V(xc)+E(xc)   XCENC  =        67.20409239
  PAW double counting   =       156.01372664     -160.66969168
  entropy T*S    EENTRO =        -0.00000000
  eigenvalues    EBANDS =      -321.68217614
  atomic energy  EATOM  =       663.51739852
  Solvation  Ediel_sol  =         0.00000000
  ---------------------------------------------------
  free energy    TOTEN  =       -20.22184151 eV

  energy without entropy =      -20.22184151  energy(sigma->0) =      -20.22184151


--------------------------------------------------------------------------------------------------------




--------------------------------------- Iteration      1(   3)  ---------------------------------------


     EDDAV:  cpu time      0.4907: real time      0.4940
       DOS:  cpu time      0.0001: real time      0.0001
    --------------------------------------------
      LOOP:  cpu time      0.4908: real time      0.4941

 eigenvalue-minimisations  :    80
 total energy-change (2. order) :-0.4110449E+02  (-0.4102999E+02)
 number of electron      22.0000000 magnetization 
 augmentation part       22.0000000 magnetization 

 Free energy of the ion-electron system (eV)
  ---------------------------------------------------
  alpha Z        PSCENC =         0.62641250
  Ewald energy   TEWEN  =       887.42347359
  -Hartree energ DENC   =     -1312.65507734
  -exchange      EXHF   =         0.00000000
  -V(xc)+E(xc)   XCENC  =        67.20409239
  PAW double counting   =       156.01372664     -160.66969168
  entropy T*S    EENTRO =        -0.00000000
  eigenvalues    EBANDS =      -362.78666857
  atomic energy  EATOM  =       663.51739852
  Solvation  Ediel_sol  =         0.00000000
  ---------------------------------------------------
  free energy    TOTEN  =       -61.32633395 eV

  energy without entropy =      -61.32633395  energy(sigma->0) =      -61.32633395


--------------------------------------------------------------------------------------------------------




--------------------------------------- Iteration      1(   4)  ---------------------------------------


     EDDAV:  cpu time      0.4098: real time      0.4126
       DOS:  cpu time      0.0001: real time      0.0001
    --------------------------------------------
      LOOP:  cpu time      0.4099: real time      0.4127

 eigenvalue-minimisations  :    64
 total energy-change (2. order) :-0.1613453E+01  (-0.1611787E+01)
 number of electron      22.0000000 magnetization 
 augmentation part       22.0000000 magnetization 

 Free energy of the ion-electron system (eV)
  ---------------------------------------------------
  alpha Z        PSCENC =         0.62641250
  Ewald energy   TEWEN  =       887.42347359
  -Hartree energ DENC   =     -1312.65507734
  -exchange      EXHF   =         0.00000000
  -V(xc)+E(xc)   XCENC  =        67.20409239
  PAW double counting   =       156.01372664     -160.66969168
  entropy T*S    EENTRO =        -0.00000000
  eigenvalues    EBANDS =      -364.40012183
  atomic energy  EATOM  =       663.51739852
  Solvation  Ediel_sol  =         0.00000000
  ---------------------------------------------------
  free energy    TOTEN  =       -62.93978720 eV

  energy without entropy =      -62.93978720  energy(sigma->0) =      -62.93978720


--------------------------------------------------------------------------------------------------------




--------------------------------------- Iteration      1(   5)  ---------------------------------------


     EDDAV:  cpu time      0.4091: real time      0.4117
       DOS:  cpu time      0.0001: real time      0.0001
    CHARGE:  cpu time      0.2047: real time      0.2056
    MIXING:  cpu time      0.0076: real time      0.0076
    --------------------------------------------
      LOOP:  cpu time      0.6215: real time      0.6251

 eigenvalue-minimisations  :    64
 total energy-change (2. order) :-0.1359508E-01  (-0.1357928E-01)
 number of electron      22.0000000 magnetization 
 augmentation part        0.5791751 magnetization 

 Broyden mixing:
  rms(total) = 0.11723E+01    rms(broyden)= 0.11721E+01
  rms(prec ) = 0.14076E+01
  weight for this iteration     100.00

 Free energy of the ion-electron system (eV)
  ---------------------------------------------------
  alpha Z        PSCENC =         0.62641250
  Ewald energy   TEWEN  =       887.42347359
  -Hartree energ DENC   =     -1312.65507734
  -exchange      EXHF   =         0.00000000
  -V(xc)+E(xc)   XCENC  =        67.20409239
  PAW double counting   =       156.01372664     -160.66969168
  entropy T*S    EENTRO =        -0.00000000
  eigenvalues    EBANDS =      -364.41371691
  atomic energy  EATOM  =       663.51739852
  Solvation  Ediel_sol  =         0.00000000
  ---------------------------------------------------
  free energy    TOTEN  =       -62.95338228 eV

  energy without entropy =      -62.95338228  energy(sigma->0) =      -62.95338228


--------------------------------------------------------------------------------------------------------




--------------------------------------- Iteration      1(   6)  ---------------------------------------


    POTLOK:  cpu time      0.3045: real time      0.3064
    SETDIJ:  cpu time      0.1943: real time      0.1953
     EDDAV:  cpu time      0.4095: real time      0.4122
       DOS:  cpu time      0.0001: real time      0.0001
    CHARGE:  cpu time      0.1954: real time      0.1963
    MIXING:  cpu time      0.0152: real time      0.0153
    --------------------------------------------
      LOOP:  cpu time      1.1191: real time      1.1255

 eigenvalue-minimisations  :    64
 total energy-change (2. order) : 0.5082126E+01  (-0.7535749E+00)
 number of electron      22.0000000 magnetization 
 augmentation part        0.5316621 magnetization 

 Broyden mixing:
  rms(total) = 0.56791E+00    rms(broyden)= 0.56788E+00
  rms(prec ) = 0.67357E+00
  weight for this iteration     100.00

 eigenvalues of (default mixing * dielectric matrix)
  average eigenvalue GAMMA=   1.6300
  1.6300

 Free energy of the ion-electron system (eV)
  ---------------------------------------------------
  alpha Z        PSCENC =         0.62641250
  Ewald energy   TEWEN  =       887.42347359
  -Hartree energ DENC   =     -1359.14885345
  -exchange      EXHF   =         0.00000000
  -V(xc)+E(xc)   XCENC  =        69.59794163
  PAW double counting   =       228.64354149     -233.84621465
  entropy T*S    EENTRO =        -0.00000000
  eigenvalues    EBANDS =      -314.68495629
  atomic energy  EATOM  =       663.51739852
  Solvation  Ediel_sol  =         0.00000000
  ---------------------------------------------------
  free energy    TOTEN  =       -57.87125666 eV

  energy without entropy =      -57.87125666  energy(sigma->0) =      -57.87125666


--------------------------------------------------------------------------------------------------------




--------------------------------------- Iteration      1(   7)  ---------------------------------------


    POTLOK:  cpu time      0.3069: real time      0.3088
    SETDIJ:  cpu time      0.1940: real time      0.1949
     EDDAV:  cpu time      0.4123: real time      0.4149
       DOS:  cpu time      0.0001: real time      0.0001
    CHARGE:  cpu time      0.1952: real time      0.1961
    MIXING:  cpu time      0.0146: real time      0.0146
    --------------------------------------------
      LOOP:  cpu time      1.1232: real time      1.1294

 eigenvalue-minimisations  :    64
 total energy-change (2. order) : 0.1189040E+01  (-0.4566695E+00)
 number of electron      22.0000000 magnetization 
 augmentation part        0.4980407 magnetization 

 Broyden mixing:
  rms(total) = 0.22696E+00    rms(broyden)= 0.22689E+00
  rms(prec ) = 0.25953E+00
  weight for this iteration     100.00

 eigenvalues of (default mixing * dielectric matrix)
  average eigenvalue GAMMA=   1.7127
  1.7127  1.7127

 Free energy of the ion-electron system (eV)
  ---------------------------------------------------
  alpha Z        PSCENC =         0.62641250
  Ewald energy   TEWEN  =       887.42347359
  -Hartree energ DENC   =     -1396.93579189
  -exchange      EXHF   =         0.00000000
  -V(xc)+E(xc)   XCENC  =        71.77327255
  PAW double counting   =       290.39294976     -295.85790796
  entropy T*S    EENTRO =        -0.00000000
  eigenvalues    EBANDS =      -277.62202333
  atomic energy  EATOM  =       663.51739852
  Solvation  Ediel_sol  =         0.00000000
  ---------------------------------------------------
  free energy    TOTEN  =       -56.68221626 eV

  energy without entropy =      -56.68221626  energy(sigma->0) =      -56.68221626


--------------------------------------------------------------------------------------------------------




--------------------------------------- Iteration      1(   8)  ---------------------------------------


    POTLOK:  cpu time      0.3099: real time      0.3119
    SETDIJ:  cpu time      0.1924: real time      0.1933
     EDDAV:  cpu time      0.4467: real time      0.4495
       DOS:  cpu time      0.0001: real time      0.0001
    CHARGE:  cpu time      0.1947: real time      0.1956
    MIXING:  cpu time      0.0138: real time      0.0139
    --------------------------------------------
      LOOP:  cpu time      1.1577: real time      1.1642

 eigenvalue-minimisations  :    72
 total energy-change (2. order) : 0.1473465E+00  (-0.2379380E-01)
 number of electron      22.0000000 magnetization 
 augmentation part        0.4988323 magnetization 

 Broyden mixing:
  rms(total) = 0.71253E-01    rms(broyden)= 0.71246E-01
  rms(prec ) = 0.97533E-01
  weight for this iteration     100.00

 eigenvalues of (default mixing * dielectric matrix)
  average eigenvalue GAMMA=   1.6147
  2.3926  0.8378  1.6138

 Free energy of the ion-electron system (eV)
  ---------------------------------------------------
  alpha Z        PSCENC =         0.62641250
  Ewald energy   TEWEN  =       887.42347359
  -Hartree energ DENC   =     -1402.08672946
  -exchange      EXHF   =         0.00000000
  -V(xc)+E(xc)   XCENC  =        72.18786195
  PAW double counting   =       294.71547458     -300.06343998
  entropy T*S    EENTRO =        -0.00000000
  eigenvalues    EBANDS =      -272.85532150
  atomic energy  EATOM  =       663.51739852
  Solvation  Ediel_sol  =         0.00000000
  ---------------------------------------------------
  free energy    TOTEN  =       -56.53486980 eV

  energy without entropy =      -56.53486980  energy(sigma->0) =      -56.53486980


--------------------------------------------------------------------------------------------------------




--------------------------------------- Iteration      1(   9)  ---------------------------------------


    POTLOK:  cpu time      0.3109: real time      0.3127
    SETDIJ:  cpu time      0.1935: real time      0.1944
     EDDAV:  cpu time      0.3674: real time      0.3697
       DOS:  cpu time      0.0001: real time      0.0001
    CHARGE:  cpu time      0.1948: real time      0.1957
    MIXING:  cpu time      0.0153: real time      0.0154
    --------------------------------------------
      LOOP:  cpu time      1.0820: real time      1.0881

 eigenvalue-minimisations  :    56
 total energy-change (2. order) : 0.3998456E-01  (-0.5914222E-02)
 number of electron      22.0000000 magnetization 
 augmentation part        0.4966948 magnetization 

 Broyden mixing:
  rms(total) = 0.26808E-01    rms(broyden)= 0.26802E-01
  rms(prec ) = 0.49699E-01
  weight for this iteration     100.00

 eigenvalues of (default mixing * dielectric matrix)
  average eigenvalue GAMMA=   1.4204
  2.2794  1.5611  0.9205  0.9205

 Free energy of the ion-electron system (eV)
  ---------------------------------------------------
  alpha Z        PSCENC =         0.62641250
  Ewald energy   TEWEN  =       887.42347359
  -Hartree energ DENC   =     -1408.16898576
  -exchange      EXHF   =         0.00000000
  -V(xc)+E(xc)   XCENC  =        72.54283404
  PAW double counting   =       300.09829101     -305.41710390
  entropy T*S    EENTRO =        -0.00000000
  eigenvalues    EBANDS =      -267.11720524
  atomic energy  EATOM  =       663.51739852
  Solvation  Ediel_sol  =         0.00000000
  ---------------------------------------------------
  free energy    TOTEN  =       -56.49488524 eV

  energy without entropy =      -56.49488524  energy(sigma->0) =      -56.49488524


--------------------------------------------------------------------------------------------------------




--------------------------------------- Iteration      1(  10)  ---------------------------------------


    POTLOK:  cpu time      0.3128: real time      0.3147
    SETDIJ:  cpu time      0.1925: real time      0.1934
     EDDAV:  cpu time      0.4066: real time      0.4091
       DOS:  cpu time      0.0001: real time      0.0001
    CHARGE:  cpu time      0.1937: real time      0.1946
    MIXING:  cpu time      0.0142: real time      0.0143
    --------------------------------------------
      LOOP:  cpu time      1.1199: real time      1.1261

 eigenvalue-minimisations  :    64
 total energy-change (2. order) : 0.5463344E-02  (-0.2082809E-02)
 number of electron      22.0000000 magnetization 
 augmentation part        0.4949594 magnetization 

 Broyden mixing:
  rms(total) = 0.18320E-01    rms(broyden)= 0.18316E-01
  rms(prec ) = 0.36318E-01
  weight for this iteration     100.00

 eigenvalues of (default mixing * dielectric matrix)
  average eigenvalue GAMMA=   1.6021
  2.4395  2.2684  0.9201  1.1911  1.1911

 Free energy of the ion-electron system (eV)
  ---------------------------------------------------
  alpha Z        PSCENC =         0.62641250
  Ewald energy   TEWEN  =       887.42347359
  -Hartree energ DENC   =     -1410.78930485
  -exchange      EXHF   =         0.00000000
  -V(xc)+E(xc)   XCENC  =        72.60147415
  PAW double counting   =       300.45889509     -305.79374746
  entropy T*S    EENTRO =        -0.00000000
  eigenvalues    EBANDS =      -264.53402343
  atomic energy  EATOM  =       663.51739852
  Solvation  Ediel_sol  =         0.00000000
  ---------------------------------------------------
  free energy    TOTEN  =       -56.48942190 eV

  energy without entropy =      -56.48942190  energy(sigma->0) =      -56.48942190


--------------------------------------------------------------------------------------------------------




--------------------------------------- Iteration      1(  11)  ---------------------------------------


    POTLOK:  cpu time      0.3123: real time      0.3142
    SETDIJ:  cpu time      0.1938: real time      0.1947
     EDDAV:  cpu time      0.3683: real time      0.3707
       DOS:  cpu time      0.0001: real time      0.0001
    CHARGE:  cpu time      0.1939: real time      0.1947
    MIXING:  cpu time      0.0145: real time      0.0146
    --------------------------------------------
      LOOP:  cpu time      1.0829: real time      1.0890

 eigenvalue-minimisations  :    56
 total energy-change (2. order) : 0.9840934E-02  (-0.6012926E-03)
 number of electron      22.0000000 magnetization 
 augmentation part        0.4947006 magnetization 

 Broyden mixing:
  rms(total) = 0.75916E-02    rms(broyden)= 0.75910E-02
  rms(prec ) = 0.18365E-01
  weight for this iteration     100.00

 eigenvalues of (default mixing * dielectric matrix)
  average eigenvalue GAMMA=   1.6928
  3.2182  2.4752  1.3730  1.0326  1.0290  1.0290

 Free energy of the ion-electron system (eV)
  ---------------------------------------------------
  alpha Z        PSCENC =         0.62641250
  Ewald energy   TEWEN  =       887.42347359
  -Hartree energ DENC   =     -1414.78509070
  -exchange      EXHF   =         0.00000000
  -V(xc)+E(xc)   XCENC  =        72.70330174
  PAW double counting   =       298.88133461     -304.19865097
  entropy T*S    EENTRO =        -0.00000000
  eigenvalues    EBANDS =      -260.64776026
  atomic energy  EATOM  =       663.51739852
  Solvation  Ediel_sol  =         0.00000000
  ---------------------------------------------------
  free energy    TOTEN  =       -56.47958096 eV

  energy without entropy =      -56.47958096  energy(sigma->0) =      -56.47958096


--------------------------------------------------------------------------------------------------------




--------------------------------------- Iteration      1(  12)  ---------------------------------------


    POTLOK:  cpu time      0.3100: real time      0.3118
    SETDIJ:  cpu time      0.1913: real time      0.1921
     EDDAV:  cpu time      0.4114: real time      0.4136
       DOS:  cpu time      0.0001: real time      0.0001
    CHARGE:  cpu time      0.1944: real time      0.1952
    MIXING:  cpu time      0.0152: real time      0.0152
    --------------------------------------------
      LOOP:  cpu time      1.1223: real time      1.1281

 eigenvalue-minimisations  :    64
 total energy-change (2. order) : 0.8355842E-03  (-0.2903128E-03)
 number of electron      22.0000000 magnetization 
 augmentation part        0.4942707 magnetization 

 Broyden mixing:
  rms(total) = 0.62137E-02    rms(broyden)= 0.62133E-02
  rms(prec ) = 0.12142E-01
  weight for this iteration     100.00

 eigenvalues of (default mixing * dielectric matrix)
  average eigenvalue GAMMA=   1.8023
  4.0166  2.3909  1.8844  1.2222  1.2222  0.9400  0.9400

 Free energy of the ion-electron system (eV)
  ---------------------------------------------------
  alpha Z        PSCENC =         0.62641250
  Ewald energy   TEWEN  =       887.42347359
  -Hartree energ DENC   =     -1416.95287990
  -exchange      EXHF   =         0.00000000
  -V(xc)+E(xc)   XCENC  =        72.74382321
  PAW double counting   =       298.44244456     -303.76170225
  entropy T*S    EENTRO =        -0.00000000
  eigenvalues    EBANDS =      -258.51771562
  atomic energy  EATOM  =       663.51739852
  Solvation  Ediel_sol  =         0.00000000
  ---------------------------------------------------
  free energy    TOTEN  =       -56.47874538 eV

  energy without entropy =      -56.47874538  energy(sigma->0) =      -56.47874538


--------------------------------------------------------------------------------------------------------




--------------------------------------- Iteration      1(  13)  ---------------------------------------


    POTLOK:  cpu time      0.3073: real time      0.3089
    SETDIJ:  cpu time      0.1917: real time      0.1926
     EDDAV:  cpu time      0.3659: real time      0.3678
       DOS:  cpu time      0.0001: real time      0.0001
    CHARGE:  cpu time      0.1933: real time      0.1940
    MIXING:  cpu time      0.0159: real time      0.0159
    --------------------------------------------
      LOOP:  cpu time      1.0741: real time      1.0794

 eigenvalue-minimisations  :    56
 total energy-change (2. order) :-0.8264634E-02  (-0.1303513E-03)
 number of electron      22.0000000 magnetization 
 augmentation part        0.4941126 magnetization 

 Broyden mixing:
  rms(total) = 0.34358E-02    rms(broyden)= 0.34356E-02
  rms(prec ) = 0.72784E-02
  weight for this iteration     100.00

 eigenvalues of (default mixing * dielectric matrix)
  average eigenvalue GAMMA=   1.8934
  4.9178  2.6410  2.1903  1.2861  1.2861  0.9190  0.9536  0.9536

 Free energy of the ion-electron system (eV)
  ---------------------------------------------------
  alpha Z        PSCENC =         0.62641250
  Ewald energy   TEWEN  =       887.42347359
  -Hartree energ DENC   =     -1417.85210916
  -exchange      EXHF   =         0.00000000
  -V(xc)+E(xc)   XCENC  =        72.75140790
  PAW double counting   =       298.50184468     -303.82179653
  entropy T*S    EENTRO =        -0.00000000
  eigenvalues    EBANDS =      -257.63364151
  atomic energy  EATOM  =       663.51739852
  Solvation  Ediel_sol  =         0.00000000
  ---------------------------------------------------
  free energy    TOTEN  =       -56.48701001 eV

  energy without entropy =      -56.48701001  energy(sigma->0) =      -56.48701001


--------------------------------------------------------------------------------------------------------




--------------------------------------- Iteration      1(  14)  ---------------------------------------


    POTLOK:  cpu time      0.3118: real time      0.3134
    SETDIJ:  cpu time      0.1910: real time      0.1918
     EDDAV:  cpu time      0.4127: real time      0.4149
       DOS:  cpu time      0.0002: real time      0.0002
    CHARGE:  cpu time      0.1957: real time      0.1965
    MIXING:  cpu time      0.0177: real time      0.0177
    --------------------------------------------
      LOOP:  cpu time      1.1291: real time      1.1346

 eigenvalue-minimisations  :    64
 total energy-change (2. order) :-0.5788518E-02  (-0.6636172E-04)
 number of electron      22.0000000 magnetization 
 augmentation part        0.4941100 magnetization 

 Broyden mixing:
  rms(total) = 0.22892E-02    rms(broyden)= 0.22890E-02
  rms(prec ) = 0.45676E-02
  weight for this iteration     100.00

 eigenvalues of (default mixing * dielectric matrix)
  average eigenvalue GAMMA=   2.0730
  5.8970  3.1289  2.1347  2.1347  1.2725  1.2725  0.9656  0.9656  0.8860

 Free energy of the ion-electron system (eV)
  ---------------------------------------------------
  alpha Z        PSCENC =         0.62641250
  Ewald energy   TEWEN  =       887.42347359
  -Hartree energ DENC   =     -1418.11752496
  -exchange      EXHF   =         0.00000000
  -V(xc)+E(xc)   XCENC  =        72.74169416
  PAW double counting   =       298.39672158     -303.71639685
  entropy T*S    EENTRO =        -0.00000000
  eigenvalues    EBANDS =      -257.36457707
  atomic energy  EATOM  =       663.51739852
  Solvation  Ediel_sol  =         0.00000000
  ---------------------------------------------------
  free energy    TOTEN  =       -56.49279853 eV

  energy without entropy =      -56.49279853  energy(sigma->0) =      -56.49279853


--------------------------------------------------------------------------------------------------------




--------------------------------------- Iteration      1(  15)  ---------------------------------------


    POTLOK:  cpu time      0.3030: real time      0.3046
    SETDIJ:  cpu time      0.1910: real time      0.1918
     EDDAV:  cpu time      0.4098: real time      0.4120
       DOS:  cpu time      0.0001: real time      0.0001
    CHARGE:  cpu time      0.1939: real time      0.1947
    MIXING:  cpu time      0.0172: real time      0.0173
    --------------------------------------------
      LOOP:  cpu time      1.1149: real time      1.1204

 eigenvalue-minimisations  :    64
 total energy-change (2. order) :-0.5663840E-02  (-0.1105444E-03)
 number of electron      22.0000000 magnetization 
 augmentation part        0.4941936 magnetization 

 Broyden mixing:
  rms(total) = 0.16960E-02    rms(broyden)= 0.16957E-02
  rms(prec ) = 0.26086E-02
  weight for this iteration     100.00

 eigenvalues of (default mixing * dielectric matrix)
  average eigenvalue GAMMA=   2.0836
  6.3264  3.6670  2.4065  1.7103  1.4144  1.4144  1.0139  1.0139  0.9060  0.9633

 Free energy of the ion-electron system (eV)
  ---------------------------------------------------
  alpha Z        PSCENC =         0.62641250
  Ewald energy   TEWEN  =       887.42347359
  -Hartree energ DENC   =     -1418.10425665
  -exchange      EXHF   =         0.00000000
  -V(xc)+E(xc)   XCENC  =        72.72708822
  PAW double counting   =       298.38626108     -303.70415732
  entropy T*S    EENTRO =        -0.00000000
  eigenvalues    EBANDS =      -257.37068232
  atomic energy  EATOM  =       663.51739852
  Solvation  Ediel_sol  =         0.00000000
  ---------------------------------------------------
  free energy    TOTEN  =       -56.49846237 eV

  energy without entropy =      -56.49846237  energy(sigma->0) =      -56.49846237


--------------------------------------------------------------------------------------------------------




--------------------------------------- Iteration      1(  16)  ---------------------------------------


    POTLOK:  cpu time      0.3017: real time      0.3033
    SETDIJ:  cpu time      0.1921: real time      0.1929
     EDDAV:  cpu time      0.3728: real time      0.3748
       DOS:  cpu time      0.0001: real time      0.0001
    CHARGE:  cpu time      0.1944: real time      0.1952
    MIXING:  cpu time      0.0163: real time      0.0164
    --------------------------------------------
      LOOP:  cpu time      1.0774: real time      1.0827

 eigenvalue-minimisations  :    56
 total energy-change (2. order) :-0.1174498E-02  (-0.1402425E-04)
 number of electron      22.0000000 magnetization 
 augmentation part        0.4941186 magnetization 

 Broyden mixing:
  rms(total) = 0.11646E-02    rms(broyden)= 0.11645E-02
  rms(prec ) = 0.16689E-02
  weight for this iteration     100.00

 eigenvalues of (default mixing * dielectric matrix)
  average eigenvalue GAMMA=   2.1801
  7.3810  4.0162  2.3881  2.2034  1.4917  1.4917  1.1228  1.1228  0.8983  0.9325
  0.9325

 Free energy of the ion-electron system (eV)
  ---------------------------------------------------
  alpha Z        PSCENC =         0.62641250
  Ewald energy   TEWEN  =       887.42347359
  -Hartree energ DENC   =     -1418.18585996
  -exchange      EXHF   =         0.00000000
  -V(xc)+E(xc)   XCENC  =        72.72819903
  PAW double counting   =       298.47563187     -303.79395885
  entropy T*S    EENTRO =        -0.00000000
  eigenvalues    EBANDS =      -257.29093357
  atomic energy  EATOM  =       663.51739852
  Solvation  Ediel_sol  =         0.00000000
  ---------------------------------------------------
  free energy    TOTEN  =       -56.49963687 eV

  energy without entropy =      -56.49963687  energy(sigma->0) =      -56.49963687


--------------------------------------------------------------------------------------------------------




--------------------------------------- Iteration      1(  17)  ---------------------------------------


    POTLOK:  cpu time      0.2991: real time      0.3007
    SETDIJ:  cpu time      0.1922: real time      0.1930
     EDDAV:  cpu time      0.3703: real time      0.3723
       DOS:  cpu time      0.0001: real time      0.0001
    CHARGE:  cpu time      0.1938: real time      0.1946
    MIXING:  cpu time      0.0148: real time      0.0149
    --------------------------------------------
      LOOP:  cpu time      1.0703: real time      1.0756

 eigenvalue-minimisations  :    56
 total energy-change (2. order) :-0.8473242E-03  (-0.8177291E-05)
 number of electron      22.0000000 magnetization 
 augmentation part        0.4941014 magnetization 

 Broyden mixing:
  rms(total) = 0.52847E-03    rms(broyden)= 0.52832E-03
  rms(prec ) = 0.86786E-03
  weight for this iteration     100.00

 eigenvalues of (default mixing * dielectric matrix)
  average eigenvalue GAMMA=   2.1563
  7.5968  4.4985  2.5076  2.2486  1.4397  1.2657  1.1819  0.8900  0.9717  0.9717
  1.1517  1.1517

 Free energy of the ion-electron system (eV)
  ---------------------------------------------------
  alpha Z        PSCENC =         0.62641250
  Ewald energy   TEWEN  =       887.42347359
  -Hartree energ DENC   =     -1418.19541690
  -exchange      EXHF   =         0.00000000
  -V(xc)+E(xc)   XCENC  =        72.72597681
  PAW double counting   =       298.43083181     -303.74916733
  entropy T*S    EENTRO =        -0.00000000
  eigenvalues    EBANDS =      -257.27999319
  atomic energy  EATOM  =       663.51739852
  Solvation  Ediel_sol  =         0.00000000
  ---------------------------------------------------
  free energy    TOTEN  =       -56.50048419 eV

  energy without entropy =      -56.50048419  energy(sigma->0) =      -56.50048419


--------------------------------------------------------------------------------------------------------




--------------------------------------- Iteration      1(  18)  ---------------------------------------


    POTLOK:  cpu time      0.2967: real time      0.2984
    SETDIJ:  cpu time      0.1933: real time      0.1941
     EDDAV:  cpu time      0.4881: real time      0.4907
       DOS:  cpu time      0.0001: real time      0.0001
    CHARGE:  cpu time      0.1936: real time      0.1945
    MIXING:  cpu time      0.0166: real time      0.0166
    --------------------------------------------
      LOOP:  cpu time      1.1884: real time      1.1943

 eigenvalue-minimisations  :    80
 total energy-change (2. order) :-0.2486740E-03  (-0.1571079E-05)
 number of electron      22.0000000 magnetization 
 augmentation part        0.4940566 magnetization 

 Broyden mixing:
  rms(total) = 0.32449E-03    rms(broyden)= 0.32439E-03
  rms(prec ) = 0.57786E-03
  weight for this iteration     100.00

 eigenvalues of (default mixing * dielectric matrix)
  average eigenvalue GAMMA=   2.2313
  8.2473  4.8729  2.5655  2.5655  1.8691  1.2402  1.2402  1.3370  1.3370  0.9696
  0.9696  0.9289  0.8645

 Free energy of the ion-electron system (eV)
  ---------------------------------------------------
  alpha Z        PSCENC =         0.62641250
  Ewald energy   TEWEN  =       887.42347359
  -Hartree energ DENC   =     -1418.23496556
  -exchange      EXHF   =         0.00000000
  -V(xc)+E(xc)   XCENC  =        72.72702296
  PAW double counting   =       298.45416525     -303.77276728
  entropy T*S    EENTRO =        -0.00000000
  eigenvalues    EBANDS =      -257.24147285
  atomic energy  EATOM  =       663.51739852
  Solvation  Ediel_sol  =         0.00000000
  ---------------------------------------------------
  free energy    TOTEN  =       -56.50073287 eV

  energy without entropy =      -56.50073287  energy(sigma->0) =      -56.50073287


--------------------------------------------------------------------------------------------------------




--------------------------------------- Iteration      1(  19)  ---------------------------------------


    POTLOK:  cpu time      0.2961: real time      0.2977
    SETDIJ:  cpu time      0.1906: real time      0.1915
     EDDAV:  cpu time      0.3711: real time      0.3731
       DOS:  cpu time      0.0001: real time      0.0001
    CHARGE:  cpu time      0.1931: real time      0.1939
    MIXING:  cpu time      0.0175: real time      0.0175
    --------------------------------------------
      LOOP:  cpu time      1.0686: real time      1.0738

 eigenvalue-minimisations  :    56
 total energy-change (2. order) :-0.2816578E-03  (-0.1642930E-05)
 number of electron      22.0000000 magnetization 
 augmentation part        0.4940662 magnetization 

 Broyden mixing:
  rms(total) = 0.17984E-03    rms(broyden)= 0.17977E-03
  rms(prec ) = 0.29692E-03
  weight for this iteration     100.00

 eigenvalues of (default mixing * dielectric matrix)
  average eigenvalue GAMMA=   2.2303
  8.4511  5.2137  3.1557  2.3759  2.1223  1.4119  1.4119  1.1395  1.1395  1.0075
  1.0075  0.9592  0.9592  0.8697

 Free energy of the ion-electron system (eV)
  ---------------------------------------------------
  alpha Z        PSCENC =         0.62641250
  Ewald energy   TEWEN  =       887.42347359
  -Hartree energ DENC   =     -1418.22335948
  -exchange      EXHF   =         0.00000000
  -V(xc)+E(xc)   XCENC  =        72.72590909
  PAW double counting   =       298.42434811     -303.74290668
  entropy T*S    EENTRO =        -0.00000000
  eigenvalues    EBANDS =      -257.25229017
  atomic energy  EATOM  =       663.51739852
  Solvation  Ediel_sol  =         0.00000000
  ---------------------------------------------------
  free energy    TOTEN  =       -56.50101452 eV

  energy without entropy =      -56.50101452  energy(sigma->0) =      -56.50101452


--------------------------------------------------------------------------------------------------------




--------------------------------------- Iteration      1(  20)  ---------------------------------------


    POTLOK:  cpu time      0.2963: real time      0.2980
    SETDIJ:  cpu time      0.1908: real time      0.1916
     EDDAV:  cpu time      0.3728: real time      0.3748
       DOS:  cpu time      0.0001: real time      0.0001
    CHARGE:  cpu time      0.1927: real time      0.1934
    MIXING:  cpu time      0.0178: real time      0.0178
    --------------------------------------------
      LOOP:  cpu time      1.0705: real time      1.0758

 eigenvalue-minimisations  :    56
 total energy-change (2. order) :-0.6691262E-04  (-0.2385783E-06)
 number of electron      22.0000000 magnetization 
 augmentation part        0.4940635 magnetization 

 Broyden mixing:
  rms(total) = 0.11942E-03    rms(broyden)= 0.11934E-03
  rms(prec ) = 0.19689E-03
  weight for this iteration     100.00

 eigenvalues of (default mixing * dielectric matrix)
  average eigenvalue GAMMA=   2.2813
  8.7037  5.5448  3.5124  2.4595  2.3628  1.6861  1.4621  1.2709  1.2709  1.1213
  1.1213  0.9712  0.9712  0.8417  0.9197

 Free energy of the ion-electron system (eV)
  ---------------------------------------------------
  alpha Z        PSCENC =         0.62641250
  Ewald energy   TEWEN  =       887.42347359
  -Hartree energ DENC   =     -1418.23530542
  -exchange      EXHF   =         0.00000000
  -V(xc)+E(xc)   XCENC  =        72.72639130
  PAW double counting   =       298.43110569     -303.74967049
  entropy T*S    EENTRO =        -0.00000000
  eigenvalues    EBANDS =      -257.24088712
  atomic energy  EATOM  =       663.51739852
  Solvation  Ediel_sol  =         0.00000000
  ---------------------------------------------------
  free energy    TOTEN  =       -56.50108144 eV

  energy without entropy =      -56.50108144  energy(sigma->0) =      -56.50108144


--------------------------------------------------------------------------------------------------------




--------------------------------------- Iteration      1(  21)  ---------------------------------------


    POTLOK:  cpu time      0.3001: real time      0.3017
    SETDIJ:  cpu time      0.1902: real time      0.1910
     EDDAV:  cpu time      0.3688: real time      0.3708
       DOS:  cpu time      0.0002: real time      0.0002
    CHARGE:  cpu time      0.1946: real time      0.1954
    MIXING:  cpu time      0.0179: real time      0.0180
    --------------------------------------------
      LOOP:  cpu time      1.0718: real time      1.0771

 eigenvalue-minimisations  :    56
 total energy-change (2. order) :-0.5159798E-04  (-0.1179081E-06)
 number of electron      22.0000000 magnetization 
 augmentation part        0.4940666 magnetization 

 Broyden mixing:
  rms(total) = 0.69897E-04    rms(broyden)= 0.69761E-04
  rms(prec ) = 0.10376E-03
  weight for this iteration     100.00

 eigenvalues of (default mixing * dielectric matrix)
  average eigenvalue GAMMA=   2.2782
  8.8615  5.7722  3.9432  2.7132  2.3019  2.0559  1.2269  1.2269  1.3150  1.3150
  1.0134  1.0134  0.9814  0.9814  0.8646  0.8646

 Free energy of the ion-electron system (eV)
  ---------------------------------------------------
  alpha Z        PSCENC =         0.62641250
  Ewald energy   TEWEN  =       887.42347359
  -Hartree energ DENC   =     -1418.23359233
  -exchange      EXHF   =         0.00000000
  -V(xc)+E(xc)   XCENC  =        72.72610872
  PAW double counting   =       298.43136549     -303.74993047
  entropy T*S    EENTRO =        -0.00000000
  eigenvalues    EBANDS =      -257.24236905
  atomic energy  EATOM  =       663.51739852
  Solvation  Ediel_sol  =         0.00000000
  ---------------------------------------------------
  free energy    TOTEN  =       -56.50113303 eV

  energy without entropy =      -56.50113303  energy(sigma->0) =      -56.50113303


--------------------------------------------------------------------------------------------------------




--------------------------------------- Iteration      1(  22)  ---------------------------------------


    POTLOK:  cpu time      0.3058: real time      0.3074
    SETDIJ:  cpu time      0.1901: real time      0.1908
     EDDAV:  cpu time      0.3764: real time      0.3785
       DOS:  cpu time      0.0001: real time      0.0001
    CHARGE:  cpu time      0.1940: real time      0.1947
    MIXING:  cpu time      0.0180: real time      0.0180
    --------------------------------------------
      LOOP:  cpu time      1.0844: real time      1.0897

 eigenvalue-minimisations  :    56
 total energy-change (2. order) :-0.1024347E-04  (-0.1857485E-07)
 number of electron      22.0000000 magnetization 
 augmentation part        0.4940691 magnetization 

 Broyden mixing:
  rms(total) = 0.54929E-04    rms(broyden)= 0.54763E-04
  rms(prec ) = 0.75593E-04
  weight for this iteration     100.00

 eigenvalues of (default mixing * dielectric matrix)
  average eigenvalue GAMMA=   2.2959
  8.9986  5.9793  4.2581  2.8773  2.4507  1.7654  1.7654  1.5017  1.2961  1.2961
  1.0830  1.0830  0.9632  0.9632  0.8697  0.9397  0.9397

 Free energy of the ion-electron system (eV)
  ---------------------------------------------------
  alpha Z        PSCENC =         0.62641250
  Ewald energy   TEWEN  =       887.42347359
  -Hartree energ DENC   =     -1418.23386838
  -exchange      EXHF   =         0.00000000
  -V(xc)+E(xc)   XCENC  =        72.72603340
  PAW double counting   =       298.42890331     -303.74742863
  entropy T*S    EENTRO =        -0.00000000
  eigenvalues    EBANDS =      -257.24206758
  atomic energy  EATOM  =       663.51739852
  Solvation  Ediel_sol  =         0.00000000
  ---------------------------------------------------
  free energy    TOTEN  =       -56.50114328 eV

  energy without entropy =      -56.50114328  energy(sigma->0) =      -56.50114328


--------------------------------------------------------------------------------------------------------




--------------------------------------- Iteration      1(  23)  ---------------------------------------


    POTLOK:  cpu time      0.3092: real time      0.3109
    SETDIJ:  cpu time      0.1898: real time      0.1906
     EDDAV:  cpu time      0.3700: real time      0.3720
       DOS:  cpu time      0.0001: real time      0.0001
    CHARGE:  cpu time      0.1938: real time      0.1945
    MIXING:  cpu time      0.0182: real time      0.0182
    --------------------------------------------
      LOOP:  cpu time      1.0810: real time      1.0864

 eigenvalue-minimisations  :    56
 total energy-change (2. order) :-0.7672539E-05  (-0.1308906E-07)
 number of electron      22.0000000 magnetization 
 augmentation part        0.4940694 magnetization 

 Broyden mixing:
  rms(total) = 0.32541E-04    rms(broyden)= 0.32263E-04
  rms(prec ) = 0.43353E-04
  weight for this iteration     100.00

 eigenvalues of (default mixing * dielectric matrix)
  average eigenvalue GAMMA=   2.3297
  9.0291  6.3692  4.6936  3.1105  2.4745  2.2426  2.0100  1.2829  1.2829  1.2731
  1.2731  1.0974  1.0974  0.9749  0.9749  0.9463  0.9463  0.8552

 Free energy of the ion-electron system (eV)
  ---------------------------------------------------
  alpha Z        PSCENC =         0.62641250
  Ewald energy   TEWEN  =       887.42347359
  -Hartree energ DENC   =     -1418.23562306
  -exchange      EXHF   =         0.00000000
  -V(xc)+E(xc)   XCENC  =        72.72607959
  PAW double counting   =       298.43151494     -303.75004649
  entropy T*S    EENTRO =        -0.00000000
  eigenvalues    EBANDS =      -257.24036054
  atomic energy  EATOM  =       663.51739852
  Solvation  Ediel_sol  =         0.00000000
  ---------------------------------------------------
  free energy    TOTEN  =       -56.50115095 eV

  energy without entropy =      -56.50115095  energy(sigma->0) =      -56.50115095


--------------------------------------------------------------------------------------------------------




--------------------------------------- Iteration      1(  24)  ---------------------------------------


    POTLOK:  cpu time      0.3067: real time      0.3084
    SETDIJ:  cpu time      0.1911: real time      0.1919
     EDDAV:  cpu time      0.3710: real time      0.3730
       DOS:  cpu time      0.0002: real time      0.0002
    CHARGE:  cpu time      0.1921: real time      0.1929
    MIXING:  cpu time      0.0186: real time      0.0187
    --------------------------------------------
      LOOP:  cpu time      1.0797: real time      1.0850

 eigenvalue-minimisations  :    56
 total energy-change (2. order) :-0.2742281E-05  (-0.6528978E-08)
 number of electron      22.0000000 magnetization 
 augmentation part        0.4940681 magnetization 

 Broyden mixing:
  rms(total) = 0.19033E-04    rms(broyden)= 0.18558E-04
  rms(prec ) = 0.24809E-04
  weight for this iteration     100.00

 eigenvalues of (default mixing * dielectric matrix)
  average eigenvalue GAMMA=   2.3274
  9.0816  6.6231  4.8746  3.3460  2.5856  2.4217  1.8334  1.2927  1.2927  1.4883
  1.3704  1.1314  1.1314  0.9730  0.9730  1.0401  0.9872  0.9214  0.8538

 Free energy of the ion-electron system (eV)
  ---------------------------------------------------
  alpha Z        PSCENC =         0.62641250
  Ewald energy   TEWEN  =       887.42347359
  -Hartree energ DENC   =     -1418.23787248
  -exchange      EXHF   =         0.00000000
  -V(xc)+E(xc)   XCENC  =        72.72613834
  PAW double counting   =       298.43206782     -303.75061787
  entropy T*S    EENTRO =        -0.00000000
  eigenvalues    EBANDS =      -257.23815411
  atomic energy  EATOM  =       663.51739852
  Solvation  Ediel_sol  =         0.00000000
  ---------------------------------------------------
  free energy    TOTEN  =       -56.50115369 eV

  energy without entropy =      -56.50115369  energy(sigma->0) =      -56.50115369


--------------------------------------------------------------------------------------------------------




--------------------------------------- Iteration      1(  25)  ---------------------------------------


    POTLOK:  cpu time      0.3085: real time      0.3101
    SETDIJ:  cpu time      0.1917: real time      0.1925
     EDDAV:  cpu time      0.4109: real time      0.4132
       DOS:  cpu time      0.0001: real time      0.0001
    CHARGE:  cpu time      0.1940: real time      0.1948
    MIXING:  cpu time      0.0195: real time      0.0196
    --------------------------------------------
      LOOP:  cpu time      1.1248: real time      1.1303

 eigenvalue-minimisations  :    64
 total energy-change (2. order) :-0.1114667E-05  (-0.2051625E-08)
 number of electron      22.0000000 magnetization 
 augmentation part        0.4940680 magnetization 

 Broyden mixing:
  rms(total) = 0.95850E-05    rms(broyden)= 0.86077E-05
  rms(prec ) = 0.12956E-04
  weight for this iteration     100.00
  WARNING: grid for Broyden might be to small

 eigenvalues of (default mixing * dielectric matrix)
  average eigenvalue GAMMA=   2.3504
  9.1394  6.8443  5.1440  3.7059  2.6553  2.3586  2.1343  1.9876  1.3122  1.3122
  1.3486  1.1211  1.1211  0.9756  0.9756  1.0849  1.0849  0.8530  0.9244  0.9244

 Free energy of the ion-electron system (eV)
  ---------------------------------------------------
  alpha Z        PSCENC =         0.62641250
  Ewald energy   TEWEN  =       887.42347359
  -Hartree energ DENC   =     -1418.23767980
  -exchange      EXHF   =         0.00000000
  -V(xc)+E(xc)   XCENC  =        72.72612191
  PAW double counting   =       298.43144924     -303.74999642
  entropy T*S    EENTRO =        -0.00000000
  eigenvalues    EBANDS =      -257.23833434
  atomic energy  EATOM  =       663.51739852
  Solvation  Ediel_sol  =         0.00000000
  ---------------------------------------------------
  free energy    TOTEN  =       -56.50115481 eV

  energy without entropy =      -56.50115481  energy(sigma->0) =      -56.50115481


--------------------------------------------------------------------------------------------------------




--------------------------------------- Iteration      1(  26)  ---------------------------------------


    POTLOK:  cpu time      0.3149: real time      0.3166
    SETDIJ:  cpu time      0.1908: real time      0.1915
     EDDAV:  cpu time      0.3719: real time      0.3738
       DOS:  cpu time      0.0001: real time      0.0001
    --------------------------------------------
      LOOP:  cpu time      0.8777: real time      0.8821

 eigenvalue-minimisations  :    56
 total energy-change (2. order) :-0.6169686E-06  (-0.1546331E-08)
 number of electron      22.0000000 magnetization 
 augmentation part        0.4940680 magnetization 

 Free energy of the ion-electron system (eV)
  ---------------------------------------------------
  alpha Z        PSCENC =         0.62641250
  Ewald energy   TEWEN  =       887.42347359
  -Hartree energ DENC   =     -1418.23772824
  -exchange      EXHF   =         0.00000000
  -V(xc)+E(xc)   XCENC  =        72.72612347
  PAW double counting   =       298.43128678     -303.74983281
  entropy T*S    EENTRO =        -0.00000000
  eigenvalues    EBANDS =      -257.23828924
  atomic energy  EATOM  =       663.51739852
  Solvation  Ediel_sol  =         0.00000000
  ---------------------------------------------------
  free energy    TOTEN  =       -56.50115542 eV

  energy without entropy =      -56.50115542  energy(sigma->0) =      -56.50115542


--------------------------------------------------------------------------------------------------------




 average (electrostatic) potential at core
  the test charge radii are     0.6991  0.5201
  (the norm of the test charge is              1.0000)
       1 -58.5478       2 -58.8238       3 -58.8000       4 -58.7367       5 -42.0112
       6 -41.9285       7 -42.0521       8 -41.9623       9 -41.5802      10 -41.8875
 
 
 
 E-fermi :  -5.3325     XC(G=0):  -0.4413     alpha+bet : -0.1681

 Fermi energy:        -5.3325489025

 k-point     1 :       0.0000    0.0000    0.0000
  band No.  band energies     occupation 
      1     -19.9844      2.00000
      2     -17.6636      2.00000
      3     -15.3198      2.00000
      4     -12.7716      2.00000
      5     -11.9799      2.00000
      6     -10.5108      2.00000
      7     -10.1586      2.00000
      8      -8.5432      2.00000
      9      -8.4798      2.00000
     10      -7.5975      2.00000
     11      -5.6099      2.00000
     12      -2.1871      0.00000
     13      -0.4239      0.00000
     14       0.0631      0.00000
     15       0.2198      0.00000
     16       0.3378      0.00000
     17       0.4624      0.00000
     18       0.4840      0.00000
     19       0.5454      0.00000
     20       0.7259      0.00000
     21       0.8980      0.00000
     22       0.9337      0.00000
     23       1.0028      0.00000
     24       1.1107      0.00000


--------------------------------------------------------------------------------------------------------


 soft charge-density along one line, spin component           1
         0         1         2         3         4         5         6         7         8         9
 total charge-density along one line
 
 pseudopotential strength for first ion, spin component:           1
 10.253   0.020   0.002  -0.001   0.001   0.002  -0.001   0.001
  0.020  -0.001  -0.000   0.000  -0.000   0.000  -0.000   0.000
  0.002  -0.000  -4.365   0.005  -0.009  -0.018   0.001  -0.003
 -0.001   0.000   0.005  -4.364   0.002   0.001  -0.018   0.000
  0.001  -0.000  -0.009   0.002  -4.350  -0.003   0.000  -0.014
  0.002   0.000  -0.018   0.001  -0.003  -0.773   0.000  -0.000
 -0.001  -0.000   0.001  -0.018   0.000   0.000  -0.773   0.000
  0.001   0.000  -0.003   0.000  -0.014  -0.000   0.000  -0.772
 total augmentation occupancy for first ion, spin component:           1
  1.494  -1.106  -0.040   0.023  -0.021  -0.019   0.012  -0.013
 -1.106   0.910   0.078  -0.052   0.055   0.037  -0.023   0.021
 -0.040   0.078   1.163  -0.046   0.152   0.196  -0.020   0.055
  0.023  -0.052  -0.046   1.207  -0.016  -0.020   0.202  -0.006
 -0.021   0.055   0.152  -0.016   0.986   0.055  -0.006   0.115
 -0.019   0.037   0.196  -0.020   0.055   0.036  -0.006   0.014
  0.012  -0.023  -0.020   0.202  -0.006  -0.006   0.036  -0.002
 -0.013   0.021   0.055  -0.006   0.115   0.014  -0.002   0.016


------------------------ aborting loop because EDIFF is reached ----------------------------------------


    CHARGE:  cpu time      0.1931: real time      0.1939
    FORLOC:  cpu time      0.0350: real time      0.0351
    FORNL :  cpu time      1.0701: real time      1.0751
    STRESS:  cpu time      3.3984: real time      3.4144
    FORHAR:  cpu time      0.1091: real time      0.1097
    MIXING:  cpu time      0.0123: real time      0.0124
    OFIELD:  cpu time      0.0001: real time      0.0001

  FORCE on cell =-STRESS in cart. coord.  units (eV):
  Direction    XX          YY          ZZ          XY          YZ          ZX
  --------------------------------------------------------------------------------------
  Alpha Z     0.62641     0.62641     0.62641
  Ewald    -138.92183   336.99977   689.34522   115.39056   -20.77549  -115.82409
  Hartree   233.79735   460.85109   723.58938    54.63475    -8.84659   -80.27609
  E(xc)     -77.61311   -75.89078   -75.50236     0.39864    -0.06039    -0.14300
  Local    -315.85515  -987.96470 -1597.92427  -161.80771    26.46371   195.18102
  n-local   -28.47644   -31.21949   -30.49291    -0.55082     0.04260    -0.09200
  augment    -0.54670    -0.69406    -0.71246    -0.04715     0.02443     0.00123
  Kinetic   326.93806   295.58501   289.51004    -7.52908     1.68194     1.11619
  Fock        0.00000     0.00000     0.00000     0.00000     0.00000     0.00000
  -------------------------------------------------------------------------------------
  Total      -0.05141    -1.70675    -1.56096     0.48919    -1.46978    -0.03674
  in kB      -0.02440    -0.81023    -0.74102     0.23223    -0.69773    -0.01744
  external pressure =       -0.53 kB  Pullay stress =        0.00 kB


 VOLUME and BASIS-vectors are now :
 -----------------------------------------------------------------------------
  energy-cutoff  :      520.00
  volume of cell :     3375.00
      direct lattice vectors                 reciprocal lattice vectors
    15.000000000  0.000000000  0.000000000     0.066666667  0.000000000  0.000000000
     0.000000000 15.000000000  0.000000000     0.000000000  0.066666667  0.000000000
     0.000000000  0.000000000 15.000000000     0.000000000  0.000000000  0.066666667

  length of vectors
    15.000000000 15.000000000 15.000000000     0.066666667  0.066666667  0.066666667


 FORCES acting on ions
    electron-ion (+dipol)            ewald-force                    non-local-force                 convergence-correction
 -----------------------------------------------------------------------------------------------
   -.551E+02 -.891E+02 0.103E+03   0.556E+02 0.899E+02 -.104E+03   -.206E+00 -.260E-01 0.111E+00   0.657E-05 0.373E-04 0.229E-04
   0.241E+02 0.842E+02 0.661E+02   -.244E+02 -.842E+02 -.678E+02   -.193E-01 0.216E+00 0.244E+00   -.218E-04 -.177E-04 0.110E-03
   0.858E+01 0.842E+02 -.528E+02   -.864E+01 -.830E+02 0.562E+02   -.187E+00 0.185E+00 0.126E+01   0.202E-05 0.604E-04 0.102E-03
   0.167E+02 -.743E+02 -.124E+03   -.168E+02 0.743E+02 0.123E+03   0.169E+00 -.828E+00 -.178E+01   0.168E-04 -.230E-04 -.603E-04
   -.368E+01 -.125E+02 0.667E+02   0.356E+01 0.128E+02 -.728E+02   0.923E-01 -.553E+00 0.580E+01   -.122E-05 0.503E-05 -.152E-04
   -.314E+02 -.566E+02 -.920E+01   0.337E+02 0.609E+02 0.119E+02   -.230E+01 -.454E+01 -.249E+01   0.518E-05 0.164E-04 0.143E-04
   0.261E+02 0.541E+02 0.404E+02   -.282E+02 -.584E+02 -.435E+02   0.220E+01 0.425E+01 0.306E+01   -.842E-05 -.144E-04 -.205E-05
   0.161E+01 0.662E+02 -.293E+02   -.166E+01 -.720E+02 0.316E+02   0.921E-01 0.532E+01 -.238E+01   0.184E-05 0.199E-04 -.300E-05
   0.945E+01 -.609E+02 0.156E+01   -.978E+01 0.644E+02 -.253E+01   0.468E+00 -.450E+01 0.218E+01   0.467E-05 -.283E-04 0.790E-05
   0.323E+01 0.410E+01 -.637E+02   -.338E+01 -.473E+01 0.673E+02   0.149E+00 0.102E+01 -.504E+01   0.286E-05 0.502E-05 -.327E-04
 -----------------------------------------------------------------------------------------------
   -.462E+00 -.561E+00 -.958E+00   0.799E-14 0.799E-14 -.142E-13   0.456E+00 0.552E+00 0.958E+00   0.843E-05 0.606E-04 0.143E-03
 
 
 POSITION                                       TOTAL-FORCE (eV/Angst)
 -----------------------------------------------------------------------------------
      7.96800      7.98500      6.05500         0.264450      0.853605     -0.327322
      7.45600      6.94500      6.71800        -0.369473      0.199704     -1.497249
      7.34000      6.83400      8.11000        -0.240661      1.387173      4.586785
      7.21800      7.84500      9.09200         0.077863     -0.842809     -2.405063
      7.94900      8.07500      4.97500        -0.023894     -0.268176     -0.259054
      8.40900      8.85700      6.54700         0.016172     -0.178148      0.218926
      7.03600      6.11800      6.13700         0.109493     -0.082503     -0.046835
      7.32400      5.83500      8.53000         0.036988     -0.515648     -0.026004
      7.11800      8.88400      8.63300         0.130839     -0.948488      1.204514
      7.18300      7.62300     10.20400        -0.001777      0.395290     -1.448698
 -----------------------------------------------------------------------------------
    total drift:                               -0.006026     -0.008947      0.000102


--------------------------------------------------------------------------------------------------------



  FREE ENERGIE OF THE ION-ELECTRON SYSTEM (eV)
  ---------------------------------------------------
  free  energy   TOTEN  =       -56.50115542 eV

  energy  without entropy=      -56.50115542  energy(sigma->0) =      -56.50115542
 


--------------------------------------------------------------------------------------------------------


    POTLOK:  cpu time      0.5050: real time      0.5075


--------------------------------------------------------------------------------------------------------


 stress matrix after NEB project (eV)
     -0.05141      0.48919     -0.03674
      0.48919     -1.70675     -1.46978
     -0.03674     -1.46978     -1.56096
  FORCES: max atom, RMS     4.797996    1.948753
  FORCE total and by dimension    6.162498    4.586785
  Stress total and by dimension    3.186541    1.706749
     LOOP+:  cpu time     31.3943: real time     31.5561
    4ORBIT:  cpu time      0.0000: real time      0.0000

 total amount of memory used by VASP MPI-rank0   224781. kBytes
=======================================================================

   base      :      30000. kBytes
   nonlr-proj:       1257. kBytes
   fftplans  :     123538. kBytes
   grid      :      67787. kBytes
   one-center:         15. kBytes
   wavefun   :       2184. kBytes
 
  
  
 General timing and accounting informations for this job:
 ========================================================
  
                  Total CPU time used (sec):       38.020
                            User time (sec):       34.673
                          System time (sec):        3.347
                         Elapsed time (sec):       39.035
  
                   Maximum memory used (kb):      560560.
                   Average memory used (kb):          N/A
  
                          Minor page faults:       149020
                          Major page faults:         5451
                 Voluntary context switches:         3108
