 vasp.6.4.2 20Jul23 (build Apr 10 2024 13:39:58) complex                        
  
 executed on             LinuxIFC date 2024.05.18  02:19:54
 running   16 mpi-ranks, on    1 nodes
 distrk:  each k-point on   16 cores,    1 groups
 distr:  one band on NCORE=   2 cores,    8 groups


--------------------------------------------------------------------------------------------------------


 INCAR:
   ISTART = 0
   ISPIN = 1
   LREAL = Auto
   ENCUT = 520
   NPAR = 8
   LPLANE = .TRUE.
   LSCALU = .FALSE.
   NSIM = 4
   LWAVE = .FALSE.
   LCHARG = .FALSE.
   ADDGRID = .TRUE.
   LASPH = .TRUE.
   PREC = Accurate
   ISMEAR = 0
   SIGMA = 0.05
   EDIFF = 1E-06
   NSW = 0
   TEBEG = 300
   TEEND = 700     	
   ISYM = 0
   NWRITE = 2

 POTCAR:   PAW_PBE C 08Apr2002                    
 POTCAR:   PAW_PBE H 15Jun2001                    
 POTCAR:   PAW_PBE C 08Apr2002                    
   VRHFIN =C: s2p2                                                                                  
   LEXCH  = PE                                                                                      
   EATOM  =   147.1560 eV,   10.8157 Ry                                                             
                                                                                                    
   TITEL  = PAW_PBE C 08Apr2002                                                                     
   LULTRA =        F    use ultrasoft PP ?                                                          
   IUNSCR =        0    unscreen: 0-lin 1-nonlin 2-no                                               
   RPACOR =     .000    partial core radius                                                         
   POMASS =   12.011; ZVAL   =    4.000    mass and valenz                                          
   RCORE  =    1.500    outmost cutoff radius                                                       
   RWIGS  =    1.630; RWIGS  =     .863    wigner-seitz radius (au A)                               
   ENMAX  =  400.000; ENMIN  =  300.000 eV                                                          
   ICORE  =        2    local potential                                                             
   LCOR   =        T    correct aug charges                                                         
   LPAW   =        T    paw PP                                                                      
   EAUG   =  644.873                                                                                
   DEXC   =     .000                                                                                
   RMAX   =    2.266    core radius for proj-oper                                                   
   RAUG   =    1.300    factor for augmentation sphere                                              
   RDEP   =    1.501    radius for radial grids                                                     
   RDEPT  =    1.300    core radius for aug-charge                                                  
   QCUT   =   -5.516; QGAM   =   11.032    optimization parameters                                  
                                                                                                    
   Description                                                                                      
     l     E      TYP  RCUT    TYP  RCUT                                                            
     0   .000     23  1.200                                                                         
     0   .000     23  1.200                                                                         
     1   .000     23  1.500                                                                         
     1  2.500     23  1.500                                                                         
     2   .000      7  1.500                                                                         
  local pseudopotential read in
  atomic valenz-charges read in
  non local Contribution for L=           0  read in
    real space projection operators read in
  non local Contribution for L=           0  read in
    real space projection operators read in
  non local Contribution for L=           1  read in
    real space projection operators read in
  non local Contribution for L=           1  read in
    real space projection operators read in
    PAW grid and wavefunctions read in
 
   number of l-projection  operators is LMAX  =           4
   number of lm-projection operators is LMMAX =           8
 
 POTCAR:   PAW_PBE H 15Jun2001                    
   VRHFIN =H: ultrasoft test                                                                        
   LEXCH  = PE                                                                                      
   EATOM  =    12.4884 eV,     .9179 Ry                                                             
                                                                                                    
   TITEL  = PAW_PBE H 15Jun2001                                                                     
   LULTRA =        F    use ultrasoft PP ?                                                          
   IUNSCR =        0    unscreen: 0-lin 1-nonlin 2-no                                               
   RPACOR =     .000    partial core radius                                                         
   POMASS =    1.000; ZVAL   =    1.000    mass and valenz                                          
   RCORE  =    1.100    outmost cutoff radius                                                       
   RWIGS  =     .700; RWIGS  =     .370    wigner-seitz radius (au A)                               
   ENMAX  =  250.000; ENMIN  =  200.000 eV                                                          
   RCLOC  =     .701    cutoff for local pot                                                        
   LCOR   =        T    correct aug charges                                                         
   LPAW   =        T    paw PP                                                                      
   EAUG   =  400.000                                                                                
   RMAX   =    2.174    core radius for proj-oper                                                   
   RAUG   =    1.200    factor for augmentation sphere                                              
   RDEP   =    1.112    radius for radial grids                                                     
   QCUT   =   -5.749; QGAM   =   11.498    optimization parameters                                  
                                                                                                    
   Description                                                                                      
     l     E      TYP  RCUT    TYP  RCUT                                                            
     0   .000     23  1.100                                                                         
     0   .500     23  1.100                                                                         
     1  -.300     23  1.100                                                                         
  local pseudopotential read in
  atomic valenz-charges read in
  non local Contribution for L=           0  read in
    real space projection operators read in
  non local Contribution for L=           0  read in
    real space projection operators read in
  non local Contribution for L=           1  read in
    real space projection operators read in
    PAW grid and wavefunctions read in
 
   number of l-projection  operators is LMAX  =           3
   number of lm-projection operators is LMMAX =           5
 
 Optimization of the real space projectors (new method)

 maximal supplied QI-value         = 25.13
 optimisation between [QCUT,QGAM] = [ 11.56, 23.12] = [ 37.43,149.72] Ry 
 Optimized for a Real-space Cutoff    1.04 Angstroem

   l    n(q)    QCUT    max X(q) W(low)/X(q) W(high)/X(q)  e(spline) 
   0      7    11.561     5.582    0.47E-04    0.94E-04    0.17E-07
   0      7    11.561    69.432    0.20E-03    0.59E-03    0.21E-06
   1      7    11.561     2.780    0.24E-04    0.70E-04    0.44E-07
   1      7    11.561     4.549    0.18E-03    0.25E-03    0.12E-06
 Optimization of the real space projectors (new method)

 maximal supplied QI-value         = 34.20
 optimisation between [QCUT,QGAM] = [ 11.63, 23.26] = [ 37.87,151.49] Ry 
 Optimized for a Real-space Cutoff    1.21 Angstroem

   l    n(q)    QCUT    max X(q) W(low)/X(q) W(high)/X(q)  e(spline) 
   0      8    11.629     4.436    0.19E-04    0.32E-04    0.47E-07
   0      8    11.629    16.131    0.16E-03    0.33E-03    0.21E-06
   1      8    11.629     4.654    0.18E-03    0.16E-03    0.26E-06
 PAW_PBE C 08Apr2002                    :
 energy of atom  1       EATOM= -147.1560
 kinetic energy error for atom=    0.0071 (will be added to EATOM!!)
 PAW_PBE H 15Jun2001                    :
 energy of atom  2       EATOM=  -12.4884
 kinetic energy error for atom=    0.0014 (will be added to EATOM!!)
 
 
 POSCAR:  C  H
  positions in cartesian coordinates
  No initial velocities read in
 exchange correlation table for  LEXCH =        8
   RHO(1)=    0.500       N(1)  =     2000
   RHO(2)=  100.500       N(2)  =     4000

 VTST: version 4.1, (05/19/21)

 CHAIN: initializing optimizer
 
 OPT: Using VASP Dynamics algorithm
 CHAIN: Read ICHAIN            0
 
 POSCAR:  C  H
  positions in cartesian coordinates
  No initial velocities read in
 


--------------------------------------------------------------------------------------------------------


 ion  position               nearest neighbor table
   1  0.525  0.533  0.407-   5 1.11   6 1.15   2 1.26
   2  0.505  0.462  0.446-   7 1.14   1 1.26   3 1.53
   3  0.491  0.453  0.546-   8 1.15   4 1.37   2 1.53
   4  0.480  0.525  0.601-   9 1.10  10 1.13   3 1.37
   5  0.547  0.547  0.337-   1 1.11
   6  0.529  0.598  0.447-   1 1.15
   7  0.497  0.395  0.410-   2 1.14
   8  0.478  0.381  0.568-   3 1.15
   9  0.494  0.588  0.567-   4 1.10
  10  0.454  0.517  0.671-   4 1.13
 

IMPORTANT INFORMATION: All symmetrisations will be switched off!
NOSYMM: (Re-)initialisation of all symmetry stuff for point group C_1.


----------------------------------------------------------------------------------------

                                     Primitive cell                                     

  volume of cell :    3375.0000

  direct lattice vectors                    reciprocal lattice vectors
    15.000000000  0.000000000  0.000000000     0.066666667  0.000000000  0.000000000
     0.000000000 15.000000000  0.000000000     0.000000000  0.066666667  0.000000000
     0.000000000  0.000000000 15.000000000     0.000000000  0.000000000  0.066666667

  length of vectors
    15.000000000 15.000000000 15.000000000     0.066666667  0.066666667  0.066666667

  position of ions in fractional coordinates (direct lattice)
     0.524733321  0.533400027  0.406533337
     0.504733340  0.461866665  0.445866680
     0.491200002  0.452866681  0.546333313
     0.480466652  0.525000000  0.600933329
     0.547200012  0.546600024  0.337333330
     0.529133320  0.598266665  0.446599992
     0.496733348  0.395466677  0.409866651
     0.477866681  0.380733331  0.568333308
     0.493599987  0.588333321  0.567000008
     0.454333337  0.517400010  0.671066666

  ion indices of the primitive-cell ions
   primitive index   ion index
                 1           1
                 2           2
                 3           3
                 4           4
                 5           5
                 6           6
                 7           7
                 8           8
                 9           9
                10          10

----------------------------------------------------------------------------------------

 
 
 KPOINTS: K-Spacing Value to Generate K-Mesh: 1.00

Automatic generation of k-mesh.
 Grid dimensions read from file:
 generate k-points for:    1    1    1

 Generating k-lattice:

  Cartesian coordinates                     Fractional coordinates (reciprocal lattice)
     0.066666667  0.000000000  0.000000000     1.000000000  0.000000000  0.000000000
     0.000000000  0.066666667  0.000000000     0.000000000  1.000000000  0.000000000
     0.000000000  0.000000000  0.066666667     0.000000000  0.000000000  1.000000000

  Length of vectors
     0.066666667  0.066666667  0.066666667

  Shift w.r.t. Gamma in fractional coordinates (k-lattice)
     0.000000000  0.000000000  0.000000000

 
 Subroutine IBZKPT returns following result:
 ===========================================
 
 Found      1 irreducible k-points:
 
 Following reciprocal coordinates:
            Coordinates               Weight
  0.000000  0.000000  0.000000      1.000000
 
 Following cartesian coordinates:
            Coordinates               Weight
  0.000000  0.000000  0.000000      1.000000
 


--------------------------------------------------------------------------------------------------------




 Dimension of arrays:
   k-points           NKPTS =      1   k-points in BZ     NKDIM =      1   number of bands    NBANDS=     24
   number of dos      NEDOS =    301   number of ions     NIONS =     10
   non local maximal  LDIM  =      4   non local SUM 2l+1 LMDIM =      8
   total plane-waves  NPLWV = ******
   max r-space proj   IRMAX =   3145   max aug-charges    IRDMAX=  39494
   dimension x,y,z NGX =   112 NGY =  112 NGZ =  112
   dimension x,y,z NGXF=   224 NGYF=  224 NGZF=  224
   support grid    NGXF=   448 NGYF=  448 NGZF=  448
   ions per type =               4   6
   NGX,Y,Z   is equivalent  to a cutoff of  12.41, 12.41, 12.41 a.u.
   NGXF,Y,Z  is equivalent  to a cutoff of  24.83, 24.83, 24.83 a.u.

 SYSTEM =  unknown system                          
 POSCAR =   C  H                                   

 Startparameter for this run:
   NWRITE =      2    write-flag & timer
   PREC   = accura    normal or accurate (medium, high low for compatibility)
   ISTART =      0    job   : 0-new  1-cont  2-samecut
   ICHARG =      2    charge: 1-file 2-atom 10-const
   ISPIN  =      1    spin polarized calculation?
   LNONCOLLINEAR =      F non collinear calculations
   LSORBIT =      F    spin-orbit coupling
   INIWAV =      1    electr: 0-lowe 1-rand  2-diag
   LASPH  =      T    aspherical Exc in radial PAW
 Electronic Relaxation 1
   ENCUT  =  520.0 eV  38.22 Ry    6.18 a.u.  27.89 27.89 27.89*2*pi/ulx,y,z
   ENINI  =  520.0     initial cutoff
   ENAUG  =  644.9 eV  augmentation charge cutoff
   NELM   =     60;   NELMIN=  2; NELMDL= -5     # of ELM steps 
   EDIFF  = 0.1E-05   stopping-criterion for ELM
   LREAL  =      T    real-space projection
   NLSPLINE    = F    spline interpolate recip. space projectors
   LCOMPAT=      F    compatible to vasp.4.4
   GGA_COMPAT  = T    GGA compatible to vasp.4.4-vasp.4.6
   LMAXPAW     = -100 max onsite density
   LMAXMIX     =    2 max onsite mixed and CHGCAR
   VOSKOWN=      0    Vosko Wilk Nusair interpolation
   ROPT   =   -0.00025  -0.00025
 Ionic relaxation
   EDIFFG = 0.1E-04   stopping-criterion for IOM
   NSW    =      0    number of steps for IOM
   NBLOCK =      1;   KBLOCK =      1    inner block; outer block 
   IBRION =     -1    ionic relax: 0-MD 1-quasi-New 2-CG
   NFREE  =      0    steps in history (QN), initial steepest desc. (CG)
   ISIF   =      2    stress and relaxation
   IWAVPR =     10    prediction:  0-non 1-charg 2-wave 3-comb
   ISYM   =      0    0-nonsym 1-usesym 2-fastsym
   LCORR  =      T    Harris-Foulkes like correction to forces

   POTIM  = 0.5000    time-step for ionic-motion
   TEIN   =    0.0    initial temperature
   TEBEG  =  300.0;   TEEND  = 700.0 temperature during run
   SMASS  =  -3.00    Nose mass-parameter (am)
   estimated Nose-frequenzy (Omega)   =  0.10E-29 period in steps = 0.13E+47 mass=  -0.514E-26a.u.
   SCALEE = 1.0000    scale energy and forces
   NPACO  =    256;   APACO  = 10.0  distance and # of slots for P.C.
   PSTRESS=    0.0 pullay stress

  Mass of Ions in am
   POMASS =  12.01  1.00
  Ionic Valenz
   ZVAL   =   4.00  1.00
  Atomic Wigner-Seitz radii
   RWIGS  =  -1.00 -1.00
  virtual crystal weights 
   VCA    =   1.00  1.00
   NELECT =      22.0000    total number of electrons
   NUPDOWN=      -1.0000    fix difference up-down

 DOS related values:
   EMIN   =  10.00;   EMAX   =-10.00  energy-range for DOS
   EFERMI =   0.00;   METHOD = LEGACY      
   ISMEAR =     0;   SIGMA  =   0.05  broadening in eV -4-tet -1-fermi 0-gaus

 Electronic relaxation 2 (details)
   IALGO  =     38    algorithm
   LDIAG  =      T    sub-space diagonalisation (order eigenvalues)
   LSUBROT=      F    optimize rotation matrix (better conditioning)
   TURBO    =      0    0=normal 1=particle mesh
   IRESTART =      0    0=no restart 2=restart with 2 vectors
   NREBOOT  =      0    no. of reboots
   NMIN     =      0    reboot dimension
   EREF     =   0.00    reference energy to select bands
   IMIX   =      4    mixing-type and parameters
     AMIX     =   0.40;   BMIX     =  1.00
     AMIX_MAG =   1.60;   BMIX_MAG =  1.00
     AMIN     =   0.10
     WC   =   100.;   INIMIX=   1;  MIXPRE=   1;  MAXMIX= -45

 Intra band minimization:
   WEIMIN = 0.0000     energy-eigenvalue tresh-hold
   EBREAK =  0.10E-07  absolut break condition
   DEPER  =   0.30     relativ break condition  

   TIME   =   0.40     timestep for ELM

  volume/ion in A,a.u.               =     337.50      2277.56
  Fermi-wavevector in a.u.,A,eV,Ry     =   0.305814  0.577905  1.272449  0.093522
  Thomas-Fermi vector in A             =   1.179187
 
 Write flags
   LWAVE        =      F    write WAVECAR
   LDOWNSAMPLE  =      F    k-point downsampling of WAVECAR
   LCHARG       =      F    write CHGCAR
   LVTOT        =      F    write LOCPOT, total local potential
   LVHAR        =      F    write LOCPOT, Hartree potential only
   LELF         =      F    write electronic localiz. function (ELF)
   LORBIT       =      0    0 simple, 1 ext, 2 COOP (PROOUT), +10 PAW based schemes


 Dipole corrections
   LMONO  =      F    monopole corrections only (constant potential shift)
   LDIPOL =      F    correct potential (dipole corrections)
   IDIPOL =      0    1-x, 2-y, 3-z, 4-all directions 
   EPSILON=  1.0000000 bulk dielectric constant

 Exchange correlation treatment:
   GGA     =    --    GGA type
   LEXCH   =     8    internal setting for exchange type
   LIBXC   =     F    Libxc                    
   VOSKOWN =     0    Vosko Wilk Nusair interpolation
   LHFCALC =     F    Hartree Fock is set to
   LHFONE  =     F    Hartree Fock one center treatment
   AEXX    =    0.0000 exact exchange contribution

 Linear response parameters
   LEPSILON=     F    determine dielectric tensor
   LRPA    =     F    only Hartree local field effects (RPA)
   LNABLA  =     F    use nabla operator in PAW spheres
   LVEL    =     F    velocity operator in full k-point grid
   CSHIFT  =0.1000    complex shift for real part using Kramers Kronig
   OMEGAMAX=  -1.0    maximum frequency
   DEG_THRESHOLD= 0.2000000E-02 threshold for treating states as degnerate
   RTIME   =   -0.100 relaxation time in fs
  (WPLASMAI=    0.000 imaginary part of plasma frequency in eV, 0.658/RTIME)
   DFIELD  = 0.0000000 0.0000000 0.0000000 field for delta impulse in time
 
  Optional k-point grid parameters
   LKPOINTS_OPT  =     F    use optional k-point grid
   KPOINTS_OPT_MODE=     1    mode for optional k-point grid
 
 Orbital magnetization related:
   ORBITALMAG=     F  switch on orbital magnetization
   LCHIMAG   =     F  perturbation theory with respect to B field
   DQ        =  0.001000  dq finite difference perturbation B field
   LLRAUG    =     F  two centre corrections for induced B field
   LBONE     =     F  B-component reconstruction in AE one-centre
   LVGVCALC  =     T  calculate vGv susceptibility
   LVGVAPPL  =     F  apply vGv susceptibility instead of pGv for G=0

 Random number generation:
   RANDOM_GENERATOR = DEFAULT
   PCG_SEED         = not used


--------------------------------------------------------------------------------------------------------


 Static calculation
 charge density and potential will be updated during run
 non-spin polarized calculation
 Variant of blocked Davidson
 Davidson routine will perform the subspace rotation
 perform sub-space diagonalisation
    after iterative eigenvector-optimisation
 modified Broyden-mixing scheme, WC =      100.0
 initial mixing is a Kerker type mixing with AMIX =  0.4000 and BMIX =      1.0000
 Hartree-type preconditioning will be used
 using additional bands           13
 real space projection scheme for non local part
 calculate Harris-corrections to forces 
   (improved forces if not selfconsistent)
 use gradient corrections 
 use of overlap-Matrix (Vanderbilt PP)
 Gauss-broadening in eV      SIGMA  =   0.05


--------------------------------------------------------------------------------------------------------


  energy-cutoff  :      520.00
  volume of cell :     3375.00
      direct lattice vectors                 reciprocal lattice vectors
    15.000000000  0.000000000  0.000000000     0.066666667  0.000000000  0.000000000
     0.000000000 15.000000000  0.000000000     0.000000000  0.066666667  0.000000000
     0.000000000  0.000000000 15.000000000     0.000000000  0.000000000  0.066666667

  length of vectors
    15.000000000 15.000000000 15.000000000     0.066666667  0.066666667  0.066666667


 
 k-points in units of 2pi/SCALE and weight: K-Spacing Value to Generate K-Mesh: 1.00
   0.00000000  0.00000000  0.00000000       1.000
 
 k-points in reciprocal lattice and weights: K-Spacing Value to Generate K-Mesh: 1.00
   0.00000000  0.00000000  0.00000000       1.000
 
 position of ions in fractional coordinates (direct lattice) 
   0.52473332  0.53340003  0.40653334
   0.50473334  0.46186666  0.44586668
   0.49120000  0.45286668  0.54633331
   0.48046665  0.52500000  0.60093333
   0.54720001  0.54660002  0.33733333
   0.52913332  0.59826667  0.44659999
   0.49673335  0.39546668  0.40986665
   0.47786668  0.38073333  0.56833331
   0.49359999  0.58833332  0.56700001
   0.45433334  0.51740001  0.67106667
 
 position of ions in cartesian coordinates  (Angst):
   7.87099981  8.00100040  6.09800005
   7.57100010  6.92799997  6.68800020
   7.36800003  6.79300022  8.19499969
   7.20699978  7.87500000  9.01399994
   8.20800018  8.19900036  5.05999994
   7.93699980  8.97399998  6.69899988
   7.45100021  5.93200016  6.14799976
   7.16800022  5.71099997  8.52499962
   7.40399981  8.82499981  8.50500011
   6.81500006  7.76100016 10.06599998
 


--------------------------------------------------------------------------------------------------------


 k-point   1 :   0.0000 0.0000 0.0000  plane waves:   90879

 maximum and minimum number of plane-waves per node :     45467    45412

 maximum number of plane-waves:     90879
 maximum index in each direction: 
   IXMAX=   27   IYMAX=   27   IZMAX=   27
   IXMIN=  -27   IYMIN=  -27   IZMIN=  -27


 real space projection operators:
  total allocation   :       1186.16 KBytes
  max/ min on nodes  :        593.54        592.62


 parallel 3D FFT for wavefunctions:
    minimum data exchange during FFTs selected (reduces bandwidth)
 parallel 3D FFT for charge:
    minimum data exchange during FFTs selected (reduces bandwidth)


 total amount of memory used by VASP MPI-rank0   224782. kBytes
=======================================================================

   base      :      30000. kBytes
   nonlr-proj:       1258. kBytes
   fftplans  :     123538. kBytes
   grid      :      67787. kBytes
   one-center:         15. kBytes
   wavefun   :       2184. kBytes
 
     INWAV:  cpu time      0.0000: real time      0.0000
 Broyden mixing: mesh for mixing (old mesh)
   NGX = 55   NGY = 55   NGZ = 55
  (NGX  =224   NGY  =224   NGZ  =224)
  gives a total of 166375 points

 initial charge density was supplied:
 charge density of overlapping atoms calculated
 number of electron      22.0000000 magnetization 
 keeping initial charge density in first step


--------------------------------------------------------------------------------------------------------


 Maximum index for non-local projection operator         1509
 Maximum index for augmentation-charges         2457 (set IRDMAX)


--------------------------------------------------------------------------------------------------------


 First call to EWALD:  gamma=   0.118
 Maximum number of real-space cells 3x 3x 3
 Maximum number of reciprocal cells 3x 3x 3

    FEWALD:  cpu time      0.0012: real time      0.0012


--------------------------------------- Ionic step        1  -------------------------------------------




--------------------------------------- Iteration      1(   1)  ---------------------------------------


    POTLOK:  cpu time      0.3369: real time      0.3389
    SETDIJ:  cpu time      0.1952: real time      0.1961
     EDDAV:  cpu time      0.4216: real time      0.4240
       DOS:  cpu time      0.0002: real time      0.0002
    --------------------------------------------
      LOOP:  cpu time      0.9539: real time      0.9592

 eigenvalue-minimisations  :    64
 total energy-change (2. order) : 0.1017934E+03  (-0.5287941E+03)
 number of electron      22.0000000 magnetization 
 augmentation part       22.0000000 magnetization 

 Free energy of the ion-electron system (eV)
  ---------------------------------------------------
  alpha Z        PSCENC =         0.62641250
  Ewald energy   TEWEN  =       890.43015364
  -Hartree energ DENC   =     -1316.91415050
  -exchange      EXHF   =         0.00000000
  -V(xc)+E(xc)   XCENC  =        67.14900050
  PAW double counting   =       156.01372664     -160.66969168
  entropy T*S    EENTRO =        -0.00000120
  eigenvalues    EBANDS =      -198.35940248
  atomic energy  EATOM  =       663.51739852
  Solvation  Ediel_sol  =         0.00000000
  ---------------------------------------------------
  free energy    TOTEN  =       101.79344594 eV

  energy without entropy =      101.79344715  energy(sigma->0) =      101.79344655


--------------------------------------------------------------------------------------------------------




--------------------------------------- Iteration      1(   2)  ---------------------------------------


     EDDAV:  cpu time      0.4865: real time      0.4896
       DOS:  cpu time      0.0001: real time      0.0001
    --------------------------------------------
      LOOP:  cpu time      0.4866: real time      0.4897

 eigenvalue-minimisations  :    80
 total energy-change (2. order) :-0.1220315E+03  (-0.1189120E+03)
 number of electron      22.0000000 magnetization 
 augmentation part       22.0000000 magnetization 

 Free energy of the ion-electron system (eV)
  ---------------------------------------------------
  alpha Z        PSCENC =         0.62641250
  Ewald energy   TEWEN  =       890.43015364
  -Hartree energ DENC   =     -1316.91415050
  -exchange      EXHF   =         0.00000000
  -V(xc)+E(xc)   XCENC  =        67.14900050
  PAW double counting   =       156.01372664     -160.66969168
  entropy T*S    EENTRO =        -0.00000000
  eigenvalues    EBANDS =      -320.39088545
  atomic energy  EATOM  =       663.51739852
  Solvation  Ediel_sol  =         0.00000000
  ---------------------------------------------------
  free energy    TOTEN  =       -20.23803582 eV

  energy without entropy =      -20.23803582  energy(sigma->0) =      -20.23803582


--------------------------------------------------------------------------------------------------------




--------------------------------------- Iteration      1(   3)  ---------------------------------------


     EDDAV:  cpu time      0.4447: real time      0.4476
       DOS:  cpu time      0.0001: real time      0.0001
    --------------------------------------------
      LOOP:  cpu time      0.4448: real time      0.4477

 eigenvalue-minimisations  :    72
 total energy-change (2. order) :-0.4025463E+02  (-0.4017548E+02)
 number of electron      22.0000000 magnetization 
 augmentation part       22.0000000 magnetization 

 Free energy of the ion-electron system (eV)
  ---------------------------------------------------
  alpha Z        PSCENC =         0.62641250
  Ewald energy   TEWEN  =       890.43015364
  -Hartree energ DENC   =     -1316.91415050
  -exchange      EXHF   =         0.00000000
  -V(xc)+E(xc)   XCENC  =        67.14900050
  PAW double counting   =       156.01372664     -160.66969168
  entropy T*S    EENTRO =        -0.00000000
  eigenvalues    EBANDS =      -360.64551969
  atomic energy  EATOM  =       663.51739852
  Solvation  Ediel_sol  =         0.00000000
  ---------------------------------------------------
  free energy    TOTEN  =       -60.49267006 eV

  energy without entropy =      -60.49267006  energy(sigma->0) =      -60.49267006


--------------------------------------------------------------------------------------------------------




--------------------------------------- Iteration      1(   4)  ---------------------------------------


     EDDAV:  cpu time      0.4064: real time      0.4091
       DOS:  cpu time      0.0001: real time      0.0001
    --------------------------------------------
      LOOP:  cpu time      0.4065: real time      0.4092

 eigenvalue-minimisations  :    64
 total energy-change (2. order) :-0.2204798E+01  (-0.2201772E+01)
 number of electron      22.0000000 magnetization 
 augmentation part       22.0000000 magnetization 

 Free energy of the ion-electron system (eV)
  ---------------------------------------------------
  alpha Z        PSCENC =         0.62641250
  Ewald energy   TEWEN  =       890.43015364
  -Hartree energ DENC   =     -1316.91415050
  -exchange      EXHF   =         0.00000000
  -V(xc)+E(xc)   XCENC  =        67.14900050
  PAW double counting   =       156.01372664     -160.66969168
  entropy T*S    EENTRO =        -0.00000000
  eigenvalues    EBANDS =      -362.85031768
  atomic energy  EATOM  =       663.51739852
  Solvation  Ediel_sol  =         0.00000000
  ---------------------------------------------------
  free energy    TOTEN  =       -62.69746805 eV

  energy without entropy =      -62.69746805  energy(sigma->0) =      -62.69746805


--------------------------------------------------------------------------------------------------------




--------------------------------------- Iteration      1(   5)  ---------------------------------------


     EDDAV:  cpu time      0.3708: real time      0.3732
       DOS:  cpu time      0.0001: real time      0.0001
    CHARGE:  cpu time      0.1983: real time      0.1993
    MIXING:  cpu time      0.0122: real time      0.0123
    --------------------------------------------
      LOOP:  cpu time      0.5815: real time      0.5849

 eigenvalue-minimisations  :    56
 total energy-change (2. order) :-0.4217099E-01  (-0.4215221E-01)
 number of electron      22.0000000 magnetization 
 augmentation part        0.5770569 magnetization 

 Broyden mixing:
  rms(total) = 0.11773E+01    rms(broyden)= 0.11771E+01
  rms(prec ) = 0.14181E+01
  weight for this iteration     100.00

 Free energy of the ion-electron system (eV)
  ---------------------------------------------------
  alpha Z        PSCENC =         0.62641250
  Ewald energy   TEWEN  =       890.43015364
  -Hartree energ DENC   =     -1316.91415050
  -exchange      EXHF   =         0.00000000
  -V(xc)+E(xc)   XCENC  =        67.14900050
  PAW double counting   =       156.01372664     -160.66969168
  entropy T*S    EENTRO =        -0.00000000
  eigenvalues    EBANDS =      -362.89248867
  atomic energy  EATOM  =       663.51739852
  Solvation  Ediel_sol  =         0.00000000
  ---------------------------------------------------
  free energy    TOTEN  =       -62.73963904 eV

  energy without entropy =      -62.73963904  energy(sigma->0) =      -62.73963904


--------------------------------------------------------------------------------------------------------




--------------------------------------- Iteration      1(   6)  ---------------------------------------


    POTLOK:  cpu time      0.3087: real time      0.3106
    SETDIJ:  cpu time      0.1940: real time      0.1949
     EDDAV:  cpu time      0.4436: real time      0.4465
       DOS:  cpu time      0.0002: real time      0.0002
    CHARGE:  cpu time      0.1942: real time      0.1951
    MIXING:  cpu time      0.0124: real time      0.0124
    --------------------------------------------
      LOOP:  cpu time      1.1531: real time      1.1598

 eigenvalue-minimisations  :    72
 total energy-change (2. order) : 0.5246805E+01  (-0.8104196E+00)
 number of electron      22.0000000 magnetization 
 augmentation part        0.5270114 magnetization 

 Broyden mixing:
  rms(total) = 0.55952E+00    rms(broyden)= 0.55949E+00
  rms(prec ) = 0.66302E+00
  weight for this iteration     100.00

 eigenvalues of (default mixing * dielectric matrix)
  average eigenvalue GAMMA=   1.5664
  1.5664

 Free energy of the ion-electron system (eV)
  ---------------------------------------------------
  alpha Z        PSCENC =         0.62641250
  Ewald energy   TEWEN  =       890.43015364
  -Hartree energ DENC   =     -1363.64903130
  -exchange      EXHF   =         0.00000000
  -V(xc)+E(xc)   XCENC  =        69.53059486
  PAW double counting   =       229.14418836     -234.35460214
  entropy T*S    EENTRO =        -0.00000000
  eigenvalues    EBANDS =      -312.73794897
  atomic energy  EATOM  =       663.51739852
  Solvation  Ediel_sol  =         0.00000000
  ---------------------------------------------------
  free energy    TOTEN  =       -57.49283453 eV

  energy without entropy =      -57.49283453  energy(sigma->0) =      -57.49283453


--------------------------------------------------------------------------------------------------------




--------------------------------------- Iteration      1(   7)  ---------------------------------------


    POTLOK:  cpu time      0.3106: real time      0.3125
    SETDIJ:  cpu time      0.1938: real time      0.1947
     EDDAV:  cpu time      0.4086: real time      0.4113
       DOS:  cpu time      0.0001: real time      0.0001
    CHARGE:  cpu time      0.1969: real time      0.1979
    MIXING:  cpu time      0.0118: real time      0.0118
    --------------------------------------------
      LOOP:  cpu time      1.1219: real time      1.1284

 eigenvalue-minimisations  :    64
 total energy-change (2. order) : 0.1123652E+01  (-0.4020121E+00)
 number of electron      22.0000000 magnetization 
 augmentation part        0.4957272 magnetization 

 Broyden mixing:
  rms(total) = 0.22945E+00    rms(broyden)= 0.22938E+00
  rms(prec ) = 0.26291E+00
  weight for this iteration     100.00

 eigenvalues of (default mixing * dielectric matrix)
  average eigenvalue GAMMA=   1.7200
  1.7200  1.7200

 Free energy of the ion-electron system (eV)
  ---------------------------------------------------
  alpha Z        PSCENC =         0.62641250
  Ewald energy   TEWEN  =       890.43015364
  -Hartree energ DENC   =     -1399.28911554
  -exchange      EXHF   =         0.00000000
  -V(xc)+E(xc)   XCENC  =        71.54460837
  PAW double counting   =       287.19838102     -292.64905057
  entropy T*S    EENTRO =        -0.00000000
  eigenvalues    EBANDS =      -277.74797029
  atomic energy  EATOM  =       663.51739852
  Solvation  Ediel_sol  =         0.00000000
  ---------------------------------------------------
  free energy    TOTEN  =       -56.36918234 eV

  energy without entropy =      -56.36918234  energy(sigma->0) =      -56.36918234


--------------------------------------------------------------------------------------------------------




--------------------------------------- Iteration      1(   8)  ---------------------------------------


    POTLOK:  cpu time      0.3147: real time      0.3166
    SETDIJ:  cpu time      0.1941: real time      0.1951
     EDDAV:  cpu time      0.3655: real time      0.3678
       DOS:  cpu time      0.0001: real time      0.0001
    CHARGE:  cpu time      0.1951: real time      0.1961
    MIXING:  cpu time      0.0109: real time      0.0109
    --------------------------------------------
      LOOP:  cpu time      1.0804: real time      1.0866

 eigenvalue-minimisations  :    56
 total energy-change (2. order) : 0.1620978E+00  (-0.2102243E-01)
 number of electron      22.0000000 magnetization 
 augmentation part        0.4953527 magnetization 

 Broyden mixing:
  rms(total) = 0.64479E-01    rms(broyden)= 0.64474E-01
  rms(prec ) = 0.90827E-01
  weight for this iteration     100.00

 eigenvalues of (default mixing * dielectric matrix)
  average eigenvalue GAMMA=   1.6190
  2.4068  0.9042  1.5459

 Free energy of the ion-electron system (eV)
  ---------------------------------------------------
  alpha Z        PSCENC =         0.62641250
  Ewald energy   TEWEN  =       890.43015364
  -Hartree energ DENC   =     -1406.12699829
  -exchange      EXHF   =         0.00000000
  -V(xc)+E(xc)   XCENC  =        72.06857091
  PAW double counting   =       294.58411851     -299.92947727
  entropy T*S    EENTRO =        -0.00000000
  eigenvalues    EBANDS =      -271.37726303
  atomic energy  EATOM  =       663.51739852
  Solvation  Ediel_sol  =         0.00000000
  ---------------------------------------------------
  free energy    TOTEN  =       -56.20708451 eV

  energy without entropy =      -56.20708451  energy(sigma->0) =      -56.20708451


--------------------------------------------------------------------------------------------------------




--------------------------------------- Iteration      1(   9)  ---------------------------------------


    POTLOK:  cpu time      0.3145: real time      0.3164
    SETDIJ:  cpu time      0.1936: real time      0.1946
     EDDAV:  cpu time      0.4453: real time      0.4482
       DOS:  cpu time      0.0001: real time      0.0001
    CHARGE:  cpu time      0.1951: real time      0.1960
    MIXING:  cpu time      0.0143: real time      0.0144
    --------------------------------------------
      LOOP:  cpu time      1.1630: real time      1.1696

 eigenvalue-minimisations  :    72
 total energy-change (2. order) : 0.3656150E-01  (-0.5232028E-02)
 number of electron      22.0000000 magnetization 
 augmentation part        0.4933979 magnetization 

 Broyden mixing:
  rms(total) = 0.24700E-01    rms(broyden)= 0.24696E-01
  rms(prec ) = 0.47668E-01
  weight for this iteration     100.00

 eigenvalues of (default mixing * dielectric matrix)
  average eigenvalue GAMMA=   1.4423
  2.2903  1.5392  0.9700  0.9700

 Free energy of the ion-electron system (eV)
  ---------------------------------------------------
  alpha Z        PSCENC =         0.62641250
  Ewald energy   TEWEN  =       890.43015364
  -Hartree energ DENC   =     -1412.16195902
  -exchange      EXHF   =         0.00000000
  -V(xc)+E(xc)   XCENC  =        72.40623120
  PAW double counting   =       299.74028086     -305.06197459
  entropy T*S    EENTRO =        -0.00000000
  eigenvalues    EBANDS =      -265.66706612
  atomic energy  EATOM  =       663.51739852
  Solvation  Ediel_sol  =         0.00000000
  ---------------------------------------------------
  free energy    TOTEN  =       -56.17052301 eV

  energy without entropy =      -56.17052301  energy(sigma->0) =      -56.17052301


--------------------------------------------------------------------------------------------------------




--------------------------------------- Iteration      1(  10)  ---------------------------------------


    POTLOK:  cpu time      0.3169: real time      0.3188
    SETDIJ:  cpu time      0.1917: real time      0.1927
     EDDAV:  cpu time      0.3660: real time      0.3684
       DOS:  cpu time      0.0002: real time      0.0002
    CHARGE:  cpu time      0.1949: real time      0.1958
    MIXING:  cpu time      0.0120: real time      0.0120
    --------------------------------------------
      LOOP:  cpu time      1.0817: real time      1.0878

 eigenvalue-minimisations  :    56
 total energy-change (2. order) : 0.5289940E-02  (-0.1832949E-02)
 number of electron      22.0000000 magnetization 
 augmentation part        0.4917309 magnetization 

 Broyden mixing:
  rms(total) = 0.18140E-01    rms(broyden)= 0.18137E-01
  rms(prec ) = 0.35002E-01
  weight for this iteration     100.00

 eigenvalues of (default mixing * dielectric matrix)
  average eigenvalue GAMMA=   1.6334
  2.5937  2.2356  1.1376  1.1000  1.1000

 Free energy of the ion-electron system (eV)
  ---------------------------------------------------
  alpha Z        PSCENC =         0.62641250
  Ewald energy   TEWEN  =       890.43015364
  -Hartree energ DENC   =     -1414.93201939
  -exchange      EXHF   =         0.00000000
  -V(xc)+E(xc)   XCENC  =        72.46020440
  PAW double counting   =       299.35234493     -304.68438328
  entropy T*S    EENTRO =        -0.00000000
  eigenvalues    EBANDS =      -262.93534440
  atomic energy  EATOM  =       663.51739852
  Solvation  Ediel_sol  =         0.00000000
  ---------------------------------------------------
  free energy    TOTEN  =       -56.16523307 eV

  energy without entropy =      -56.16523307  energy(sigma->0) =      -56.16523307


--------------------------------------------------------------------------------------------------------




--------------------------------------- Iteration      1(  11)  ---------------------------------------


    POTLOK:  cpu time      0.3163: real time      0.3182
    SETDIJ:  cpu time      0.1924: real time      0.1933
     EDDAV:  cpu time      0.4075: real time      0.4101
       DOS:  cpu time      0.0002: real time      0.0002
    CHARGE:  cpu time      0.1944: real time      0.1953
    MIXING:  cpu time      0.0146: real time      0.0147
    --------------------------------------------
      LOOP:  cpu time      1.1254: real time      1.1317

 eigenvalue-minimisations  :    64
 total energy-change (2. order) : 0.9843440E-02  (-0.5937951E-03)
 number of electron      22.0000000 magnetization 
 augmentation part        0.4915318 magnetization 

 Broyden mixing:
  rms(total) = 0.75245E-02    rms(broyden)= 0.75242E-02
  rms(prec ) = 0.17894E-01
  weight for this iteration     100.00

 eigenvalues of (default mixing * dielectric matrix)
  average eigenvalue GAMMA=   1.7461
  3.3072  2.5544  1.4327  1.0226  1.0798  1.0798

 Free energy of the ion-electron system (eV)
  ---------------------------------------------------
  alpha Z        PSCENC =         0.62641250
  Ewald energy   TEWEN  =       890.43015364
  -Hartree energ DENC   =     -1418.75254625
  -exchange      EXHF   =         0.00000000
  -V(xc)+E(xc)   XCENC  =        72.56694075
  PAW double counting   =       298.07146350     -303.38691274
  entropy T*S    EENTRO =        -0.00000000
  eigenvalues    EBANDS =      -259.22829956
  atomic energy  EATOM  =       663.51739852
  Solvation  Ediel_sol  =         0.00000000
  ---------------------------------------------------
  free energy    TOTEN  =       -56.15538963 eV

  energy without entropy =      -56.15538963  energy(sigma->0) =      -56.15538963


--------------------------------------------------------------------------------------------------------




--------------------------------------- Iteration      1(  12)  ---------------------------------------


    POTLOK:  cpu time      0.3163: real time      0.3182
    SETDIJ:  cpu time      0.1896: real time      0.1906
     EDDAV:  cpu time      0.4038: real time      0.4063
       DOS:  cpu time      0.0001: real time      0.0001
    CHARGE:  cpu time      0.1949: real time      0.1959
    MIXING:  cpu time      0.0144: real time      0.0144
    --------------------------------------------
      LOOP:  cpu time      1.1192: real time      1.1256

 eigenvalue-minimisations  :    64
 total energy-change (2. order) :-0.6153522E-03  (-0.2755240E-03)
 number of electron      22.0000000 magnetization 
 augmentation part        0.4912154 magnetization 

 Broyden mixing:
  rms(total) = 0.62325E-02    rms(broyden)= 0.62323E-02
  rms(prec ) = 0.11537E-01
  weight for this iteration     100.00

 eigenvalues of (default mixing * dielectric matrix)
  average eigenvalue GAMMA=   1.8009
  4.0576  2.4187  1.7458  1.4338  0.9341  1.0082  1.0082

 Free energy of the ion-electron system (eV)
  ---------------------------------------------------
  alpha Z        PSCENC =         0.62641250
  Ewald energy   TEWEN  =       890.43015364
  -Hartree energ DENC   =     -1420.92137693
  -exchange      EXHF   =         0.00000000
  -V(xc)+E(xc)   XCENC  =        72.59968785
  PAW double counting   =       297.38480300     -302.70200046
  entropy T*S    EENTRO =        -0.00000000
  eigenvalues    EBANDS =      -257.09108311
  atomic energy  EATOM  =       663.51739852
  Solvation  Ediel_sol  =         0.00000000
  ---------------------------------------------------
  free energy    TOTEN  =       -56.15600498 eV

  energy without entropy =      -56.15600498  energy(sigma->0) =      -56.15600498


--------------------------------------------------------------------------------------------------------




--------------------------------------- Iteration      1(  13)  ---------------------------------------


    POTLOK:  cpu time      0.3119: real time      0.3138
    SETDIJ:  cpu time      0.1890: real time      0.1899
     EDDAV:  cpu time      0.3241: real time      0.3262
       DOS:  cpu time      0.0001: real time      0.0001
    CHARGE:  cpu time      0.1945: real time      0.1954
    MIXING:  cpu time      0.0127: real time      0.0128
    --------------------------------------------
      LOOP:  cpu time      1.0324: real time      1.0382

 eigenvalue-minimisations  :    48
 total energy-change (2. order) :-0.7395823E-02  (-0.1117988E-03)
 number of electron      22.0000000 magnetization 
 augmentation part        0.4911964 magnetization 

 Broyden mixing:
  rms(total) = 0.31038E-02    rms(broyden)= 0.31035E-02
  rms(prec ) = 0.71049E-02
  weight for this iteration     100.00

 eigenvalues of (default mixing * dielectric matrix)
  average eigenvalue GAMMA=   1.9676
  5.0373  2.7274  2.2376  1.3910  1.3910  0.9351  1.0109  1.0109

 Free energy of the ion-electron system (eV)
  ---------------------------------------------------
  alpha Z        PSCENC =         0.62641250
  Ewald energy   TEWEN  =       890.43015364
  -Hartree energ DENC   =     -1421.45362257
  -exchange      EXHF   =         0.00000000
  -V(xc)+E(xc)   XCENC  =        72.60221601
  PAW double counting   =       297.50474663     -302.82098921
  entropy T*S    EENTRO =        -0.00000000
  eigenvalues    EBANDS =      -256.56971634
  atomic energy  EATOM  =       663.51739852
  Solvation  Ediel_sol  =         0.00000000
  ---------------------------------------------------
  free energy    TOTEN  =       -56.16340081 eV

  energy without entropy =      -56.16340081  energy(sigma->0) =      -56.16340081


--------------------------------------------------------------------------------------------------------




--------------------------------------- Iteration      1(  14)  ---------------------------------------


    POTLOK:  cpu time      0.3120: real time      0.3139
    SETDIJ:  cpu time      0.1898: real time      0.1908
     EDDAV:  cpu time      0.4066: real time      0.4092
       DOS:  cpu time      0.0001: real time      0.0001
    CHARGE:  cpu time      0.1922: real time      0.1931
    MIXING:  cpu time      0.0165: real time      0.0166
    --------------------------------------------
      LOOP:  cpu time      1.1172: real time      1.1236

 eigenvalue-minimisations  :    64
 total energy-change (2. order) :-0.7673855E-02  (-0.1122904E-03)
 number of electron      22.0000000 magnetization 
 augmentation part        0.4911283 magnetization 

 Broyden mixing:
  rms(total) = 0.18439E-02    rms(broyden)= 0.18438E-02
  rms(prec ) = 0.37663E-02
  weight for this iteration     100.00

 eigenvalues of (default mixing * dielectric matrix)
  average eigenvalue GAMMA=   2.0790
  5.8991  3.1760  2.3819  1.6944  1.3258  1.3258  0.9236  0.9922  0.9922

 Free energy of the ion-electron system (eV)
  ---------------------------------------------------
  alpha Z        PSCENC =         0.62641250
  Ewald energy   TEWEN  =       890.43015364
  -Hartree energ DENC   =     -1421.89800398
  -exchange      EXHF   =         0.00000000
  -V(xc)+E(xc)   XCENC  =        72.59371473
  PAW double counting   =       297.56044089     -302.87785078
  entropy T*S    EENTRO =        -0.00000000
  eigenvalues    EBANDS =      -256.12334018
  atomic energy  EATOM  =       663.51739852
  Solvation  Ediel_sol  =         0.00000000
  ---------------------------------------------------
  free energy    TOTEN  =       -56.17107466 eV

  energy without entropy =      -56.17107466  energy(sigma->0) =      -56.17107466


--------------------------------------------------------------------------------------------------------




--------------------------------------- Iteration      1(  15)  ---------------------------------------


    POTLOK:  cpu time      0.3062: real time      0.3080
    SETDIJ:  cpu time      0.1879: real time      0.1888
     EDDAV:  cpu time      0.4038: real time      0.4063
       DOS:  cpu time      0.0001: real time      0.0001
    CHARGE:  cpu time      0.1928: real time      0.1937
    MIXING:  cpu time      0.0150: real time      0.0151
    --------------------------------------------
      LOOP:  cpu time      1.1059: real time      1.1121

 eigenvalue-minimisations  :    64
 total energy-change (2. order) :-0.3989104E-02  (-0.5579102E-04)
 number of electron      22.0000000 magnetization 
 augmentation part        0.4911109 magnetization 

 Broyden mixing:
  rms(total) = 0.12249E-02    rms(broyden)= 0.12248E-02
  rms(prec ) = 0.21024E-02
  weight for this iteration     100.00

 eigenvalues of (default mixing * dielectric matrix)
  average eigenvalue GAMMA=   2.1070
  6.4461  3.6715  2.3525  1.9439  1.4098  1.4098  0.9916  0.9916  0.9268  0.9268

 Free energy of the ion-electron system (eV)
  ---------------------------------------------------
  alpha Z        PSCENC =         0.62641250
  Ewald energy   TEWEN  =       890.43015364
  -Hartree energ DENC   =     -1421.93705746
  -exchange      EXHF   =         0.00000000
  -V(xc)+E(xc)   XCENC  =        72.58514496
  PAW double counting   =       297.57995552     -302.89644711
  entropy T*S    EENTRO =        -0.00000000
  eigenvalues    EBANDS =      -256.08062434
  atomic energy  EATOM  =       663.51739852
  Solvation  Ediel_sol  =         0.00000000
  ---------------------------------------------------
  free energy    TOTEN  =       -56.17506377 eV

  energy without entropy =      -56.17506377  energy(sigma->0) =      -56.17506377


--------------------------------------------------------------------------------------------------------




--------------------------------------- Iteration      1(  16)  ---------------------------------------


    POTLOK:  cpu time      0.3061: real time      0.3080
    SETDIJ:  cpu time      0.1947: real time      0.1957
     EDDAV:  cpu time      0.4051: real time      0.4077
       DOS:  cpu time      0.0001: real time      0.0001
    CHARGE:  cpu time      0.1930: real time      0.1939
    MIXING:  cpu time      0.0164: real time      0.0164
    --------------------------------------------
      LOOP:  cpu time      1.1154: real time      1.1218

 eigenvalue-minimisations  :    64
 total energy-change (2. order) :-0.1136445E-02  (-0.8048352E-05)
 number of electron      22.0000000 magnetization 
 augmentation part        0.4910700 magnetization 

 Broyden mixing:
  rms(total) = 0.70848E-03    rms(broyden)= 0.70841E-03
  rms(prec ) = 0.13015E-02
  weight for this iteration     100.00

 eigenvalues of (default mixing * dielectric matrix)
  average eigenvalue GAMMA=   2.2266
  7.5765  4.2093  2.4383  2.2612  1.4976  1.4976  1.0136  1.0136  0.9493  1.0177
  1.0177

 Free energy of the ion-electron system (eV)
  ---------------------------------------------------
  alpha Z        PSCENC =         0.62641250
  Ewald energy   TEWEN  =       890.43015364
  -Hartree energ DENC   =     -1421.98291262
  -exchange      EXHF   =         0.00000000
  -V(xc)+E(xc)   XCENC  =        72.58359403
  PAW double counting   =       297.57329126     -302.88976349
  entropy T*S    EENTRO =        -0.00000000
  eigenvalues    EBANDS =      -256.03437406
  atomic energy  EATOM  =       663.51739852
  Solvation  Ediel_sol  =         0.00000000
  ---------------------------------------------------
  free energy    TOTEN  =       -56.17620021 eV

  energy without entropy =      -56.17620021  energy(sigma->0) =      -56.17620021


--------------------------------------------------------------------------------------------------------




--------------------------------------- Iteration      1(  17)  ---------------------------------------


    POTLOK:  cpu time      0.3020: real time      0.3039
    SETDIJ:  cpu time      0.1924: real time      0.1933
     EDDAV:  cpu time      0.4062: real time      0.4088
       DOS:  cpu time      0.0001: real time      0.0001
    CHARGE:  cpu time      0.1928: real time      0.1937
    MIXING:  cpu time      0.0180: real time      0.0181
    --------------------------------------------
      LOOP:  cpu time      1.1116: real time      1.1179

 eigenvalue-minimisations  :    64
 total energy-change (2. order) :-0.9062765E-03  (-0.7149326E-05)
 number of electron      22.0000000 magnetization 
 augmentation part        0.4910616 magnetization 

 Broyden mixing:
  rms(total) = 0.38789E-03    rms(broyden)= 0.38780E-03
  rms(prec ) = 0.71028E-03
  weight for this iteration     100.00

 eigenvalues of (default mixing * dielectric matrix)
  average eigenvalue GAMMA=   2.2460
  7.8253  4.6699  2.6859  2.3108  1.5229  1.4721  1.4721  1.0111  1.0111  0.9078
  1.0318  1.0318

 Free energy of the ion-electron system (eV)
  ---------------------------------------------------
  alpha Z        PSCENC =         0.62641250
  Ewald energy   TEWEN  =       890.43015364
  -Hartree energ DENC   =     -1421.98394110
  -exchange      EXHF   =         0.00000000
  -V(xc)+E(xc)   XCENC  =        72.58171196
  PAW double counting   =       297.56489902     -302.88135238
  entropy T*S    EENTRO =        -0.00000000
  eigenvalues    EBANDS =      -256.03238865
  atomic energy  EATOM  =       663.51739852
  Solvation  Ediel_sol  =         0.00000000
  ---------------------------------------------------
  free energy    TOTEN  =       -56.17710649 eV

  energy without entropy =      -56.17710649  energy(sigma->0) =      -56.17710649


--------------------------------------------------------------------------------------------------------




--------------------------------------- Iteration      1(  18)  ---------------------------------------


    POTLOK:  cpu time      0.3003: real time      0.3021
    SETDIJ:  cpu time      0.1932: real time      0.1942
     EDDAV:  cpu time      0.4003: real time      0.4028
       DOS:  cpu time      0.0002: real time      0.0002
    CHARGE:  cpu time      0.1918: real time      0.1927
    MIXING:  cpu time      0.0159: real time      0.0160
    --------------------------------------------
      LOOP:  cpu time      1.1017: real time      1.1080

 eigenvalue-minimisations  :    64
 total energy-change (2. order) :-0.3045993E-03  (-0.1570585E-05)
 number of electron      22.0000000 magnetization 
 augmentation part        0.4910320 magnetization 

 Broyden mixing:
  rms(total) = 0.26902E-03    rms(broyden)= 0.26896E-03
  rms(prec ) = 0.45532E-03
  weight for this iteration     100.00

 eigenvalues of (default mixing * dielectric matrix)
  average eigenvalue GAMMA=   2.2936
  8.4898  4.9396  2.9659  2.5341  1.7625  1.6654  1.4382  1.0713  0.8973  1.0483
  1.0483  0.9779  0.9779

 Free energy of the ion-electron system (eV)
  ---------------------------------------------------
  alpha Z        PSCENC =         0.62641250
  Ewald energy   TEWEN  =       890.43015364
  -Hartree energ DENC   =     -1422.02131552
  -exchange      EXHF   =         0.00000000
  -V(xc)+E(xc)   XCENC  =        72.58275413
  PAW double counting   =       297.57464000     -302.89124930
  entropy T*S    EENTRO =        -0.00000000
  eigenvalues    EBANDS =      -255.99620506
  atomic energy  EATOM  =       663.51739852
  Solvation  Ediel_sol  =         0.00000000
  ---------------------------------------------------
  free energy    TOTEN  =       -56.17741109 eV

  energy without entropy =      -56.17741109  energy(sigma->0) =      -56.17741109


--------------------------------------------------------------------------------------------------------




--------------------------------------- Iteration      1(  19)  ---------------------------------------


    POTLOK:  cpu time      0.2986: real time      0.3004
    SETDIJ:  cpu time      0.1930: real time      0.1939
     EDDAV:  cpu time      0.4016: real time      0.4041
       DOS:  cpu time      0.0001: real time      0.0001
    CHARGE:  cpu time      0.1918: real time      0.1927
    MIXING:  cpu time      0.0166: real time      0.0166
    --------------------------------------------
      LOOP:  cpu time      1.1016: real time      1.1079

 eigenvalue-minimisations  :    64
 total energy-change (2. order) :-0.1623745E-03  (-0.7430680E-06)
 number of electron      22.0000000 magnetization 
 augmentation part        0.4910417 magnetization 

 Broyden mixing:
  rms(total) = 0.17341E-03    rms(broyden)= 0.17336E-03
  rms(prec ) = 0.26337E-03
  weight for this iteration     100.00

 eigenvalues of (default mixing * dielectric matrix)
  average eigenvalue GAMMA=   2.2568
  8.5399  5.2614  3.1590  2.4115  2.2105  1.2558  1.2558  1.3038  1.3038  0.9946
  0.9946  0.9138  0.9954  0.9954

 Free energy of the ion-electron system (eV)
  ---------------------------------------------------
  alpha Z        PSCENC =         0.62641250
  Ewald energy   TEWEN  =       890.43015364
  -Hartree energ DENC   =     -1422.00847822
  -exchange      EXHF   =         0.00000000
  -V(xc)+E(xc)   XCENC  =        72.58173161
  PAW double counting   =       297.54659404     -302.86315652
  entropy T*S    EENTRO =        -0.00000000
  eigenvalues    EBANDS =      -256.00822904
  atomic energy  EATOM  =       663.51739852
  Solvation  Ediel_sol  =         0.00000000
  ---------------------------------------------------
  free energy    TOTEN  =       -56.17757346 eV

  energy without entropy =      -56.17757346  energy(sigma->0) =      -56.17757346


--------------------------------------------------------------------------------------------------------




--------------------------------------- Iteration      1(  20)  ---------------------------------------


    POTLOK:  cpu time      0.2991: real time      0.3009
    SETDIJ:  cpu time      0.1935: real time      0.1944
     EDDAV:  cpu time      0.3649: real time      0.3671
       DOS:  cpu time      0.0001: real time      0.0001
    CHARGE:  cpu time      0.1940: real time      0.1949
    MIXING:  cpu time      0.0180: real time      0.0181
    --------------------------------------------
      LOOP:  cpu time      1.0696: real time      1.0755

 eigenvalue-minimisations  :    56
 total energy-change (2. order) :-0.3954903E-04  (-0.8849848E-07)
 number of electron      22.0000000 magnetization 
 augmentation part        0.4910439 magnetization 

 Broyden mixing:
  rms(total) = 0.78460E-04    rms(broyden)= 0.78366E-04
  rms(prec ) = 0.15377E-03
  weight for this iteration     100.00

 eigenvalues of (default mixing * dielectric matrix)
  average eigenvalue GAMMA=   2.3293
  8.8555  5.5927  3.7638  2.5150  2.3596  1.7665  1.6305  1.2472  1.1454  1.1454
  0.9932  0.9932  1.1039  0.8845  0.9436

 Free energy of the ion-electron system (eV)
  ---------------------------------------------------
  alpha Z        PSCENC =         0.62641250
  Ewald energy   TEWEN  =       890.43015364
  -Hartree energ DENC   =     -1422.01180329
  -exchange      EXHF   =         0.00000000
  -V(xc)+E(xc)   XCENC  =        72.58189116
  PAW double counting   =       297.55225143     -302.86877923
  entropy T*S    EENTRO =        -0.00000000
  eigenvalues    EBANDS =      -256.00513775
  atomic energy  EATOM  =       663.51739852
  Solvation  Ediel_sol  =         0.00000000
  ---------------------------------------------------
  free energy    TOTEN  =       -56.17761301 eV

  energy without entropy =      -56.17761301  energy(sigma->0) =      -56.17761301


--------------------------------------------------------------------------------------------------------




--------------------------------------- Iteration      1(  21)  ---------------------------------------


    POTLOK:  cpu time      0.3074: real time      0.3093
    SETDIJ:  cpu time      0.1959: real time      0.1968
     EDDAV:  cpu time      0.3655: real time      0.3679
       DOS:  cpu time      0.0001: real time      0.0001
    CHARGE:  cpu time      0.1926: real time      0.1934
    MIXING:  cpu time      0.0177: real time      0.0178
    --------------------------------------------
      LOOP:  cpu time      1.0791: real time      1.0853

 eigenvalue-minimisations  :    56
 total energy-change (2. order) :-0.4274449E-04  (-0.7808024E-07)
 number of electron      22.0000000 magnetization 
 augmentation part        0.4910447 magnetization 

 Broyden mixing:
  rms(total) = 0.56946E-04    rms(broyden)= 0.56829E-04
  rms(prec ) = 0.86387E-04
  weight for this iteration     100.00

 eigenvalues of (default mixing * dielectric matrix)
  average eigenvalue GAMMA=   2.3144
  8.8774  5.8497  4.0492  2.7881  2.3876  2.0954  1.2143  1.2143  1.3034  1.3034
  1.0037  1.0037  1.0525  1.0525  0.9135  0.9210

 Free energy of the ion-electron system (eV)
  ---------------------------------------------------
  alpha Z        PSCENC =         0.62641250
  Ewald energy   TEWEN  =       890.43015364
  -Hartree energ DENC   =     -1422.01581475
  -exchange      EXHF   =         0.00000000
  -V(xc)+E(xc)   XCENC  =        72.58182242
  PAW double counting   =       297.55451602     -302.87105109
  entropy T*S    EENTRO =        -0.00000000
  eigenvalues    EBANDS =      -256.00109302
  atomic energy  EATOM  =       663.51739852
  Solvation  Ediel_sol  =         0.00000000
  ---------------------------------------------------
  free energy    TOTEN  =       -56.17765575 eV

  energy without entropy =      -56.17765575  energy(sigma->0) =      -56.17765575


--------------------------------------------------------------------------------------------------------




--------------------------------------- Iteration      1(  22)  ---------------------------------------


    POTLOK:  cpu time      0.3106: real time      0.3125
    SETDIJ:  cpu time      0.1941: real time      0.1950
     EDDAV:  cpu time      0.3659: real time      0.3683
       DOS:  cpu time      0.0001: real time      0.0001
    CHARGE:  cpu time      0.1922: real time      0.1931
    MIXING:  cpu time      0.0181: real time      0.0182
    --------------------------------------------
      LOOP:  cpu time      1.0810: real time      1.0871

 eigenvalue-minimisations  :    56
 total energy-change (2. order) :-0.8923220E-05  (-0.1020869E-07)
 number of electron      22.0000000 magnetization 
 augmentation part        0.4910453 magnetization 

 Broyden mixing:
  rms(total) = 0.33122E-04    rms(broyden)= 0.32929E-04
  rms(prec ) = 0.51099E-04
  weight for this iteration     100.00

 eigenvalues of (default mixing * dielectric matrix)
  average eigenvalue GAMMA=   2.3679
  9.0073  6.1684  4.4399  2.9705  2.5301  2.0214  2.0214  1.4773  1.3145  1.3145
  1.0940  1.0940  0.9900  0.9900  0.9613  0.9613  0.8986

 Free energy of the ion-electron system (eV)
  ---------------------------------------------------
  alpha Z        PSCENC =         0.62641250
  Ewald energy   TEWEN  =       890.43015364
  -Hartree energ DENC   =     -1422.01613800
  -exchange      EXHF   =         0.00000000
  -V(xc)+E(xc)   XCENC  =        72.58177570
  PAW double counting   =       297.55488248     -302.87141132
  entropy T*S    EENTRO =        -0.00000000
  eigenvalues    EBANDS =      -256.00073821
  atomic energy  EATOM  =       663.51739852
  Solvation  Ediel_sol  =         0.00000000
  ---------------------------------------------------
  free energy    TOTEN  =       -56.17766468 eV

  energy without entropy =      -56.17766468  energy(sigma->0) =      -56.17766468


--------------------------------------------------------------------------------------------------------




--------------------------------------- Iteration      1(  23)  ---------------------------------------


    POTLOK:  cpu time      0.3130: real time      0.3149
    SETDIJ:  cpu time      0.1950: real time      0.1960
     EDDAV:  cpu time      0.3650: real time      0.3675
       DOS:  cpu time      0.0001: real time      0.0001
    CHARGE:  cpu time      0.1933: real time      0.1942
    MIXING:  cpu time      0.0178: real time      0.0179
    --------------------------------------------
      LOOP:  cpu time      1.0844: real time      1.0906

 eigenvalue-minimisations  :    56
 total energy-change (2. order) :-0.6641361E-05  (-0.1415972E-07)
 number of electron      22.0000000 magnetization 
 augmentation part        0.4910443 magnetization 

 Broyden mixing:
  rms(total) = 0.28617E-04    rms(broyden)= 0.28392E-04
  rms(prec ) = 0.37701E-04
  weight for this iteration     100.00

 eigenvalues of (default mixing * dielectric matrix)
  average eigenvalue GAMMA=   2.3609
  9.0932  6.4318  4.7462  3.2142  2.3313  2.3313  2.0557  1.3416  1.3416  1.3633
  1.2032  0.9927  0.9927  1.1131  1.1131  1.0026  0.9455  0.8835

 Free energy of the ion-electron system (eV)
  ---------------------------------------------------
  alpha Z        PSCENC =         0.62641250
  Ewald energy   TEWEN  =       890.43015364
  -Hartree energ DENC   =     -1422.01806253
  -exchange      EXHF   =         0.00000000
  -V(xc)+E(xc)   XCENC  =        72.58181761
  PAW double counting   =       297.55574595     -302.87228243
  entropy T*S    EENTRO =        -0.00000000
  eigenvalues    EBANDS =      -255.99885459
  atomic energy  EATOM  =       663.51739852
  Solvation  Ediel_sol  =         0.00000000
  ---------------------------------------------------
  free energy    TOTEN  =       -56.17767132 eV

  energy without entropy =      -56.17767132  energy(sigma->0) =      -56.17767132


--------------------------------------------------------------------------------------------------------




--------------------------------------- Iteration      1(  24)  ---------------------------------------


    POTLOK:  cpu time      0.3102: real time      0.3121
    SETDIJ:  cpu time      0.1939: real time      0.1949
     EDDAV:  cpu time      0.3684: real time      0.3708
       DOS:  cpu time      0.0001: real time      0.0001
    CHARGE:  cpu time      0.1916: real time      0.1925
    MIXING:  cpu time      0.0194: real time      0.0194
    --------------------------------------------
      LOOP:  cpu time      1.0836: real time      1.0898

 eigenvalue-minimisations  :    56
 total energy-change (2. order) :-0.1246501E-05  (-0.2762238E-08)
 number of electron      22.0000000 magnetization 
 augmentation part        0.4910441 magnetization 

 Broyden mixing:
  rms(total) = 0.10885E-04    rms(broyden)= 0.10290E-04
  rms(prec ) = 0.16423E-04
  weight for this iteration     100.00

 eigenvalues of (default mixing * dielectric matrix)
  average eigenvalue GAMMA=   2.3792
  9.1234  6.6900  5.0110  3.4683  2.6157  2.5172  1.9775  1.3845  1.3845  1.5883
  1.4564  1.0919  1.0919  0.9901  0.9901  0.9843  0.9843  0.9610  0.8947

 Free energy of the ion-electron system (eV)
  ---------------------------------------------------
  alpha Z        PSCENC =         0.62641250
  Ewald energy   TEWEN  =       890.43015364
  -Hartree energ DENC   =     -1422.01835746
  -exchange      EXHF   =         0.00000000
  -V(xc)+E(xc)   XCENC  =        72.58180924
  PAW double counting   =       297.55554301     -302.87208773
  entropy T*S    EENTRO =        -0.00000000
  eigenvalues    EBANDS =      -255.99854428
  atomic energy  EATOM  =       663.51739852
  Solvation  Ediel_sol  =         0.00000000
  ---------------------------------------------------
  free energy    TOTEN  =       -56.17767257 eV

  energy without entropy =      -56.17767257  energy(sigma->0) =      -56.17767257


--------------------------------------------------------------------------------------------------------




--------------------------------------- Iteration      1(  25)  ---------------------------------------


    POTLOK:  cpu time      0.3160: real time      0.3179
    SETDIJ:  cpu time      0.1932: real time      0.1941
     EDDAV:  cpu time      0.2857: real time      0.2875
       DOS:  cpu time      0.0001: real time      0.0001
    CHARGE:  cpu time      0.1933: real time      0.1943
    MIXING:  cpu time      0.0180: real time      0.0180
    --------------------------------------------
      LOOP:  cpu time      1.0063: real time      1.0119

 eigenvalue-minimisations  :    40
 total energy-change (2. order) :-0.1124176E-05  (-0.2880570E-08)
 number of electron      22.0000000 magnetization 
 augmentation part        0.4910437 magnetization 

 Broyden mixing:
  rms(total) = 0.10378E-04    rms(broyden)= 0.97522E-05
  rms(prec ) = 0.13407E-04
  weight for this iteration     100.00

 eigenvalues of (default mixing * dielectric matrix)
  average eigenvalue GAMMA=   2.3753
  9.1459  6.8979  5.1481  3.7578  2.8200  2.3154  2.0303  2.0303  1.3667  1.3667
  1.3375  1.3375  1.0954  1.0954  0.9926  0.9926  1.0198  0.9278  0.9278  0.9001

 Free energy of the ion-electron system (eV)
  ---------------------------------------------------
  alpha Z        PSCENC =         0.62641250
  Ewald energy   TEWEN  =       890.43015364
  -Hartree energ DENC   =     -1422.01872435
  -exchange      EXHF   =         0.00000000
  -V(xc)+E(xc)   XCENC  =        72.58182323
  PAW double counting   =       297.55550719     -302.87205169
  entropy T*S    EENTRO =        -0.00000000
  eigenvalues    EBANDS =      -255.99819275
  atomic energy  EATOM  =       663.51739852
  Solvation  Ediel_sol  =         0.00000000
  ---------------------------------------------------
  free energy    TOTEN  =       -56.17767369 eV

  energy without entropy =      -56.17767369  energy(sigma->0) =      -56.17767369


--------------------------------------------------------------------------------------------------------




--------------------------------------- Iteration      1(  26)  ---------------------------------------


    POTLOK:  cpu time      0.3173: real time      0.3192
    SETDIJ:  cpu time      0.1941: real time      0.1950
     EDDAV:  cpu time      0.3633: real time      0.3657
       DOS:  cpu time      0.0001: real time      0.0001
    --------------------------------------------
      LOOP:  cpu time      0.8747: real time      0.8799

 eigenvalue-minimisations  :    56
 total energy-change (2. order) :-0.4473414E-06  (-0.8869758E-09)
 number of electron      22.0000000 magnetization 
 augmentation part        0.4910437 magnetization 

 Free energy of the ion-electron system (eV)
  ---------------------------------------------------
  alpha Z        PSCENC =         0.62641250
  Ewald energy   TEWEN  =       890.43015364
  -Hartree energ DENC   =     -1422.01845409
  -exchange      EXHF   =         0.00000000
  -V(xc)+E(xc)   XCENC  =        72.58181538
  PAW double counting   =       297.55513264     -302.87166815
  entropy T*S    EENTRO =        -0.00000000
  eigenvalues    EBANDS =      -255.99846459
  atomic energy  EATOM  =       663.51739852
  Solvation  Ediel_sol  =         0.00000000
  ---------------------------------------------------
  free energy    TOTEN  =       -56.17767414 eV

  energy without entropy =      -56.17767414  energy(sigma->0) =      -56.17767414


--------------------------------------------------------------------------------------------------------




 average (electrostatic) potential at core
  the test charge radii are     0.6991  0.5201
  (the norm of the test charge is              1.0000)
       1 -58.5386       2 -58.8197       3 -58.8840       4 -58.6068       5 -41.9312
       6 -41.5721       7 -41.6531       8 -41.6053       9 -42.0544      10 -41.8626
 
 
 
 E-fermi :  -5.4726     XC(G=0):  -0.4379     alpha+bet : -0.1681

 Fermi energy:        -5.4725852378

 k-point     1 :       0.0000    0.0000    0.0000
  band No.  band energies     occupation 
      1     -19.9112      2.00000
      2     -17.8966      2.00000
      3     -14.9026      2.00000
      4     -12.5729      2.00000
      5     -11.8865      2.00000
      6     -10.7127      2.00000
      7      -9.9457      2.00000
      8      -8.5453      2.00000
      9      -8.0886      2.00000
     10      -7.7670      2.00000
     11      -5.7701      2.00000
     12      -1.9382      0.00000
     13      -0.3852      0.00000
     14      -0.0735      0.00000
     15       0.2203      0.00000
     16       0.3688      0.00000
     17       0.4897      0.00000
     18       0.5487      0.00000
     19       0.5963      0.00000
     20       0.7855      0.00000
     21       0.8620      0.00000
     22       0.8822      0.00000
     23       1.0153      0.00000
     24       1.0987      0.00000


--------------------------------------------------------------------------------------------------------


 soft charge-density along one line, spin component           1
         0         1         2         3         4         5         6         7         8         9
 total charge-density along one line
 
 pseudopotential strength for first ion, spin component:           1
 10.257   0.020   0.004  -0.001   0.001   0.005  -0.003   0.001
  0.020  -0.001  -0.000   0.000  -0.000   0.000  -0.000   0.000
  0.004  -0.000  -4.368   0.009  -0.007  -0.021   0.002  -0.001
 -0.001   0.000   0.009  -4.359   0.006   0.002  -0.019   0.001
  0.001  -0.000  -0.007   0.006  -4.345  -0.001   0.001  -0.015
  0.005   0.000  -0.021   0.002  -0.001  -0.773   0.000  -0.000
 -0.003  -0.000   0.002  -0.019   0.001   0.000  -0.773   0.000
  0.001   0.000  -0.001   0.001  -0.015  -0.000   0.000  -0.772
 total augmentation occupancy for first ion, spin component:           1
  1.505  -1.158  -0.116   0.043  -0.028  -0.043   0.023  -0.008
 -1.158   0.995   0.166  -0.106   0.026   0.063  -0.039   0.013
 -0.116   0.166   1.277  -0.091   0.075   0.228  -0.029   0.030
  0.043  -0.106  -0.091   1.173  -0.065  -0.030   0.196  -0.030
 -0.028   0.026   0.075  -0.065   0.971   0.030  -0.030   0.110
 -0.043   0.063   0.228  -0.030   0.030   0.044  -0.009   0.008
  0.023  -0.039  -0.029   0.196  -0.030  -0.009   0.035  -0.008
 -0.008   0.013   0.030  -0.030   0.110   0.008  -0.008   0.014


------------------------ aborting loop because EDIFF is reached ----------------------------------------


    CHARGE:  cpu time      0.1937: real time      0.1947
    FORLOC:  cpu time      0.0348: real time      0.0349
    FORNL :  cpu time      1.0552: real time      1.0609
    STRESS:  cpu time      3.3459: real time      3.3638
    FORHAR:  cpu time      0.1110: real time      0.1116
    MIXING:  cpu time      0.0125: real time      0.0126
    OFIELD:  cpu time      0.0001: real time      0.0001

  FORCE on cell =-STRESS in cart. coord.  units (eV):
  Direction    XX          YY          ZZ          XY          YZ          ZX
  --------------------------------------------------------------------------------------
  Alpha Z     0.62641     0.62641     0.62641
  Ewald    -166.10514   423.72393   632.81105    80.54434   -20.05237  -181.92056
  Hartree   219.13295   498.61258   704.27324    36.14466    -8.36133  -103.18430
  E(xc)     -77.55123   -75.44150   -75.49355     0.30796    -0.02651    -0.51475
  Local    -275.29289 -1104.68713 -1528.48046  -109.82500    24.30397   275.97293
  n-local   -28.08934   -30.93639   -29.59205    -0.34918    -0.11000     0.47413
  augment    -0.55883    -0.76584    -0.69416    -0.04185     0.03960     0.04618
  Kinetic   327.52905   288.42264   293.41384    -6.16703     1.16201     9.31154
  Fock        0.00000     0.00000     0.00000     0.00000     0.00000     0.00000
  -------------------------------------------------------------------------------------
  Total      -0.30902    -0.44529    -3.13566     0.61391    -3.04462     0.18517
  in kB      -0.14670    -0.21139    -1.48856     0.29143    -1.44534     0.08791
  external pressure =       -0.62 kB  Pullay stress =        0.00 kB


 VOLUME and BASIS-vectors are now :
 -----------------------------------------------------------------------------
  energy-cutoff  :      520.00
  volume of cell :     3375.00
      direct lattice vectors                 reciprocal lattice vectors
    15.000000000  0.000000000  0.000000000     0.066666667  0.000000000  0.000000000
     0.000000000 15.000000000  0.000000000     0.000000000  0.066666667  0.000000000
     0.000000000  0.000000000 15.000000000     0.000000000  0.000000000  0.066666667

  length of vectors
    15.000000000 15.000000000 15.000000000     0.066666667  0.066666667  0.066666667


 FORCES acting on ions
    electron-ion (+dipol)            ewald-force                    non-local-force                 convergence-correction
 -----------------------------------------------------------------------------------------------
   -.356E+02 -.106E+03 0.114E+03   0.366E+02 0.110E+03 -.117E+03   0.764E+00 0.207E+01 0.431E+00   0.690E-06 0.200E-04 0.260E-04
   0.132E+02 0.105E+03 0.520E+02   -.140E+02 -.110E+03 -.504E+02   -.241E+00 -.129E+01 0.129E+01   -.156E-04 -.474E-04 0.424E-04
   -.146E+01 0.105E+03 -.478E+02   0.115E+01 -.105E+03 0.487E+02   -.785E+00 0.174E-01 -.101E+01   -.435E-06 -.310E-05 -.349E-05
   0.205E+02 -.828E+02 -.125E+03   -.211E+02 0.827E+02 0.126E+03   0.388E+00 -.163E+01 -.114E+01   0.167E-05 0.122E-04 -.181E-04
   -.202E+02 -.173E+02 0.616E+02   0.214E+02 0.177E+02 -.663E+02   -.175E+01 -.110E+01 0.502E+01   0.543E-05 0.614E-05 -.103E-04
   -.954E+01 -.612E+02 -.904E+01   0.985E+01 0.642E+02 0.109E+02   -.282E+00 -.416E+01 -.248E+01   -.101E-06 0.139E-04 0.117E-04
   0.662E+01 0.589E+02 0.361E+02   -.686E+01 -.622E+02 -.381E+02   0.568E+00 0.439E+01 0.239E+01   -.129E-05 -.590E-05 0.314E-05
   0.107E+02 0.630E+02 -.235E+02   -.113E+02 -.661E+02 0.248E+02   0.866E+00 0.466E+01 -.141E+01   0.151E-06 -.748E-06 -.270E-05
   -.586E+01 -.623E+02 0.225E+01   0.662E+01 0.674E+02 -.422E+01   -.107E+01 -.480E+01 0.273E+01   0.583E-07 0.185E-05 -.229E-05
   0.212E+02 -.144E+01 -.616E+02   -.224E+02 0.124E+01 0.653E+02   0.187E+01 0.598E+00 -.481E+01   -.107E-05 0.129E-05 -.267E-05
 -----------------------------------------------------------------------------------------------
   -.347E+00 0.121E+01 -.100E+01   -.178E-13 0.280E-13 0.000E+00   0.338E+00 -.124E+01 0.102E+01   -.105E-04 -.173E-05 0.437E-04
 
 
 POSITION                                       TOTAL-FORCE (eV/Angst)
 -----------------------------------------------------------------------------------
      7.87100      8.00100      6.09800         1.844250      6.150949     -2.063439
      7.57100      6.92800      6.68800        -1.069725     -5.707587      2.870055
      7.36800      6.79300      8.19500        -1.091556     -0.344896     -0.152363
      7.20700      7.87500      9.01400        -0.165261     -1.706993     -0.273673
      8.20800      8.19900      5.06000        -0.600347     -0.628521      0.331840
      7.93700      8.97400      6.69900         0.023216     -1.126481     -0.662861
      7.45100      5.93200      6.14800         0.324324      1.147279      0.439647
      7.16800      5.71100      8.52500         0.298796      1.567288     -0.185763
      7.40400      8.82500      8.50500        -0.303801      0.249741      0.758520
      6.81500      7.76100     10.06600         0.740103      0.399222     -1.061963
 -----------------------------------------------------------------------------------
    total drift:                               -0.009207     -0.029389      0.015019


--------------------------------------------------------------------------------------------------------



  FREE ENERGIE OF THE ION-ELECTRON SYSTEM (eV)
  ---------------------------------------------------
  free  energy   TOTEN  =       -56.17767414 eV

  energy  without entropy=      -56.17767414  energy(sigma->0) =      -56.17767414
 


--------------------------------------------------------------------------------------------------------


    POTLOK:  cpu time      0.5092: real time      0.5119


--------------------------------------------------------------------------------------------------------


 stress matrix after NEB project (eV)
     -0.30902      0.61391      0.18517
      0.61391     -0.44529     -3.04462
      0.18517     -3.04462     -3.13566
  FORCES: max atom, RMS     6.744866    3.180177
  FORCE total and by dimension   10.056603    6.150949
  Stress total and by dimension    5.430281    3.135665
     LOOP+:  cpu time     31.1350: real time     31.3115
    4ORBIT:  cpu time      0.0000: real time      0.0000

 total amount of memory used by VASP MPI-rank0   224782. kBytes
=======================================================================

   base      :      30000. kBytes
   nonlr-proj:       1258. kBytes
   fftplans  :     123538. kBytes
   grid      :      67787. kBytes
   one-center:         15. kBytes
   wavefun   :       2184. kBytes
 
  
  
 General timing and accounting informations for this job:
 ========================================================
  
                  Total CPU time used (sec):       37.787
                            User time (sec):       34.477
                          System time (sec):        3.310
                         Elapsed time (sec):       39.137
  
                   Maximum memory used (kb):      560380.
                   Average memory used (kb):          N/A
  
                          Minor page faults:       203750
                          Major page faults:         5437
                 Voluntary context switches:         3100
