 vasp.6.4.2 20Jul23 (build Apr 10 2024 13:39:58) complex                        
  
 executed on             LinuxIFC date 2024.05.17  17:31:54
 running   16 mpi-ranks, on    1 nodes
 distrk:  each k-point on   16 cores,    1 groups
 distr:  one band on NCORE=   2 cores,    8 groups


--------------------------------------------------------------------------------------------------------


 INCAR:
   ISTART = 0
   ISPIN = 1
   LREAL = Auto
   ENCUT = 520
   NPAR = 8
   LPLANE = .TRUE.
   LSCALU = .FALSE.
   NSIM = 4
   LWAVE = .FALSE.
   LCHARG = .FALSE.
   ADDGRID = .TRUE.
   LASPH = .TRUE.
   PREC = Accurate
   ISMEAR = 0
   SIGMA = 0.05
   EDIFF = 1E-06
   NSW = 0
   TEBEG = 300
   TEEND = 700     	
   ISYM = 0
   NWRITE = 2

 POTCAR:   PAW_PBE C 08Apr2002                    
 POTCAR:   PAW_PBE H 15Jun2001                    
 POTCAR:   PAW_PBE C 08Apr2002                    
   VRHFIN =C: s2p2                                                                                  
   LEXCH  = PE                                                                                      
   EATOM  =   147.1560 eV,   10.8157 Ry                                                             
                                                                                                    
   TITEL  = PAW_PBE C 08Apr2002                                                                     
   LULTRA =        F    use ultrasoft PP ?                                                          
   IUNSCR =        0    unscreen: 0-lin 1-nonlin 2-no                                               
   RPACOR =     .000    partial core radius                                                         
   POMASS =   12.011; ZVAL   =    4.000    mass and valenz                                          
   RCORE  =    1.500    outmost cutoff radius                                                       
   RWIGS  =    1.630; RWIGS  =     .863    wigner-seitz radius (au A)                               
   ENMAX  =  400.000; ENMIN  =  300.000 eV                                                          
   ICORE  =        2    local potential                                                             
   LCOR   =        T    correct aug charges                                                         
   LPAW   =        T    paw PP                                                                      
   EAUG   =  644.873                                                                                
   DEXC   =     .000                                                                                
   RMAX   =    2.266    core radius for proj-oper                                                   
   RAUG   =    1.300    factor for augmentation sphere                                              
   RDEP   =    1.501    radius for radial grids                                                     
   RDEPT  =    1.300    core radius for aug-charge                                                  
   QCUT   =   -5.516; QGAM   =   11.032    optimization parameters                                  
                                                                                                    
   Description                                                                                      
     l     E      TYP  RCUT    TYP  RCUT                                                            
     0   .000     23  1.200                                                                         
     0   .000     23  1.200                                                                         
     1   .000     23  1.500                                                                         
     1  2.500     23  1.500                                                                         
     2   .000      7  1.500                                                                         
  local pseudopotential read in
  atomic valenz-charges read in
  non local Contribution for L=           0  read in
    real space projection operators read in
  non local Contribution for L=           0  read in
    real space projection operators read in
  non local Contribution for L=           1  read in
    real space projection operators read in
  non local Contribution for L=           1  read in
    real space projection operators read in
    PAW grid and wavefunctions read in
 
   number of l-projection  operators is LMAX  =           4
   number of lm-projection operators is LMMAX =           8
 
 POTCAR:   PAW_PBE H 15Jun2001                    
   VRHFIN =H: ultrasoft test                                                                        
   LEXCH  = PE                                                                                      
   EATOM  =    12.4884 eV,     .9179 Ry                                                             
                                                                                                    
   TITEL  = PAW_PBE H 15Jun2001                                                                     
   LULTRA =        F    use ultrasoft PP ?                                                          
   IUNSCR =        0    unscreen: 0-lin 1-nonlin 2-no                                               
   RPACOR =     .000    partial core radius                                                         
   POMASS =    1.000; ZVAL   =    1.000    mass and valenz                                          
   RCORE  =    1.100    outmost cutoff radius                                                       
   RWIGS  =     .700; RWIGS  =     .370    wigner-seitz radius (au A)                               
   ENMAX  =  250.000; ENMIN  =  200.000 eV                                                          
   RCLOC  =     .701    cutoff for local pot                                                        
   LCOR   =        T    correct aug charges                                                         
   LPAW   =        T    paw PP                                                                      
   EAUG   =  400.000                                                                                
   RMAX   =    2.174    core radius for proj-oper                                                   
   RAUG   =    1.200    factor for augmentation sphere                                              
   RDEP   =    1.112    radius for radial grids                                                     
   QCUT   =   -5.749; QGAM   =   11.498    optimization parameters                                  
                                                                                                    
   Description                                                                                      
     l     E      TYP  RCUT    TYP  RCUT                                                            
     0   .000     23  1.100                                                                         
     0   .500     23  1.100                                                                         
     1  -.300     23  1.100                                                                         
  local pseudopotential read in
  atomic valenz-charges read in
  non local Contribution for L=           0  read in
    real space projection operators read in
  non local Contribution for L=           0  read in
    real space projection operators read in
  non local Contribution for L=           1  read in
    real space projection operators read in
    PAW grid and wavefunctions read in
 
   number of l-projection  operators is LMAX  =           3
   number of lm-projection operators is LMMAX =           5
 
 Optimization of the real space projectors (new method)

 maximal supplied QI-value         = 25.13
 optimisation between [QCUT,QGAM] = [ 11.56, 23.12] = [ 37.43,149.72] Ry 
 Optimized for a Real-space Cutoff    1.04 Angstroem

   l    n(q)    QCUT    max X(q) W(low)/X(q) W(high)/X(q)  e(spline) 
   0      7    11.561     5.582    0.47E-04    0.94E-04    0.17E-07
   0      7    11.561    69.432    0.20E-03    0.59E-03    0.21E-06
   1      7    11.561     2.780    0.24E-04    0.70E-04    0.44E-07
   1      7    11.561     4.549    0.18E-03    0.25E-03    0.12E-06
 Optimization of the real space projectors (new method)

 maximal supplied QI-value         = 34.20
 optimisation between [QCUT,QGAM] = [ 11.63, 23.26] = [ 37.87,151.49] Ry 
 Optimized for a Real-space Cutoff    1.21 Angstroem

   l    n(q)    QCUT    max X(q) W(low)/X(q) W(high)/X(q)  e(spline) 
   0      8    11.629     4.436    0.19E-04    0.32E-04    0.47E-07
   0      8    11.629    16.131    0.16E-03    0.33E-03    0.21E-06
   1      8    11.629     4.654    0.18E-03    0.16E-03    0.26E-06
 PAW_PBE C 08Apr2002                    :
 energy of atom  1       EATOM= -147.1560
 kinetic energy error for atom=    0.0071 (will be added to EATOM!!)
 PAW_PBE H 15Jun2001                    :
 energy of atom  2       EATOM=  -12.4884
 kinetic energy error for atom=    0.0014 (will be added to EATOM!!)
 
 
 POSCAR:  C  H
  positions in cartesian coordinates
  No initial velocities read in
 exchange correlation table for  LEXCH =        8
   RHO(1)=    0.500       N(1)  =     2000
   RHO(2)=  100.500       N(2)  =     4000

 VTST: version 4.1, (05/19/21)

 CHAIN: initializing optimizer
 
 OPT: Using VASP Dynamics algorithm
 CHAIN: Read ICHAIN            0
 
 POSCAR:  C  H
  positions in cartesian coordinates
  No initial velocities read in
 


--------------------------------------------------------------------------------------------------------


 ion  position               nearest neighbor table
   1  0.540  0.484  0.397-   5 1.10   6 1.15   2 1.34
   2  0.483  0.530  0.448-   7 1.11   1 1.34   3 1.43
   3  0.476  0.532  0.544-   8 1.06   4 1.32   2 1.43
   4  0.489  0.471  0.605-  10 1.07   9 1.10   3 1.32
   5  0.545  0.486  0.324-   1 1.10
   6  0.599  0.446  0.429-   1 1.15
   7  0.429  0.570  0.417-   2 1.11
   8  0.460  0.595  0.574-   3 1.06
   9  0.495  0.401  0.586-   4 1.10
  10  0.483  0.485  0.675-   4 1.07
 

IMPORTANT INFORMATION: All symmetrisations will be switched off!
NOSYMM: (Re-)initialisation of all symmetry stuff for point group C_1.


----------------------------------------------------------------------------------------

                                     Primitive cell                                     

  volume of cell :    3375.0000

  direct lattice vectors                    reciprocal lattice vectors
    15.000000000  0.000000000  0.000000000     0.066666667  0.000000000  0.000000000
     0.000000000 15.000000000  0.000000000     0.000000000  0.066666667  0.000000000
     0.000000000  0.000000000 15.000000000     0.000000000  0.000000000  0.066666667

  length of vectors
    15.000000000 15.000000000 15.000000000     0.066666667  0.066666667  0.066666667

  position of ions in fractional coordinates (direct lattice)
     0.540399996  0.484466680  0.397399998
     0.483399995  0.530333328  0.448466682
     0.475599988  0.532466666  0.543600019
     0.489000003  0.471133327  0.604933357
     0.545333354  0.486133321  0.324133333
     0.598800023  0.445733325  0.428999996
     0.429200013  0.569799995  0.417400010
     0.460133330  0.594666672  0.573533312
     0.494933319  0.400533326  0.586466662
     0.483200010  0.484733327  0.675000000

  ion indices of the primitive-cell ions
   primitive index   ion index
                 1           1
                 2           2
                 3           3
                 4           4
                 5           5
                 6           6
                 7           7
                 8           8
                 9           9
                10          10

----------------------------------------------------------------------------------------

 
 
 KPOINTS: K-Spacing Value to Generate K-Mesh: 1.00

Automatic generation of k-mesh.
 Grid dimensions read from file:
 generate k-points for:    1    1    1

 Generating k-lattice:

  Cartesian coordinates                     Fractional coordinates (reciprocal lattice)
     0.066666667  0.000000000  0.000000000     1.000000000  0.000000000  0.000000000
     0.000000000  0.066666667  0.000000000     0.000000000  1.000000000  0.000000000
     0.000000000  0.000000000  0.066666667     0.000000000  0.000000000  1.000000000

  Length of vectors
     0.066666667  0.066666667  0.066666667

  Shift w.r.t. Gamma in fractional coordinates (k-lattice)
     0.000000000  0.000000000  0.000000000

 
 Subroutine IBZKPT returns following result:
 ===========================================
 
 Found      1 irreducible k-points:
 
 Following reciprocal coordinates:
            Coordinates               Weight
  0.000000  0.000000  0.000000      1.000000
 
 Following cartesian coordinates:
            Coordinates               Weight
  0.000000  0.000000  0.000000      1.000000
 


--------------------------------------------------------------------------------------------------------




 Dimension of arrays:
   k-points           NKPTS =      1   k-points in BZ     NKDIM =      1   number of bands    NBANDS=     24
   number of dos      NEDOS =    301   number of ions     NIONS =     10
   non local maximal  LDIM  =      4   non local SUM 2l+1 LMDIM =      8
   total plane-waves  NPLWV = ******
   max r-space proj   IRMAX =   3145   max aug-charges    IRDMAX=  39494
   dimension x,y,z NGX =   112 NGY =  112 NGZ =  112
   dimension x,y,z NGXF=   224 NGYF=  224 NGZF=  224
   support grid    NGXF=   448 NGYF=  448 NGZF=  448
   ions per type =               4   6
   NGX,Y,Z   is equivalent  to a cutoff of  12.41, 12.41, 12.41 a.u.
   NGXF,Y,Z  is equivalent  to a cutoff of  24.83, 24.83, 24.83 a.u.

 SYSTEM =  unknown system                          
 POSCAR =   C  H                                   

 Startparameter for this run:
   NWRITE =      2    write-flag & timer
   PREC   = accura    normal or accurate (medium, high low for compatibility)
   ISTART =      0    job   : 0-new  1-cont  2-samecut
   ICHARG =      2    charge: 1-file 2-atom 10-const
   ISPIN  =      1    spin polarized calculation?
   LNONCOLLINEAR =      F non collinear calculations
   LSORBIT =      F    spin-orbit coupling
   INIWAV =      1    electr: 0-lowe 1-rand  2-diag
   LASPH  =      T    aspherical Exc in radial PAW
 Electronic Relaxation 1
   ENCUT  =  520.0 eV  38.22 Ry    6.18 a.u.  27.89 27.89 27.89*2*pi/ulx,y,z
   ENINI  =  520.0     initial cutoff
   ENAUG  =  644.9 eV  augmentation charge cutoff
   NELM   =     60;   NELMIN=  2; NELMDL= -5     # of ELM steps 
   EDIFF  = 0.1E-05   stopping-criterion for ELM
   LREAL  =      T    real-space projection
   NLSPLINE    = F    spline interpolate recip. space projectors
   LCOMPAT=      F    compatible to vasp.4.4
   GGA_COMPAT  = T    GGA compatible to vasp.4.4-vasp.4.6
   LMAXPAW     = -100 max onsite density
   LMAXMIX     =    2 max onsite mixed and CHGCAR
   VOSKOWN=      0    Vosko Wilk Nusair interpolation
   ROPT   =   -0.00025  -0.00025
 Ionic relaxation
   EDIFFG = 0.1E-04   stopping-criterion for IOM
   NSW    =      0    number of steps for IOM
   NBLOCK =      1;   KBLOCK =      1    inner block; outer block 
   IBRION =     -1    ionic relax: 0-MD 1-quasi-New 2-CG
   NFREE  =      0    steps in history (QN), initial steepest desc. (CG)
   ISIF   =      2    stress and relaxation
   IWAVPR =     10    prediction:  0-non 1-charg 2-wave 3-comb
   ISYM   =      0    0-nonsym 1-usesym 2-fastsym
   LCORR  =      T    Harris-Foulkes like correction to forces

   POTIM  = 0.5000    time-step for ionic-motion
   TEIN   =    0.0    initial temperature
   TEBEG  =  300.0;   TEEND  = 700.0 temperature during run
   SMASS  =  -3.00    Nose mass-parameter (am)
   estimated Nose-frequenzy (Omega)   =  0.10E-29 period in steps = 0.13E+47 mass=  -0.514E-26a.u.
   SCALEE = 1.0000    scale energy and forces
   NPACO  =    256;   APACO  = 10.0  distance and # of slots for P.C.
   PSTRESS=    0.0 pullay stress

  Mass of Ions in am
   POMASS =  12.01  1.00
  Ionic Valenz
   ZVAL   =   4.00  1.00
  Atomic Wigner-Seitz radii
   RWIGS  =  -1.00 -1.00
  virtual crystal weights 
   VCA    =   1.00  1.00
   NELECT =      22.0000    total number of electrons
   NUPDOWN=      -1.0000    fix difference up-down

 DOS related values:
   EMIN   =  10.00;   EMAX   =-10.00  energy-range for DOS
   EFERMI =   0.00;   METHOD = LEGACY      
   ISMEAR =     0;   SIGMA  =   0.05  broadening in eV -4-tet -1-fermi 0-gaus

 Electronic relaxation 2 (details)
   IALGO  =     38    algorithm
   LDIAG  =      T    sub-space diagonalisation (order eigenvalues)
   LSUBROT=      F    optimize rotation matrix (better conditioning)
   TURBO    =      0    0=normal 1=particle mesh
   IRESTART =      0    0=no restart 2=restart with 2 vectors
   NREBOOT  =      0    no. of reboots
   NMIN     =      0    reboot dimension
   EREF     =   0.00    reference energy to select bands
   IMIX   =      4    mixing-type and parameters
     AMIX     =   0.40;   BMIX     =  1.00
     AMIX_MAG =   1.60;   BMIX_MAG =  1.00
     AMIN     =   0.10
     WC   =   100.;   INIMIX=   1;  MIXPRE=   1;  MAXMIX= -45

 Intra band minimization:
   WEIMIN = 0.0000     energy-eigenvalue tresh-hold
   EBREAK =  0.10E-07  absolut break condition
   DEPER  =   0.30     relativ break condition  

   TIME   =   0.40     timestep for ELM

  volume/ion in A,a.u.               =     337.50      2277.56
  Fermi-wavevector in a.u.,A,eV,Ry     =   0.305814  0.577905  1.272449  0.093522
  Thomas-Fermi vector in A             =   1.179187
 
 Write flags
   LWAVE        =      F    write WAVECAR
   LDOWNSAMPLE  =      F    k-point downsampling of WAVECAR
   LCHARG       =      F    write CHGCAR
   LVTOT        =      F    write LOCPOT, total local potential
   LVHAR        =      F    write LOCPOT, Hartree potential only
   LELF         =      F    write electronic localiz. function (ELF)
   LORBIT       =      0    0 simple, 1 ext, 2 COOP (PROOUT), +10 PAW based schemes


 Dipole corrections
   LMONO  =      F    monopole corrections only (constant potential shift)
   LDIPOL =      F    correct potential (dipole corrections)
   IDIPOL =      0    1-x, 2-y, 3-z, 4-all directions 
   EPSILON=  1.0000000 bulk dielectric constant

 Exchange correlation treatment:
   GGA     =    --    GGA type
   LEXCH   =     8    internal setting for exchange type
   LIBXC   =     F    Libxc                    
   VOSKOWN =     0    Vosko Wilk Nusair interpolation
   LHFCALC =     F    Hartree Fock is set to
   LHFONE  =     F    Hartree Fock one center treatment
   AEXX    =    0.0000 exact exchange contribution

 Linear response parameters
   LEPSILON=     F    determine dielectric tensor
   LRPA    =     F    only Hartree local field effects (RPA)
   LNABLA  =     F    use nabla operator in PAW spheres
   LVEL    =     F    velocity operator in full k-point grid
   CSHIFT  =0.1000    complex shift for real part using Kramers Kronig
   OMEGAMAX=  -1.0    maximum frequency
   DEG_THRESHOLD= 0.2000000E-02 threshold for treating states as degnerate
   RTIME   =   -0.100 relaxation time in fs
  (WPLASMAI=    0.000 imaginary part of plasma frequency in eV, 0.658/RTIME)
   DFIELD  = 0.0000000 0.0000000 0.0000000 field for delta impulse in time
 
  Optional k-point grid parameters
   LKPOINTS_OPT  =     F    use optional k-point grid
   KPOINTS_OPT_MODE=     1    mode for optional k-point grid
 
 Orbital magnetization related:
   ORBITALMAG=     F  switch on orbital magnetization
   LCHIMAG   =     F  perturbation theory with respect to B field
   DQ        =  0.001000  dq finite difference perturbation B field
   LLRAUG    =     F  two centre corrections for induced B field
   LBONE     =     F  B-component reconstruction in AE one-centre
   LVGVCALC  =     T  calculate vGv susceptibility
   LVGVAPPL  =     F  apply vGv susceptibility instead of pGv for G=0

 Random number generation:
   RANDOM_GENERATOR = DEFAULT
   PCG_SEED         = not used


--------------------------------------------------------------------------------------------------------


 Static calculation
 charge density and potential will be updated during run
 non-spin polarized calculation
 Variant of blocked Davidson
 Davidson routine will perform the subspace rotation
 perform sub-space diagonalisation
    after iterative eigenvector-optimisation
 modified Broyden-mixing scheme, WC =      100.0
 initial mixing is a Kerker type mixing with AMIX =  0.4000 and BMIX =      1.0000
 Hartree-type preconditioning will be used
 using additional bands           13
 real space projection scheme for non local part
 calculate Harris-corrections to forces 
   (improved forces if not selfconsistent)
 use gradient corrections 
 use of overlap-Matrix (Vanderbilt PP)
 Gauss-broadening in eV      SIGMA  =   0.05


--------------------------------------------------------------------------------------------------------


  energy-cutoff  :      520.00
  volume of cell :     3375.00
      direct lattice vectors                 reciprocal lattice vectors
    15.000000000  0.000000000  0.000000000     0.066666667  0.000000000  0.000000000
     0.000000000 15.000000000  0.000000000     0.000000000  0.066666667  0.000000000
     0.000000000  0.000000000 15.000000000     0.000000000  0.000000000  0.066666667

  length of vectors
    15.000000000 15.000000000 15.000000000     0.066666667  0.066666667  0.066666667


 
 k-points in units of 2pi/SCALE and weight: K-Spacing Value to Generate K-Mesh: 1.00
   0.00000000  0.00000000  0.00000000       1.000
 
 k-points in reciprocal lattice and weights: K-Spacing Value to Generate K-Mesh: 1.00
   0.00000000  0.00000000  0.00000000       1.000
 
 position of ions in fractional coordinates (direct lattice) 
   0.54040000  0.48446668  0.39740000
   0.48340000  0.53033333  0.44846668
   0.47559999  0.53246667  0.54360002
   0.48900000  0.47113333  0.60493336
   0.54533335  0.48613332  0.32413333
   0.59880002  0.44573332  0.42900000
   0.42920001  0.56980000  0.41740001
   0.46013333  0.59466667  0.57353331
   0.49493332  0.40053333  0.58646666
   0.48320001  0.48473333  0.67500000
 
 position of ions in cartesian coordinates  (Angst):
   8.10599995  7.26700020  5.96099997
   7.25099993  7.95499992  6.72700024
   7.13399982  7.98699999  8.15400028
   7.33500004  7.06699991  9.07400036
   8.18000031  7.29199982  4.86199999
   8.98200035  6.68599987  6.43499994
   6.43800020  8.54699993  6.26100016
   6.90199995  8.92000008  8.60299969
   7.42399979  6.00799990  8.79699993
   7.24800014  7.27099991 10.12500000
 


--------------------------------------------------------------------------------------------------------


 k-point   1 :   0.0000 0.0000 0.0000  plane waves:   90879

 maximum and minimum number of plane-waves per node :     45467    45412

 maximum number of plane-waves:     90879
 maximum index in each direction: 
   IXMAX=   27   IYMAX=   27   IZMAX=   27
   IXMIN=  -27   IYMIN=  -27   IZMIN=  -27


 real space projection operators:
  total allocation   :       1185.44 KBytes
  max/ min on nodes  :        592.86        592.58


 parallel 3D FFT for wavefunctions:
    minimum data exchange during FFTs selected (reduces bandwidth)
 parallel 3D FFT for charge:
    minimum data exchange during FFTs selected (reduces bandwidth)


 total amount of memory used by VASP MPI-rank0   224783. kBytes
=======================================================================

   base      :      30000. kBytes
   nonlr-proj:       1259. kBytes
   fftplans  :     123538. kBytes
   grid      :      67787. kBytes
   one-center:         15. kBytes
   wavefun   :       2184. kBytes
 
     INWAV:  cpu time      0.0000: real time      0.0000
 Broyden mixing: mesh for mixing (old mesh)
   NGX = 55   NGY = 55   NGZ = 55
  (NGX  =224   NGY  =224   NGZ  =224)
  gives a total of 166375 points

 initial charge density was supplied:
 charge density of overlapping atoms calculated
 number of electron      22.0000000 magnetization 
 keeping initial charge density in first step


--------------------------------------------------------------------------------------------------------


 Maximum index for non-local projection operator         1519
 Maximum index for augmentation-charges         2460 (set IRDMAX)


--------------------------------------------------------------------------------------------------------


 First call to EWALD:  gamma=   0.118
 Maximum number of real-space cells 3x 3x 3
 Maximum number of reciprocal cells 3x 3x 3

    FEWALD:  cpu time      0.0010: real time      0.0010


--------------------------------------- Ionic step        1  -------------------------------------------




--------------------------------------- Iteration      1(   1)  ---------------------------------------


    POTLOK:  cpu time      0.3353: real time      0.3373
    SETDIJ:  cpu time      0.1960: real time      0.1967
     EDDAV:  cpu time      0.4210: real time      0.4233
       DOS:  cpu time      0.0002: real time      0.0002
    --------------------------------------------
      LOOP:  cpu time      0.9525: real time      0.9576

 eigenvalue-minimisations  :    64
 total energy-change (2. order) : 0.1053053E+03  (-0.5316649E+03)
 number of electron      22.0000000 magnetization 
 augmentation part       22.0000000 magnetization 

 Free energy of the ion-electron system (eV)
  ---------------------------------------------------
  alpha Z        PSCENC =         0.62641250
  Ewald energy   TEWEN  =       892.97145627
  -Hartree energ DENC   =     -1313.75067427
  -exchange      EXHF   =         0.00000000
  -V(xc)+E(xc)   XCENC  =        67.41210332
  PAW double counting   =       156.01372664     -160.66969168
  entropy T*S    EENTRO =        -0.00481851
  eigenvalues    EBANDS =      -200.81059321
  atomic energy  EATOM  =       663.51739852
  Solvation  Ediel_sol  =         0.00000000
  ---------------------------------------------------
  free energy    TOTEN  =       105.30531958 eV

  energy without entropy =      105.31013809  energy(sigma->0) =      105.30772884


--------------------------------------------------------------------------------------------------------




--------------------------------------- Iteration      1(   2)  ---------------------------------------


     EDDAV:  cpu time      0.4865: real time      0.4891
       DOS:  cpu time      0.0001: real time      0.0001
    --------------------------------------------
      LOOP:  cpu time      0.4866: real time      0.4893

 eigenvalue-minimisations  :    80
 total energy-change (2. order) :-0.1266636E+03  (-0.1242084E+03)
 number of electron      22.0000000 magnetization 
 augmentation part       22.0000000 magnetization 

 Free energy of the ion-electron system (eV)
  ---------------------------------------------------
  alpha Z        PSCENC =         0.62641250
  Ewald energy   TEWEN  =       892.97145627
  -Hartree energ DENC   =     -1313.75067427
  -exchange      EXHF   =         0.00000000
  -V(xc)+E(xc)   XCENC  =        67.41210332
  PAW double counting   =       156.01372664     -160.66969168
  entropy T*S    EENTRO =        -0.00000000
  eigenvalues    EBANDS =      -327.47896398
  atomic energy  EATOM  =       663.51739852
  Solvation  Ediel_sol  =         0.00000000
  ---------------------------------------------------
  free energy    TOTEN  =       -21.35823267 eV

  energy without entropy =      -21.35823267  energy(sigma->0) =      -21.35823267


--------------------------------------------------------------------------------------------------------




--------------------------------------- Iteration      1(   3)  ---------------------------------------


     EDDAV:  cpu time      0.4454: real time      0.4479
       DOS:  cpu time      0.0001: real time      0.0001
    --------------------------------------------
      LOOP:  cpu time      0.4455: real time      0.4480

 eigenvalue-minimisations  :    72
 total energy-change (2. order) :-0.3983271E+02  (-0.3974049E+02)
 number of electron      22.0000000 magnetization 
 augmentation part       22.0000000 magnetization 

 Free energy of the ion-electron system (eV)
  ---------------------------------------------------
  alpha Z        PSCENC =         0.62641250
  Ewald energy   TEWEN  =       892.97145627
  -Hartree energ DENC   =     -1313.75067427
  -exchange      EXHF   =         0.00000000
  -V(xc)+E(xc)   XCENC  =        67.41210332
  PAW double counting   =       156.01372664     -160.66969168
  entropy T*S    EENTRO =        -0.00000000
  eigenvalues    EBANDS =      -367.31167270
  atomic energy  EATOM  =       663.51739852
  Solvation  Ediel_sol  =         0.00000000
  ---------------------------------------------------
  free energy    TOTEN  =       -61.19094139 eV

  energy without entropy =      -61.19094139  energy(sigma->0) =      -61.19094139


--------------------------------------------------------------------------------------------------------




--------------------------------------- Iteration      1(   4)  ---------------------------------------


     EDDAV:  cpu time      0.4459: real time      0.4484
       DOS:  cpu time      0.0001: real time      0.0001
    --------------------------------------------
      LOOP:  cpu time      0.4460: real time      0.4485

 eigenvalue-minimisations  :    72
 total energy-change (2. order) :-0.2300155E+01  (-0.2298027E+01)
 number of electron      22.0000000 magnetization 
 augmentation part       22.0000000 magnetization 

 Free energy of the ion-electron system (eV)
  ---------------------------------------------------
  alpha Z        PSCENC =         0.62641250
  Ewald energy   TEWEN  =       892.97145627
  -Hartree energ DENC   =     -1313.75067427
  -exchange      EXHF   =         0.00000000
  -V(xc)+E(xc)   XCENC  =        67.41210332
  PAW double counting   =       156.01372664     -160.66969168
  entropy T*S    EENTRO =        -0.00000000
  eigenvalues    EBANDS =      -369.61182756
  atomic energy  EATOM  =       663.51739852
  Solvation  Ediel_sol  =         0.00000000
  ---------------------------------------------------
  free energy    TOTEN  =       -63.49109626 eV

  energy without entropy =      -63.49109626  energy(sigma->0) =      -63.49109626


--------------------------------------------------------------------------------------------------------




--------------------------------------- Iteration      1(   5)  ---------------------------------------


     EDDAV:  cpu time      0.4114: real time      0.4137
       DOS:  cpu time      0.0001: real time      0.0001
    CHARGE:  cpu time      0.1994: real time      0.2003
    MIXING:  cpu time      0.0136: real time      0.0137
    --------------------------------------------
      LOOP:  cpu time      0.6246: real time      0.6279

 eigenvalue-minimisations  :    64
 total energy-change (2. order) :-0.1898291E-01  (-0.1897672E-01)
 number of electron      22.0000000 magnetization 
 augmentation part        0.5956525 magnetization 

 Broyden mixing:
  rms(total) = 0.12129E+01    rms(broyden)= 0.12127E+01
  rms(prec ) = 0.14552E+01
  weight for this iteration     100.00

 Free energy of the ion-electron system (eV)
  ---------------------------------------------------
  alpha Z        PSCENC =         0.62641250
  Ewald energy   TEWEN  =       892.97145627
  -Hartree energ DENC   =     -1313.75067427
  -exchange      EXHF   =         0.00000000
  -V(xc)+E(xc)   XCENC  =        67.41210332
  PAW double counting   =       156.01372664     -160.66969168
  entropy T*S    EENTRO =        -0.00000000
  eigenvalues    EBANDS =      -369.63081048
  atomic energy  EATOM  =       663.51739852
  Solvation  Ediel_sol  =         0.00000000
  ---------------------------------------------------
  free energy    TOTEN  =       -63.51007917 eV

  energy without entropy =      -63.51007917  energy(sigma->0) =      -63.51007917


--------------------------------------------------------------------------------------------------------




--------------------------------------- Iteration      1(   6)  ---------------------------------------


    POTLOK:  cpu time      0.3070: real time      0.3087
    SETDIJ:  cpu time      0.1944: real time      0.1952
     EDDAV:  cpu time      0.4459: real time      0.4483
       DOS:  cpu time      0.0001: real time      0.0001
    CHARGE:  cpu time      0.1971: real time      0.1979
    MIXING:  cpu time      0.0115: real time      0.0116
    --------------------------------------------
      LOOP:  cpu time      1.1561: real time      1.1617

 eigenvalue-minimisations  :    72
 total energy-change (2. order) : 0.5494466E+01  (-0.7962702E+00)
 number of electron      22.0000000 magnetization 
 augmentation part        0.5445764 magnetization 

 Broyden mixing:
  rms(total) = 0.58132E+00    rms(broyden)= 0.58129E+00
  rms(prec ) = 0.68919E+00
  weight for this iteration     100.00

 eigenvalues of (default mixing * dielectric matrix)
  average eigenvalue GAMMA=   1.6294
  1.6294

 Free energy of the ion-electron system (eV)
  ---------------------------------------------------
  alpha Z        PSCENC =         0.62641250
  Ewald energy   TEWEN  =       892.97145627
  -Hartree energ DENC   =     -1362.04752887
  -exchange      EXHF   =         0.00000000
  -V(xc)+E(xc)   XCENC  =        69.90049059
  PAW double counting   =       232.84868383     -238.08316865
  entropy T*S    EENTRO =        -0.00000000
  eigenvalues    EBANDS =      -317.74935785
  atomic energy  EATOM  =       663.51739852
  Solvation  Ediel_sol  =         0.00000000
  ---------------------------------------------------
  free energy    TOTEN  =       -58.01561366 eV

  energy without entropy =      -58.01561366  energy(sigma->0) =      -58.01561366


--------------------------------------------------------------------------------------------------------




--------------------------------------- Iteration      1(   7)  ---------------------------------------


    POTLOK:  cpu time      0.3084: real time      0.3101
    SETDIJ:  cpu time      0.1905: real time      0.1913
     EDDAV:  cpu time      0.4099: real time      0.4121
       DOS:  cpu time      0.0001: real time      0.0001
    CHARGE:  cpu time      0.1982: real time      0.1990
    MIXING:  cpu time      0.0117: real time      0.0117
    --------------------------------------------
      LOOP:  cpu time      1.1188: real time      1.1243

 eigenvalue-minimisations  :    64
 total energy-change (2. order) : 0.1265456E+01  (-0.4773889E+00)
 number of electron      22.0000000 magnetization 
 augmentation part        0.5090959 magnetization 

 Broyden mixing:
  rms(total) = 0.22831E+00    rms(broyden)= 0.22823E+00
  rms(prec ) = 0.26112E+00
  weight for this iteration     100.00

 eigenvalues of (default mixing * dielectric matrix)
  average eigenvalue GAMMA=   1.9430
  1.9430  1.9430

 Free energy of the ion-electron system (eV)
  ---------------------------------------------------
  alpha Z        PSCENC =         0.62641250
  Ewald energy   TEWEN  =       892.97145627
  -Hartree energ DENC   =     -1401.28215878
  -exchange      EXHF   =         0.00000000
  -V(xc)+E(xc)   XCENC  =        72.14898021
  PAW double counting   =       298.75293349     -304.26245366
  entropy T*S    EENTRO =        -0.00000000
  eigenvalues    EBANDS =      -279.22272634
  atomic energy  EATOM  =       663.51739852
  Solvation  Ediel_sol  =         0.00000000
  ---------------------------------------------------
  free energy    TOTEN  =       -56.75015779 eV

  energy without entropy =      -56.75015779  energy(sigma->0) =      -56.75015779


--------------------------------------------------------------------------------------------------------




--------------------------------------- Iteration      1(   8)  ---------------------------------------


    POTLOK:  cpu time      0.3125: real time      0.3141
    SETDIJ:  cpu time      0.1900: real time      0.1908
     EDDAV:  cpu time      0.4097: real time      0.4119
       DOS:  cpu time      0.0001: real time      0.0001
    CHARGE:  cpu time      0.1975: real time      0.1983
    MIXING:  cpu time      0.0103: real time      0.0103
    --------------------------------------------
      LOOP:  cpu time      1.1201: real time      1.1256

 eigenvalue-minimisations  :    64
 total energy-change (2. order) : 0.1637280E+00  (-0.3827396E-01)
 number of electron      22.0000000 magnetization 
 augmentation part        0.5114705 magnetization 

 Broyden mixing:
  rms(total) = 0.46936E-01    rms(broyden)= 0.46929E-01
  rms(prec ) = 0.78803E-01
  weight for this iteration     100.00

 eigenvalues of (default mixing * dielectric matrix)
  average eigenvalue GAMMA=   1.6190
  2.3610  0.9254  1.5705

 Free energy of the ion-electron system (eV)
  ---------------------------------------------------
  alpha Z        PSCENC =         0.62641250
  Ewald energy   TEWEN  =       892.97145627
  -Hartree energ DENC   =     -1407.62695124
  -exchange      EXHF   =         0.00000000
  -V(xc)+E(xc)   XCENC  =        72.69175586
  PAW double counting   =       304.29923110     -309.64628650
  entropy T*S    EENTRO =        -0.00000000
  eigenvalues    EBANDS =      -273.41944625
  atomic energy  EATOM  =       663.51739852
  Solvation  Ediel_sol  =         0.00000000
  ---------------------------------------------------
  free energy    TOTEN  =       -56.58642975 eV

  energy without entropy =      -56.58642975  energy(sigma->0) =      -56.58642975


--------------------------------------------------------------------------------------------------------




--------------------------------------- Iteration      1(   9)  ---------------------------------------


    POTLOK:  cpu time      0.3129: real time      0.3146
    SETDIJ:  cpu time      0.1915: real time      0.1924
     EDDAV:  cpu time      0.4864: real time      0.4890
       DOS:  cpu time      0.0001: real time      0.0001
    CHARGE:  cpu time      0.1964: real time      0.1971
    MIXING:  cpu time      0.0110: real time      0.0111
    --------------------------------------------
      LOOP:  cpu time      1.1984: real time      1.2043

 eigenvalue-minimisations  :    80
 total energy-change (2. order) : 0.2755835E-01  (-0.6695125E-02)
 number of electron      22.0000000 magnetization 
 augmentation part        0.5080009 magnetization 

 Broyden mixing:
  rms(total) = 0.23834E-01    rms(broyden)= 0.23830E-01
  rms(prec ) = 0.47737E-01
  weight for this iteration     100.00

 eigenvalues of (default mixing * dielectric matrix)
  average eigenvalue GAMMA=   1.4562
  2.2952  1.6127  0.9585  0.9585

 Free energy of the ion-electron system (eV)
  ---------------------------------------------------
  alpha Z        PSCENC =         0.62641250
  Ewald energy   TEWEN  =       892.97145627
  -Hartree energ DENC   =     -1412.76760339
  -exchange      EXHF   =         0.00000000
  -V(xc)+E(xc)   XCENC  =        72.93355861
  PAW double counting   =       309.58374177     -314.95125234
  entropy T*S    EENTRO =        -0.00000000
  eigenvalues    EBANDS =      -268.47258334
  atomic energy  EATOM  =       663.51739852
  Solvation  Ediel_sol  =         0.00000000
  ---------------------------------------------------
  free energy    TOTEN  =       -56.55887140 eV

  energy without entropy =      -56.55887140  energy(sigma->0) =      -56.55887140


--------------------------------------------------------------------------------------------------------




--------------------------------------- Iteration      1(  10)  ---------------------------------------


    POTLOK:  cpu time      0.3146: real time      0.3164
    SETDIJ:  cpu time      0.1908: real time      0.1916
     EDDAV:  cpu time      0.4448: real time      0.4472
       DOS:  cpu time      0.0001: real time      0.0001
    CHARGE:  cpu time      0.1969: real time      0.1977
    MIXING:  cpu time      0.0104: real time      0.0104
    --------------------------------------------
      LOOP:  cpu time      1.1577: real time      1.1634

 eigenvalue-minimisations  :    72
 total energy-change (2. order) : 0.5817383E-02  (-0.2065534E-02)
 number of electron      22.0000000 magnetization 
 augmentation part        0.5059672 magnetization 

 Broyden mixing:
  rms(total) = 0.16120E-01    rms(broyden)= 0.16115E-01
  rms(prec ) = 0.33479E-01
  weight for this iteration     100.00

 eigenvalues of (default mixing * dielectric matrix)
  average eigenvalue GAMMA=   1.6681
  2.4740  2.4740  1.0082  1.0082  1.3760

 Free energy of the ion-electron system (eV)
  ---------------------------------------------------
  alpha Z        PSCENC =         0.62641250
  Ewald energy   TEWEN  =       892.97145627
  -Hartree energ DENC   =     -1415.84220729
  -exchange      EXHF   =         0.00000000
  -V(xc)+E(xc)   XCENC  =        73.00714188
  PAW double counting   =       309.43476443     -314.81008718
  entropy T*S    EENTRO =        -0.00000000
  eigenvalues    EBANDS =      -265.45793314
  atomic energy  EATOM  =       663.51739852
  Solvation  Ediel_sol  =         0.00000000
  ---------------------------------------------------
  free energy    TOTEN  =       -56.55305401 eV

  energy without entropy =      -56.55305401  energy(sigma->0) =      -56.55305401


--------------------------------------------------------------------------------------------------------




--------------------------------------- Iteration      1(  11)  ---------------------------------------


    POTLOK:  cpu time      0.3146: real time      0.3163
    SETDIJ:  cpu time      0.1939: real time      0.1947
     EDDAV:  cpu time      0.4437: real time      0.4462
       DOS:  cpu time      0.0001: real time      0.0001
    CHARGE:  cpu time      0.1986: real time      0.1994
    MIXING:  cpu time      0.0129: real time      0.0129
    --------------------------------------------
      LOOP:  cpu time      1.1637: real time      1.1697

 eigenvalue-minimisations  :    72
 total energy-change (2. order) : 0.1089794E-01  (-0.7115403E-03)
 number of electron      22.0000000 magnetization 
 augmentation part        0.5054491 magnetization 

 Broyden mixing:
  rms(total) = 0.78219E-02    rms(broyden)= 0.78216E-02
  rms(prec ) = 0.17461E-01
  weight for this iteration     100.00

 eigenvalues of (default mixing * dielectric matrix)
  average eigenvalue GAMMA=   1.7538
  3.3757  2.4772  1.4736  1.1136  1.0414  1.0414

 Free energy of the ion-electron system (eV)
  ---------------------------------------------------
  alpha Z        PSCENC =         0.62641250
  Ewald energy   TEWEN  =       892.97145627
  -Hartree energ DENC   =     -1419.93355967
  -exchange      EXHF   =         0.00000000
  -V(xc)+E(xc)   XCENC  =        73.11513921
  PAW double counting   =       308.23043048     -313.59331294
  entropy T*S    EENTRO =        -0.00000000
  eigenvalues    EBANDS =      -261.47612044
  atomic energy  EATOM  =       663.51739852
  Solvation  Ediel_sol  =         0.00000000
  ---------------------------------------------------
  free energy    TOTEN  =       -56.54215607 eV

  energy without entropy =      -56.54215607  energy(sigma->0) =      -56.54215607


--------------------------------------------------------------------------------------------------------




--------------------------------------- Iteration      1(  12)  ---------------------------------------


    POTLOK:  cpu time      0.3116: real time      0.3133
    SETDIJ:  cpu time      0.1931: real time      0.1939
     EDDAV:  cpu time      0.3989: real time      0.4011
       DOS:  cpu time      0.0001: real time      0.0001
    CHARGE:  cpu time      0.1955: real time      0.1963
    MIXING:  cpu time      0.0121: real time      0.0121
    --------------------------------------------
      LOOP:  cpu time      1.1113: real time      1.1169

 eigenvalue-minimisations  :    64
 total energy-change (2. order) :-0.2125417E-02  (-0.1503676E-03)
 number of electron      22.0000000 magnetization 
 augmentation part        0.5051997 magnetization 

 Broyden mixing:
  rms(total) = 0.56192E-02    rms(broyden)= 0.56190E-02
  rms(prec ) = 0.11197E-01
  weight for this iteration     100.00

 eigenvalues of (default mixing * dielectric matrix)
  average eigenvalue GAMMA=   1.8779
  4.1948  2.4058  2.0966  1.4546  1.0143  0.9897  0.9897

 Free energy of the ion-electron system (eV)
  ---------------------------------------------------
  alpha Z        PSCENC =         0.62641250
  Ewald energy   TEWEN  =       892.97145627
  -Hartree energ DENC   =     -1421.74252276
  -exchange      EXHF   =         0.00000000
  -V(xc)+E(xc)   XCENC  =        73.14205529
  PAW double counting   =       307.66531349     -313.02771182
  entropy T*S    EENTRO =        -0.00000000
  eigenvalues    EBANDS =      -259.69668299
  atomic energy  EATOM  =       663.51739852
  Solvation  Ediel_sol  =         0.00000000
  ---------------------------------------------------
  free energy    TOTEN  =       -56.54428149 eV

  energy without entropy =      -56.54428149  energy(sigma->0) =      -56.54428149


--------------------------------------------------------------------------------------------------------




--------------------------------------- Iteration      1(  13)  ---------------------------------------


    POTLOK:  cpu time      0.3133: real time      0.3151
    SETDIJ:  cpu time      0.1929: real time      0.1937
     EDDAV:  cpu time      0.4067: real time      0.4090
       DOS:  cpu time      0.0001: real time      0.0001
    CHARGE:  cpu time      0.1984: real time      0.1991
    MIXING:  cpu time      0.0132: real time      0.0133
    --------------------------------------------
      LOOP:  cpu time      1.1246: real time      1.1303

 eigenvalue-minimisations  :    64
 total energy-change (2. order) :-0.8806431E-02  (-0.1413609E-03)
 number of electron      22.0000000 magnetization 
 augmentation part        0.5051842 magnetization 

 Broyden mixing:
  rms(total) = 0.30757E-02    rms(broyden)= 0.30755E-02
  rms(prec ) = 0.65707E-02
  weight for this iteration     100.00

 eigenvalues of (default mixing * dielectric matrix)
  average eigenvalue GAMMA=   1.9635
  4.9023  2.7254  2.2849  1.5080  1.2729  1.0204  1.0204  0.9737

 Free energy of the ion-electron system (eV)
  ---------------------------------------------------
  alpha Z        PSCENC =         0.62641250
  Ewald energy   TEWEN  =       892.97145627
  -Hartree energ DENC   =     -1422.42235632
  -exchange      EXHF   =         0.00000000
  -V(xc)+E(xc)   XCENC  =        73.14190209
  PAW double counting   =       307.65908332     -313.02046031
  entropy T*S    EENTRO =        -0.00000000
  eigenvalues    EBANDS =      -259.02652399
  atomic energy  EATOM  =       663.51739852
  Solvation  Ediel_sol  =         0.00000000
  ---------------------------------------------------
  free energy    TOTEN  =       -56.55308792 eV

  energy without entropy =      -56.55308792  energy(sigma->0) =      -56.55308792


--------------------------------------------------------------------------------------------------------




--------------------------------------- Iteration      1(  14)  ---------------------------------------


    POTLOK:  cpu time      0.3078: real time      0.3095
    SETDIJ:  cpu time      0.1945: real time      0.1953
     EDDAV:  cpu time      0.3270: real time      0.3288
       DOS:  cpu time      0.0001: real time      0.0001
    CHARGE:  cpu time      0.1925: real time      0.1933
    MIXING:  cpu time      0.0152: real time      0.0153
    --------------------------------------------
      LOOP:  cpu time      1.0371: real time      1.0423

 eigenvalue-minimisations  :    48
 total energy-change (2. order) :-0.6620492E-02  (-0.9429629E-04)
 number of electron      22.0000000 magnetization 
 augmentation part        0.5051879 magnetization 

 Broyden mixing:
  rms(total) = 0.22463E-02    rms(broyden)= 0.22461E-02
  rms(prec ) = 0.39977E-02
  weight for this iteration     100.00

 eigenvalues of (default mixing * dielectric matrix)
  average eigenvalue GAMMA=   2.0391
  5.7717  3.1263  2.3456  1.7361  1.2340  1.2340  0.9726  0.9655  0.9655

 Free energy of the ion-electron system (eV)
  ---------------------------------------------------
  alpha Z        PSCENC =         0.62641250
  Ewald energy   TEWEN  =       892.97145627
  -Hartree energ DENC   =     -1422.66416843
  -exchange      EXHF   =         0.00000000
  -V(xc)+E(xc)   XCENC  =        73.13040722
  PAW double counting   =       307.63607110     -312.99745680
  entropy T*S    EENTRO =        -0.00000000
  eigenvalues    EBANDS =      -258.77982880
  atomic energy  EATOM  =       663.51739852
  Solvation  Ediel_sol  =         0.00000000
  ---------------------------------------------------
  free energy    TOTEN  =       -56.55970841 eV

  energy without entropy =      -56.55970841  energy(sigma->0) =      -56.55970841


--------------------------------------------------------------------------------------------------------




--------------------------------------- Iteration      1(  15)  ---------------------------------------


    POTLOK:  cpu time      0.3052: real time      0.3069
    SETDIJ:  cpu time      0.1926: real time      0.1934
     EDDAV:  cpu time      0.4023: real time      0.4046
       DOS:  cpu time      0.0001: real time      0.0001
    CHARGE:  cpu time      0.1960: real time      0.1968
    MIXING:  cpu time      0.0121: real time      0.0122
    --------------------------------------------
      LOOP:  cpu time      1.1084: real time      1.1140

 eigenvalue-minimisations  :    64
 total energy-change (2. order) :-0.3183510E-02  (-0.3555940E-04)
 number of electron      22.0000000 magnetization 
 augmentation part        0.5051341 magnetization 

 Broyden mixing:
  rms(total) = 0.13634E-02    rms(broyden)= 0.13633E-02
  rms(prec ) = 0.23631E-02
  weight for this iteration     100.00

 eigenvalues of (default mixing * dielectric matrix)
  average eigenvalue GAMMA=   2.1454
  6.5124  3.6612  2.3690  1.7490  1.7490  1.3954  0.9890  0.9890  1.1077  0.9322

 Free energy of the ion-electron system (eV)
  ---------------------------------------------------
  alpha Z        PSCENC =         0.62641250
  Ewald energy   TEWEN  =       892.97145627
  -Hartree energ DENC   =     -1422.75431342
  -exchange      EXHF   =         0.00000000
  -V(xc)+E(xc)   XCENC  =        73.12458115
  PAW double counting   =       307.67380510     -313.03530470
  entropy T*S    EENTRO =        -0.00000000
  eigenvalues    EBANDS =      -258.68692735
  atomic energy  EATOM  =       663.51739852
  Solvation  Ediel_sol  =         0.00000000
  ---------------------------------------------------
  free energy    TOTEN  =       -56.56289192 eV

  energy without entropy =      -56.56289192  energy(sigma->0) =      -56.56289192


--------------------------------------------------------------------------------------------------------




--------------------------------------- Iteration      1(  16)  ---------------------------------------


    POTLOK:  cpu time      0.3038: real time      0.3054
    SETDIJ:  cpu time      0.1942: real time      0.1951
     EDDAV:  cpu time      0.4005: real time      0.4028
       DOS:  cpu time      0.0001: real time      0.0001
    CHARGE:  cpu time      0.1953: real time      0.1960
    MIXING:  cpu time      0.0146: real time      0.0147
    --------------------------------------------
      LOOP:  cpu time      1.1085: real time      1.1141

 eigenvalue-minimisations  :    64
 total energy-change (2. order) :-0.1872790E-02  (-0.2000164E-04)
 number of electron      22.0000000 magnetization 
 augmentation part        0.5050386 magnetization 

 Broyden mixing:
  rms(total) = 0.70689E-03    rms(broyden)= 0.70665E-03
  rms(prec ) = 0.12487E-02
  weight for this iteration     100.00

 eigenvalues of (default mixing * dielectric matrix)
  average eigenvalue GAMMA=   2.2389
  7.5345  4.2188  2.4306  2.4306  1.5181  1.2679  1.2679  0.9904  0.9904  0.9229
  1.0564

 Free energy of the ion-electron system (eV)
  ---------------------------------------------------
  alpha Z        PSCENC =         0.62641250
  Ewald energy   TEWEN  =       892.97145627
  -Hartree energ DENC   =     -1422.86309651
  -exchange      EXHF   =         0.00000000
  -V(xc)+E(xc)   XCENC  =        73.12387447
  PAW double counting   =       307.73376785     -313.09579455
  entropy T*S    EENTRO =        -0.00000000
  eigenvalues    EBANDS =      -258.57878327
  atomic energy  EATOM  =       663.51739852
  Solvation  Ediel_sol  =         0.00000000
  ---------------------------------------------------
  free energy    TOTEN  =       -56.56476471 eV

  energy without entropy =      -56.56476471  energy(sigma->0) =      -56.56476471


--------------------------------------------------------------------------------------------------------




--------------------------------------- Iteration      1(  17)  ---------------------------------------


    POTLOK:  cpu time      0.3011: real time      0.3028
    SETDIJ:  cpu time      0.1929: real time      0.1937
     EDDAV:  cpu time      0.4031: real time      0.4053
       DOS:  cpu time      0.0001: real time      0.0001
    CHARGE:  cpu time      0.1947: real time      0.1955
    MIXING:  cpu time      0.0137: real time      0.0138
    --------------------------------------------
      LOOP:  cpu time      1.1057: real time      1.1113

 eigenvalue-minimisations  :    64
 total energy-change (2. order) :-0.6866593E-03  (-0.5171757E-05)
 number of electron      22.0000000 magnetization 
 augmentation part        0.5050292 magnetization 

 Broyden mixing:
  rms(total) = 0.51367E-03    rms(broyden)= 0.51361E-03
  rms(prec ) = 0.80551E-03
  weight for this iteration     100.00

 eigenvalues of (default mixing * dielectric matrix)
  average eigenvalue GAMMA=   2.2908
  8.0000  4.6681  2.4296  2.2330  1.8326  1.8326  1.2878  1.2878  0.9964  0.9964
  0.9390  0.9865

 Free energy of the ion-electron system (eV)
  ---------------------------------------------------
  alpha Z        PSCENC =         0.62641250
  Ewald energy   TEWEN  =       892.97145627
  -Hartree energ DENC   =     -1422.83940901
  -exchange      EXHF   =         0.00000000
  -V(xc)+E(xc)   XCENC  =        73.12154429
  PAW double counting   =       307.70584018     -313.06764116
  entropy T*S    EENTRO =        -0.00000000
  eigenvalues    EBANDS =      -258.60105296
  atomic energy  EATOM  =       663.51739852
  Solvation  Ediel_sol  =         0.00000000
  ---------------------------------------------------
  free energy    TOTEN  =       -56.56545137 eV

  energy without entropy =      -56.56545137  energy(sigma->0) =      -56.56545137


--------------------------------------------------------------------------------------------------------




--------------------------------------- Iteration      1(  18)  ---------------------------------------


    POTLOK:  cpu time      0.2977: real time      0.2993
    SETDIJ:  cpu time      0.1922: real time      0.1930
     EDDAV:  cpu time      0.4008: real time      0.4030
       DOS:  cpu time      0.0001: real time      0.0001
    CHARGE:  cpu time      0.1951: real time      0.1959
    MIXING:  cpu time      0.0142: real time      0.0143
    --------------------------------------------
      LOOP:  cpu time      1.1002: real time      1.1057

 eigenvalue-minimisations  :    64
 total energy-change (2. order) :-0.3658455E-03  (-0.2814374E-05)
 number of electron      22.0000000 magnetization 
 augmentation part        0.5050569 magnetization 

 Broyden mixing:
  rms(total) = 0.29890E-03    rms(broyden)= 0.29878E-03
  rms(prec ) = 0.46834E-03
  weight for this iteration     100.00

 eigenvalues of (default mixing * dielectric matrix)
  average eigenvalue GAMMA=   2.3031
  8.3180  5.1100  2.9880  2.4222  2.0331  1.3687  1.3687  1.2102  1.2102  0.9933
  0.9933  0.9625  0.9625

 Free energy of the ion-electron system (eV)
  ---------------------------------------------------
  alpha Z        PSCENC =         0.62641250
  Ewald energy   TEWEN  =       892.97145627
  -Hartree energ DENC   =     -1422.82164931
  -exchange      EXHF   =         0.00000000
  -V(xc)+E(xc)   XCENC  =        73.12061558
  PAW double counting   =       307.68260607     -313.04401713
  entropy T*S    EENTRO =        -0.00000000
  eigenvalues    EBANDS =      -258.61863971
  atomic energy  EATOM  =       663.51739852
  Solvation  Ediel_sol  =         0.00000000
  ---------------------------------------------------
  free energy    TOTEN  =       -56.56581722 eV

  energy without entropy =      -56.56581722  energy(sigma->0) =      -56.56581722


--------------------------------------------------------------------------------------------------------




--------------------------------------- Iteration      1(  19)  ---------------------------------------


    POTLOK:  cpu time      0.2974: real time      0.2991
    SETDIJ:  cpu time      0.1940: real time      0.1948
     EDDAV:  cpu time      0.4411: real time      0.4436
       DOS:  cpu time      0.0001: real time      0.0001
    CHARGE:  cpu time      0.1939: real time      0.1946
    MIXING:  cpu time      0.0153: real time      0.0153
    --------------------------------------------
      LOOP:  cpu time      1.1417: real time      1.1475

 eigenvalue-minimisations  :    72
 total energy-change (2. order) :-0.1101346E-03  (-0.6665779E-06)
 number of electron      22.0000000 magnetization 
 augmentation part        0.5050362 magnetization 

 Broyden mixing:
  rms(total) = 0.13473E-03    rms(broyden)= 0.13464E-03
  rms(prec ) = 0.23864E-03
  weight for this iteration     100.00

 eigenvalues of (default mixing * dielectric matrix)
  average eigenvalue GAMMA=   2.2925
  8.6498  5.2271  3.1444  2.4103  2.1712  1.6134  1.3269  1.3269  0.9891  0.9891
  1.1422  1.1422  0.9811  0.9811

 Free energy of the ion-electron system (eV)
  ---------------------------------------------------
  alpha Z        PSCENC =         0.62641250
  Ewald energy   TEWEN  =       892.97145627
  -Hartree energ DENC   =     -1422.85094406
  -exchange      EXHF   =         0.00000000
  -V(xc)+E(xc)   XCENC  =        73.12146705
  PAW double counting   =       307.69284116     -313.05445839
  entropy T*S    EENTRO =        -0.00000000
  eigenvalues    EBANDS =      -258.59010040
  atomic energy  EATOM  =       663.51739852
  Solvation  Ediel_sol  =         0.00000000
  ---------------------------------------------------
  free energy    TOTEN  =       -56.56592735 eV

  energy without entropy =      -56.56592735  energy(sigma->0) =      -56.56592735


--------------------------------------------------------------------------------------------------------




--------------------------------------- Iteration      1(  20)  ---------------------------------------


    POTLOK:  cpu time      0.2993: real time      0.3010
    SETDIJ:  cpu time      0.1938: real time      0.1946
     EDDAV:  cpu time      0.4025: real time      0.4047
       DOS:  cpu time      0.0001: real time      0.0001
    CHARGE:  cpu time      0.1958: real time      0.1965
    MIXING:  cpu time      0.0152: real time      0.0152
    --------------------------------------------
      LOOP:  cpu time      1.1066: real time      1.1121

 eigenvalue-minimisations  :    64
 total energy-change (2. order) :-0.6176840E-04  (-0.1553968E-06)
 number of electron      22.0000000 magnetization 
 augmentation part        0.5050425 magnetization 

 Broyden mixing:
  rms(total) = 0.91397E-04    rms(broyden)= 0.91274E-04
  rms(prec ) = 0.15506E-03
  weight for this iteration     100.00

 eigenvalues of (default mixing * dielectric matrix)
  average eigenvalue GAMMA=   2.3489
  8.7975  5.6984  3.8235  2.6192  2.4371  1.9216  1.3969  1.2472  1.2472  0.9901
  0.9901  1.0907  1.0907  0.9860  0.8968

 Free energy of the ion-electron system (eV)
  ---------------------------------------------------
  alpha Z        PSCENC =         0.62641250
  Ewald energy   TEWEN  =       892.97145627
  -Hartree energ DENC   =     -1422.84139982
  -exchange      EXHF   =         0.00000000
  -V(xc)+E(xc)   XCENC  =        73.12089500
  PAW double counting   =       307.68540137     -313.04697724
  entropy T*S    EENTRO =        -0.00000000
  eigenvalues    EBANDS =      -258.59917571
  atomic energy  EATOM  =       663.51739852
  Solvation  Ediel_sol  =         0.00000000
  ---------------------------------------------------
  free energy    TOTEN  =       -56.56598912 eV

  energy without entropy =      -56.56598912  energy(sigma->0) =      -56.56598912


--------------------------------------------------------------------------------------------------------




--------------------------------------- Iteration      1(  21)  ---------------------------------------


    POTLOK:  cpu time      0.3052: real time      0.3068
    SETDIJ:  cpu time      0.1932: real time      0.1940
     EDDAV:  cpu time      0.4011: real time      0.4033
       DOS:  cpu time      0.0001: real time      0.0001
    CHARGE:  cpu time      0.1946: real time      0.1953
    MIXING:  cpu time      0.0152: real time      0.0152
    --------------------------------------------
      LOOP:  cpu time      1.1093: real time      1.1148

 eigenvalue-minimisations  :    64
 total energy-change (2. order) :-0.3118441E-04  (-0.7024470E-07)
 number of electron      22.0000000 magnetization 
 augmentation part        0.5050388 magnetization 

 Broyden mixing:
  rms(total) = 0.52905E-04    rms(broyden)= 0.52705E-04
  rms(prec ) = 0.80010E-04
  weight for this iteration     100.00

 eigenvalues of (default mixing * dielectric matrix)
  average eigenvalue GAMMA=   2.3796
  9.0001  5.9057  4.2521  2.6154  2.4242  1.9983  1.9554  1.3200  1.3200  1.2993
  0.9923  0.9923  1.0538  1.0538  0.9816  0.9088

 Free energy of the ion-electron system (eV)
  ---------------------------------------------------
  alpha Z        PSCENC =         0.62641250
  Ewald energy   TEWEN  =       892.97145627
  -Hartree energ DENC   =     -1422.85245083
  -exchange      EXHF   =         0.00000000
  -V(xc)+E(xc)   XCENC  =        73.12113607
  PAW double counting   =       307.68896059     -313.05058195
  entropy T*S    EENTRO =        -0.00000000
  eigenvalues    EBANDS =      -258.58835147
  atomic energy  EATOM  =       663.51739852
  Solvation  Ediel_sol  =         0.00000000
  ---------------------------------------------------
  free energy    TOTEN  =       -56.56602030 eV

  energy without entropy =      -56.56602030  energy(sigma->0) =      -56.56602030


--------------------------------------------------------------------------------------------------------




--------------------------------------- Iteration      1(  22)  ---------------------------------------


    POTLOK:  cpu time      0.3139: real time      0.3155
    SETDIJ:  cpu time      0.1927: real time      0.1935
     EDDAV:  cpu time      0.4042: real time      0.4065
       DOS:  cpu time      0.0001: real time      0.0001
    CHARGE:  cpu time      0.1952: real time      0.1960
    MIXING:  cpu time      0.0157: real time      0.0158
    --------------------------------------------
      LOOP:  cpu time      1.1217: real time      1.1274

 eigenvalue-minimisations  :    64
 total energy-change (2. order) :-0.1224136E-04  (-0.2796726E-07)
 number of electron      22.0000000 magnetization 
 augmentation part        0.5050358 magnetization 

 Broyden mixing:
  rms(total) = 0.46240E-04    rms(broyden)= 0.46009E-04
  rms(prec ) = 0.60921E-04
  weight for this iteration     100.00

 eigenvalues of (default mixing * dielectric matrix)
  average eigenvalue GAMMA=   2.3980
  9.0407  6.2461  4.6142  3.1100  2.4418  2.3070  1.9748  1.4693  1.2861  1.2861
  0.9924  0.9924  1.0645  1.0645  0.9398  0.9676  0.9676

 Free energy of the ion-electron system (eV)
  ---------------------------------------------------
  alpha Z        PSCENC =         0.62641250
  Ewald energy   TEWEN  =       892.97145627
  -Hartree energ DENC   =     -1422.85647386
  -exchange      EXHF   =         0.00000000
  -V(xc)+E(xc)   XCENC  =        73.12119277
  PAW double counting   =       307.69195285     -313.05360137
  entropy T*S    EENTRO =        -0.00000000
  eigenvalues    EBANDS =      -258.58437022
  atomic energy  EATOM  =       663.51739852
  Solvation  Ediel_sol  =         0.00000000
  ---------------------------------------------------
  free energy    TOTEN  =       -56.56603254 eV

  energy without entropy =      -56.56603254  energy(sigma->0) =      -56.56603254


--------------------------------------------------------------------------------------------------------




--------------------------------------- Iteration      1(  23)  ---------------------------------------


    POTLOK:  cpu time      0.3105: real time      0.3122
    SETDIJ:  cpu time      0.1931: real time      0.1940
     EDDAV:  cpu time      0.3644: real time      0.3665
       DOS:  cpu time      0.0001: real time      0.0001
    CHARGE:  cpu time      0.1966: real time      0.1974
    MIXING:  cpu time      0.0154: real time      0.0155
    --------------------------------------------
      LOOP:  cpu time      1.0802: real time      1.0856

 eigenvalue-minimisations  :    56
 total energy-change (2. order) :-0.3455077E-05  (-0.8394412E-08)
 number of electron      22.0000000 magnetization 
 augmentation part        0.5050382 magnetization 

 Broyden mixing:
  rms(total) = 0.18433E-04    rms(broyden)= 0.17863E-04
  rms(prec ) = 0.24866E-04
  weight for this iteration     100.00

 eigenvalues of (default mixing * dielectric matrix)
  average eigenvalue GAMMA=   2.4061
  9.0583  6.5296  4.8433  3.3372  2.4563  2.4563  1.7634  1.7634  1.3118  1.3118
  1.4842  0.9942  0.9942  1.0445  1.0445  1.0065  0.9325  0.9782

 Free energy of the ion-electron system (eV)
  ---------------------------------------------------
  alpha Z        PSCENC =         0.62641250
  Ewald energy   TEWEN  =       892.97145627
  -Hartree energ DENC   =     -1422.85355910
  -exchange      EXHF   =         0.00000000
  -V(xc)+E(xc)   XCENC  =        73.12107543
  PAW double counting   =       307.68964637     -313.05125936
  entropy T*S    EENTRO =        -0.00000000
  eigenvalues    EBANDS =      -258.58720664
  atomic energy  EATOM  =       663.51739852
  Solvation  Ediel_sol  =         0.00000000
  ---------------------------------------------------
  free energy    TOTEN  =       -56.56603600 eV

  energy without entropy =      -56.56603600  energy(sigma->0) =      -56.56603600


--------------------------------------------------------------------------------------------------------




--------------------------------------- Iteration      1(  24)  ---------------------------------------


    POTLOK:  cpu time      0.3110: real time      0.3127
    SETDIJ:  cpu time      0.1926: real time      0.1934
     EDDAV:  cpu time      0.3616: real time      0.3637
       DOS:  cpu time      0.0001: real time      0.0001
    CHARGE:  cpu time      0.1940: real time      0.1948
    MIXING:  cpu time      0.0157: real time      0.0157
    --------------------------------------------
      LOOP:  cpu time      1.0750: real time      1.0804

 eigenvalue-minimisations  :    56
 total energy-change (2. order) :-0.1606766E-05  (-0.2968838E-08)
 number of electron      22.0000000 magnetization 
 augmentation part        0.5050381 magnetization 

 Broyden mixing:
  rms(total) = 0.66263E-05    rms(broyden)= 0.48266E-05
  rms(prec ) = 0.10657E-04
  weight for this iteration     100.00
  WARNING: grid for Broyden might be to small

 eigenvalues of (default mixing * dielectric matrix)
  average eigenvalue GAMMA=   2.4239
  9.1550  6.8096  5.0929  3.6861  2.7240  2.4124  1.9893  1.9893  1.3061  1.3061
  1.4853  0.9940  0.9940  1.0495  1.0495  1.0649  1.0649  0.9407  0.9407

 Free energy of the ion-electron system (eV)
  ---------------------------------------------------
  alpha Z        PSCENC =         0.62641250
  Ewald energy   TEWEN  =       892.97145627
  -Hartree energ DENC   =     -1422.85427108
  -exchange      EXHF   =         0.00000000
  -V(xc)+E(xc)   XCENC  =        73.12109772
  PAW double counting   =       307.68957443     -313.05118735
  entropy T*S    EENTRO =        -0.00000000
  eigenvalues    EBANDS =      -258.58651861
  atomic energy  EATOM  =       663.51739852
  Solvation  Ediel_sol  =         0.00000000
  ---------------------------------------------------
  free energy    TOTEN  =       -56.56603761 eV

  energy without entropy =      -56.56603761  energy(sigma->0) =      -56.56603761


--------------------------------------------------------------------------------------------------------




--------------------------------------- Iteration      1(  25)  ---------------------------------------


    POTLOK:  cpu time      0.3175: real time      0.3192
    SETDIJ:  cpu time      0.1954: real time      0.1962
     EDDAV:  cpu time      0.2840: real time      0.2857
       DOS:  cpu time      0.0001: real time      0.0001
    --------------------------------------------
      LOOP:  cpu time      0.7970: real time      0.8012

 eigenvalue-minimisations  :    40
 total energy-change (2. order) :-0.7701886E-06  (-0.1346159E-08)
 number of electron      22.0000000 magnetization 
 augmentation part        0.5050381 magnetization 

 Free energy of the ion-electron system (eV)
  ---------------------------------------------------
  alpha Z        PSCENC =         0.62641250
  Ewald energy   TEWEN  =       892.97145627
  -Hartree energ DENC   =     -1422.85459674
  -exchange      EXHF   =         0.00000000
  -V(xc)+E(xc)   XCENC  =        73.12111193
  PAW double counting   =       307.68992129     -313.05153623
  entropy T*S    EENTRO =        -0.00000000
  eigenvalues    EBANDS =      -258.58620593
  atomic energy  EATOM  =       663.51739852
  Solvation  Ediel_sol  =         0.00000000
  ---------------------------------------------------
  free energy    TOTEN  =       -56.56603838 eV

  energy without entropy =      -56.56603838  energy(sigma->0) =      -56.56603838


--------------------------------------------------------------------------------------------------------




 average (electrostatic) potential at core
  the test charge radii are     0.6991  0.5201
  (the norm of the test charge is              1.0000)
       1 -58.6614       2 -58.8687       3 -58.6903       4 -58.4423       5 -41.9672
       6 -41.4372       7 -41.8927       8 -42.2079       9 -41.7392      10 -42.0966
 
 
 
 E-fermi :  -5.6546     XC(G=0):  -0.4390     alpha+bet : -0.1681

 Fermi energy:        -5.6546273218

 k-point     1 :       0.0000    0.0000    0.0000
  band No.  band energies     occupation 
      1     -20.0129      2.00000
      2     -18.0312      2.00000
      3     -15.2533      2.00000
      4     -12.8805      2.00000
      5     -11.8794      2.00000
      6     -10.7118      2.00000
      7     -10.3525      2.00000
      8      -8.5665      2.00000
      9      -8.2167      2.00000
     10      -7.4898      2.00000
     11      -5.8983      2.00000
     12      -1.8126      0.00000
     13      -0.4158      0.00000
     14       0.0769      0.00000
     15       0.2289      0.00000
     16       0.2988      0.00000
     17       0.4363      0.00000
     18       0.4656      0.00000
     19       0.5560      0.00000
     20       0.6681      0.00000
     21       0.9033      0.00000
     22       0.9519      0.00000
     23       1.0072      0.00000
     24       1.0983      0.00000


--------------------------------------------------------------------------------------------------------


 soft charge-density along one line, spin component           1
         0         1         2         3         4         5         6         7         8         9
 total charge-density along one line
 
 pseudopotential strength for first ion, spin component:           1
 10.256   0.020  -0.001  -0.001   0.002  -0.002  -0.001   0.002
  0.020  -0.001   0.000   0.000  -0.000  -0.000  -0.000   0.000
 -0.001   0.000  -4.362  -0.004   0.009  -0.013  -0.001   0.003
 -0.001   0.000  -0.004  -4.373   0.005  -0.001  -0.017   0.001
  0.002  -0.000   0.009   0.005  -4.367   0.003   0.001  -0.015
 -0.002  -0.000  -0.013  -0.001   0.003  -0.773  -0.000   0.000
 -0.001  -0.000  -0.001  -0.017   0.001  -0.000  -0.773   0.000
  0.002   0.000   0.003   0.001  -0.015   0.000   0.000  -0.773
 total augmentation occupancy for first ion, spin component:           1
  1.481  -1.053   0.032   0.019  -0.049   0.021   0.014  -0.018
 -1.053   0.836  -0.096  -0.066   0.065  -0.034  -0.028   0.030
  0.032  -0.096   0.992   0.034  -0.134   0.128   0.015  -0.057
  0.019  -0.066   0.034   1.187  -0.055   0.015   0.200  -0.023
 -0.049   0.065  -0.134  -0.055   1.106  -0.057  -0.023   0.165
  0.021  -0.034   0.128   0.015  -0.057   0.019   0.005  -0.014
  0.014  -0.028   0.015   0.200  -0.023   0.005   0.036  -0.007
 -0.018   0.030  -0.057  -0.023   0.165  -0.014  -0.007   0.028


------------------------ aborting loop because EDIFF is reached ----------------------------------------


    CHARGE:  cpu time      0.1978: real time      0.1986
    FORLOC:  cpu time      0.0331: real time      0.0332
    FORNL :  cpu time      1.0708: real time      1.0758
    STRESS:  cpu time      3.3885: real time      3.4045
    FORHAR:  cpu time      0.1108: real time      0.1113
    MIXING:  cpu time      0.0121: real time      0.0122
    OFIELD:  cpu time      0.0001: real time      0.0001

  FORCE on cell =-STRESS in cart. coord.  units (eV):
  Direction    XX          YY          ZZ          XY          YZ          ZX
  --------------------------------------------------------------------------------------
  Alpha Z     0.62641     0.62641     0.62641
  Ewald       8.60678   178.64775   705.71661  -202.78537   -40.71627  -119.09714
  Hartree   307.33714   379.57474   735.94307   -94.47488   -28.68954   -81.05684
  E(xc)     -77.48711   -76.82771   -75.93584    -0.74183    -0.03809    -0.14530
  Local    -528.67284  -756.05221 -1625.79568   282.96150    70.33504   198.19104
  n-local   -29.78898   -31.28007   -31.04426     1.06622     0.02210    -0.16287
  augment    -0.61923    -0.70996    -0.77119     0.07486    -0.01106     0.01200
  Kinetic   318.58650   308.43345   292.75255    13.92913    -1.48047     2.32351
  Fock        0.00000     0.00000     0.00000     0.00000     0.00000     0.00000
  -------------------------------------------------------------------------------------
  Total      -1.41134     2.41240     1.49167     0.02963    -0.57830     0.06439
  in kB      -0.66999     1.14521     0.70813     0.01406    -0.27453     0.03057
  external pressure =        0.39 kB  Pullay stress =        0.00 kB


 VOLUME and BASIS-vectors are now :
 -----------------------------------------------------------------------------
  energy-cutoff  :      520.00
  volume of cell :     3375.00
      direct lattice vectors                 reciprocal lattice vectors
    15.000000000  0.000000000  0.000000000     0.066666667  0.000000000  0.000000000
     0.000000000 15.000000000  0.000000000     0.000000000  0.066666667  0.000000000
     0.000000000  0.000000000 15.000000000     0.000000000  0.000000000  0.066666667

  length of vectors
    15.000000000 15.000000000 15.000000000     0.066666667  0.066666667  0.066666667


 FORCES acting on ions
    electron-ion (+dipol)            ewald-force                    non-local-force                 convergence-correction
 -----------------------------------------------------------------------------------------------
   -.775E+02 0.607E+02 0.109E+03   0.786E+02 -.621E+02 -.109E+03   0.931E+00 0.551E+00 0.797E+00   -.355E-04 0.156E-04 0.414E-04
   0.526E+02 -.616E+02 0.591E+02   -.528E+02 0.619E+02 -.605E+02   -.961E+00 -.305E+00 0.338E+00   -.107E-04 0.252E-05 -.270E-04
   0.363E+02 -.778E+02 -.327E+02   -.362E+02 0.777E+02 0.327E+02   0.554E+00 0.518E+00 0.262E+00   -.923E-05 0.584E-04 -.900E-04
   -.166E+02 0.842E+02 -.125E+03   0.176E+02 -.859E+02 0.125E+03   -.102E+01 -.490E+00 -.550E+00   0.444E-05 -.894E-05 0.122E-05
   -.103E+02 0.325E+01 0.653E+02   0.103E+02 -.303E+01 -.704E+02   -.483E+00 -.857E-01 0.555E+01   -.155E-05 -.946E-06 0.123E-04
   -.523E+02 0.336E+02 -.665E+01   0.547E+02 -.352E+02 0.813E+01   -.371E+01 0.242E+01 -.197E+01   -.844E-05 0.367E-05 -.865E-06
   0.498E+02 -.380E+02 0.340E+02   -.534E+02 0.408E+02 -.365E+02   0.404E+01 -.287E+01 0.227E+01   0.109E-04 -.840E-05 0.104E-04
   0.176E+02 -.650E+02 -.316E+02   -.193E+02 0.718E+02 0.344E+02   0.131E+01 -.534E+01 -.280E+01   -.269E-05 0.115E-04 -.396E-05
   -.411E+01 0.655E+02 -.293E+01   0.481E+01 -.708E+02 0.157E+01   -.364E+00 0.538E+01 0.144E+01   0.213E-05 -.175E-04 -.628E-05
   0.367E+01 -.362E+01 -.683E+02   -.419E+01 0.492E+01 0.747E+02   0.475E+00 -.109E+01 -.587E+01   -.173E-05 0.366E-05 0.140E-04
 -----------------------------------------------------------------------------------------------
   -.776E+00 0.129E+01 0.522E+00   0.249E-13 0.195E-13 0.426E-13   0.784E+00 -.131E+01 -.526E+00   -.525E-04 0.596E-04 -.486E-04
 
 
 POSITION                                       TOTAL-FORCE (eV/Angst)
 -----------------------------------------------------------------------------------
      8.10600      7.26700      5.96100         2.015214     -0.869640      0.461346
      7.25100      7.95500      6.72700        -1.163025     -0.026904     -1.056440
      7.13400      7.98700      8.15400         0.662084      0.490988      0.326355
      7.33500      7.06700      9.07400        -0.101711     -2.197244      0.009606
      8.18000      7.29200      4.86200        -0.470665      0.142035      0.380165
      8.98200      6.68600      6.43500        -1.331482      0.758237     -0.489261
      6.43800      8.54700      6.26100         0.468324     -0.072050     -0.236594
      6.90200      8.92000      8.60300        -0.366267      1.460960      0.019067
      7.42400      6.00800      8.79700         0.333903      0.106622      0.085969
      7.24800      7.27100     10.12500        -0.046375      0.206995      0.499788
 -----------------------------------------------------------------------------------
    total drift:                                0.007783     -0.016662     -0.003460


--------------------------------------------------------------------------------------------------------



  FREE ENERGIE OF THE ION-ELECTRON SYSTEM (eV)
  ---------------------------------------------------
  free  energy   TOTEN  =       -56.56603838 eV

  energy  without entropy=      -56.56603838  energy(sigma->0) =      -56.56603838
 


--------------------------------------------------------------------------------------------------------


    POTLOK:  cpu time      0.5074: real time      0.5099


--------------------------------------------------------------------------------------------------------


 stress matrix after NEB project (eV)
     -1.41134      0.02963      0.06439
      0.02963      2.41240     -0.57830
      0.06439     -0.57830      1.49167
  FORCES: max atom, RMS     2.242811    1.381003
  FORCE total and by dimension    4.367114    2.197244
  Stress total and by dimension    3.273466    2.412404
     LOOP+:  cpu time     30.5117: real time     30.6644
    4ORBIT:  cpu time      0.0000: real time      0.0000

 total amount of memory used by VASP MPI-rank0   224783. kBytes
=======================================================================

   base      :      30000. kBytes
   nonlr-proj:       1259. kBytes
   fftplans  :     123538. kBytes
   grid      :      67787. kBytes
   one-center:         15. kBytes
   wavefun   :       2184. kBytes
 
  
  
 General timing and accounting informations for this job:
 ========================================================
  
                  Total CPU time used (sec):       37.105
                            User time (sec):       33.859
                          System time (sec):        3.247
                         Elapsed time (sec):       38.526
  
                   Maximum memory used (kb):      556480.
                   Average memory used (kb):          N/A
  
                          Minor page faults:       161341
                          Major page faults:         5420
                 Voluntary context switches:         3110
