 vasp.6.4.2 20Jul23 (build Apr 10 2024 13:39:58) complex                        
  
 executed on             LinuxIFC date 2024.05.18  07:42:40
 running   16 mpi-ranks, on    1 nodes
 distrk:  each k-point on   16 cores,    1 groups
 distr:  one band on NCORE=   2 cores,    8 groups


--------------------------------------------------------------------------------------------------------


 INCAR:
   ISTART = 0
   ISPIN = 1
   LREAL = Auto
   ENCUT = 520
   NPAR = 8
   LPLANE = .TRUE.
   LSCALU = .FALSE.
   NSIM = 4
   LWAVE = .FALSE.
   LCHARG = .FALSE.
   ADDGRID = .TRUE.
   LASPH = .TRUE.
   PREC = Accurate
   ISMEAR = 0
   SIGMA = 0.05
   EDIFF = 1E-06
   NSW = 0
   TEBEG = 300
   TEEND = 700     	
   ISYM = 0
   NWRITE = 2

 POTCAR:   PAW_PBE C 08Apr2002                    
 POTCAR:   PAW_PBE H 15Jun2001                    
 POTCAR:   PAW_PBE C 08Apr2002                    
   VRHFIN =C: s2p2                                                                                  
   LEXCH  = PE                                                                                      
   EATOM  =   147.1560 eV,   10.8157 Ry                                                             
                                                                                                    
   TITEL  = PAW_PBE C 08Apr2002                                                                     
   LULTRA =        F    use ultrasoft PP ?                                                          
   IUNSCR =        0    unscreen: 0-lin 1-nonlin 2-no                                               
   RPACOR =     .000    partial core radius                                                         
   POMASS =   12.011; ZVAL   =    4.000    mass and valenz                                          
   RCORE  =    1.500    outmost cutoff radius                                                       
   RWIGS  =    1.630; RWIGS  =     .863    wigner-seitz radius (au A)                               
   ENMAX  =  400.000; ENMIN  =  300.000 eV                                                          
   ICORE  =        2    local potential                                                             
   LCOR   =        T    correct aug charges                                                         
   LPAW   =        T    paw PP                                                                      
   EAUG   =  644.873                                                                                
   DEXC   =     .000                                                                                
   RMAX   =    2.266    core radius for proj-oper                                                   
   RAUG   =    1.300    factor for augmentation sphere                                              
   RDEP   =    1.501    radius for radial grids                                                     
   RDEPT  =    1.300    core radius for aug-charge                                                  
   QCUT   =   -5.516; QGAM   =   11.032    optimization parameters                                  
                                                                                                    
   Description                                                                                      
     l     E      TYP  RCUT    TYP  RCUT                                                            
     0   .000     23  1.200                                                                         
     0   .000     23  1.200                                                                         
     1   .000     23  1.500                                                                         
     1  2.500     23  1.500                                                                         
     2   .000      7  1.500                                                                         
  local pseudopotential read in
  atomic valenz-charges read in
  non local Contribution for L=           0  read in
    real space projection operators read in
  non local Contribution for L=           0  read in
    real space projection operators read in
  non local Contribution for L=           1  read in
    real space projection operators read in
  non local Contribution for L=           1  read in
    real space projection operators read in
    PAW grid and wavefunctions read in
 
   number of l-projection  operators is LMAX  =           4
   number of lm-projection operators is LMMAX =           8
 
 POTCAR:   PAW_PBE H 15Jun2001                    
   VRHFIN =H: ultrasoft test                                                                        
   LEXCH  = PE                                                                                      
   EATOM  =    12.4884 eV,     .9179 Ry                                                             
                                                                                                    
   TITEL  = PAW_PBE H 15Jun2001                                                                     
   LULTRA =        F    use ultrasoft PP ?                                                          
   IUNSCR =        0    unscreen: 0-lin 1-nonlin 2-no                                               
   RPACOR =     .000    partial core radius                                                         
   POMASS =    1.000; ZVAL   =    1.000    mass and valenz                                          
   RCORE  =    1.100    outmost cutoff radius                                                       
   RWIGS  =     .700; RWIGS  =     .370    wigner-seitz radius (au A)                               
   ENMAX  =  250.000; ENMIN  =  200.000 eV                                                          
   RCLOC  =     .701    cutoff for local pot                                                        
   LCOR   =        T    correct aug charges                                                         
   LPAW   =        T    paw PP                                                                      
   EAUG   =  400.000                                                                                
   RMAX   =    2.174    core radius for proj-oper                                                   
   RAUG   =    1.200    factor for augmentation sphere                                              
   RDEP   =    1.112    radius for radial grids                                                     
   QCUT   =   -5.749; QGAM   =   11.498    optimization parameters                                  
                                                                                                    
   Description                                                                                      
     l     E      TYP  RCUT    TYP  RCUT                                                            
     0   .000     23  1.100                                                                         
     0   .500     23  1.100                                                                         
     1  -.300     23  1.100                                                                         
  local pseudopotential read in
  atomic valenz-charges read in
  non local Contribution for L=           0  read in
    real space projection operators read in
  non local Contribution for L=           0  read in
    real space projection operators read in
  non local Contribution for L=           1  read in
    real space projection operators read in
    PAW grid and wavefunctions read in
 
   number of l-projection  operators is LMAX  =           3
   number of lm-projection operators is LMMAX =           5
 
 Optimization of the real space projectors (new method)

 maximal supplied QI-value         = 25.13
 optimisation between [QCUT,QGAM] = [ 11.56, 23.12] = [ 37.43,149.72] Ry 
 Optimized for a Real-space Cutoff    1.04 Angstroem

   l    n(q)    QCUT    max X(q) W(low)/X(q) W(high)/X(q)  e(spline) 
   0      7    11.561     5.582    0.47E-04    0.94E-04    0.17E-07
   0      7    11.561    69.432    0.20E-03    0.59E-03    0.21E-06
   1      7    11.561     2.780    0.24E-04    0.70E-04    0.44E-07
   1      7    11.561     4.549    0.18E-03    0.25E-03    0.12E-06
 Optimization of the real space projectors (new method)

 maximal supplied QI-value         = 34.20
 optimisation between [QCUT,QGAM] = [ 11.63, 23.26] = [ 37.87,151.49] Ry 
 Optimized for a Real-space Cutoff    1.21 Angstroem

   l    n(q)    QCUT    max X(q) W(low)/X(q) W(high)/X(q)  e(spline) 
   0      8    11.629     4.436    0.19E-04    0.32E-04    0.47E-07
   0      8    11.629    16.131    0.16E-03    0.33E-03    0.21E-06
   1      8    11.629     4.654    0.18E-03    0.16E-03    0.26E-06
 PAW_PBE C 08Apr2002                    :
 energy of atom  1       EATOM= -147.1560
 kinetic energy error for atom=    0.0071 (will be added to EATOM!!)
 PAW_PBE H 15Jun2001                    :
 energy of atom  2       EATOM=  -12.4884
 kinetic energy error for atom=    0.0014 (will be added to EATOM!!)
 
 
 POSCAR:  C  H
  positions in cartesian coordinates
  No initial velocities read in
 exchange correlation table for  LEXCH =        8
   RHO(1)=    0.500       N(1)  =     2000
   RHO(2)=  100.500       N(2)  =     4000

 VTST: version 4.1, (05/19/21)

 CHAIN: initializing optimizer
 
 OPT: Using VASP Dynamics algorithm
 CHAIN: Read ICHAIN            0
 
 POSCAR:  C  H
  positions in cartesian coordinates
  No initial velocities read in
 


--------------------------------------------------------------------------------------------------------


 ion  position               nearest neighbor table
   1  0.533  0.479  0.419-   6 1.11   5 1.12   2 1.32
   2  0.480  0.543  0.447-   7 1.11   1 1.32   3 1.51
   3  0.480  0.546  0.548-   8 1.08   4 1.32   2 1.51
   4  0.492  0.468  0.586-   9 1.09  10 1.14   3 1.32
   5  0.535  0.462  0.346-   1 1.12
   6  0.580  0.444  0.464-   1 1.11
   7  0.440  0.586  0.402-   2 1.11
   8  0.468  0.610  0.579-   3 1.08
   9  0.492  0.406  0.548-   4 1.09
  10  0.500  0.456  0.660-   4 1.14
 

IMPORTANT INFORMATION: All symmetrisations will be switched off!
NOSYMM: (Re-)initialisation of all symmetry stuff for point group C_1.


----------------------------------------------------------------------------------------

                                     Primitive cell                                     

  volume of cell :    3375.0000

  direct lattice vectors                    reciprocal lattice vectors
    15.000000000  0.000000000  0.000000000     0.066666667  0.000000000  0.000000000
     0.000000000 15.000000000  0.000000000     0.000000000  0.066666667  0.000000000
     0.000000000  0.000000000 15.000000000     0.000000000  0.000000000  0.066666667

  length of vectors
    15.000000000 15.000000000 15.000000000     0.066666667  0.066666667  0.066666667

  position of ions in fractional coordinates (direct lattice)
     0.532800007  0.479066658  0.418866666
     0.480066681  0.543199984  0.447266674
     0.480200005  0.546333313  0.548133341
     0.491799990  0.467599996  0.585999997
     0.535133362  0.461533324  0.346066666
     0.580333328  0.443999990  0.463733323
     0.440133349  0.586466662  0.402399985
     0.467533334  0.609999975  0.579266675
     0.491600005  0.405733331  0.548000018
     0.500466665  0.456066672  0.660333316

  ion indices of the primitive-cell ions
   primitive index   ion index
                 1           1
                 2           2
                 3           3
                 4           4
                 5           5
                 6           6
                 7           7
                 8           8
                 9           9
                10          10

----------------------------------------------------------------------------------------

 
 
 KPOINTS: K-Spacing Value to Generate K-Mesh: 1.00

Automatic generation of k-mesh.
 Grid dimensions read from file:
 generate k-points for:    1    1    1

 Generating k-lattice:

  Cartesian coordinates                     Fractional coordinates (reciprocal lattice)
     0.066666667  0.000000000  0.000000000     1.000000000  0.000000000  0.000000000
     0.000000000  0.066666667  0.000000000     0.000000000  1.000000000  0.000000000
     0.000000000  0.000000000  0.066666667     0.000000000  0.000000000  1.000000000

  Length of vectors
     0.066666667  0.066666667  0.066666667

  Shift w.r.t. Gamma in fractional coordinates (k-lattice)
     0.000000000  0.000000000  0.000000000

 
 Subroutine IBZKPT returns following result:
 ===========================================
 
 Found      1 irreducible k-points:
 
 Following reciprocal coordinates:
            Coordinates               Weight
  0.000000  0.000000  0.000000      1.000000
 
 Following cartesian coordinates:
            Coordinates               Weight
  0.000000  0.000000  0.000000      1.000000
 


--------------------------------------------------------------------------------------------------------




 Dimension of arrays:
   k-points           NKPTS =      1   k-points in BZ     NKDIM =      1   number of bands    NBANDS=     24
   number of dos      NEDOS =    301   number of ions     NIONS =     10
   non local maximal  LDIM  =      4   non local SUM 2l+1 LMDIM =      8
   total plane-waves  NPLWV = ******
   max r-space proj   IRMAX =   3145   max aug-charges    IRDMAX=  39494
   dimension x,y,z NGX =   112 NGY =  112 NGZ =  112
   dimension x,y,z NGXF=   224 NGYF=  224 NGZF=  224
   support grid    NGXF=   448 NGYF=  448 NGZF=  448
   ions per type =               4   6
   NGX,Y,Z   is equivalent  to a cutoff of  12.41, 12.41, 12.41 a.u.
   NGXF,Y,Z  is equivalent  to a cutoff of  24.83, 24.83, 24.83 a.u.

 SYSTEM =  unknown system                          
 POSCAR =   C  H                                   

 Startparameter for this run:
   NWRITE =      2    write-flag & timer
   PREC   = accura    normal or accurate (medium, high low for compatibility)
   ISTART =      0    job   : 0-new  1-cont  2-samecut
   ICHARG =      2    charge: 1-file 2-atom 10-const
   ISPIN  =      1    spin polarized calculation?
   LNONCOLLINEAR =      F non collinear calculations
   LSORBIT =      F    spin-orbit coupling
   INIWAV =      1    electr: 0-lowe 1-rand  2-diag
   LASPH  =      T    aspherical Exc in radial PAW
 Electronic Relaxation 1
   ENCUT  =  520.0 eV  38.22 Ry    6.18 a.u.  27.89 27.89 27.89*2*pi/ulx,y,z
   ENINI  =  520.0     initial cutoff
   ENAUG  =  644.9 eV  augmentation charge cutoff
   NELM   =     60;   NELMIN=  2; NELMDL= -5     # of ELM steps 
   EDIFF  = 0.1E-05   stopping-criterion for ELM
   LREAL  =      T    real-space projection
   NLSPLINE    = F    spline interpolate recip. space projectors
   LCOMPAT=      F    compatible to vasp.4.4
   GGA_COMPAT  = T    GGA compatible to vasp.4.4-vasp.4.6
   LMAXPAW     = -100 max onsite density
   LMAXMIX     =    2 max onsite mixed and CHGCAR
   VOSKOWN=      0    Vosko Wilk Nusair interpolation
   ROPT   =   -0.00025  -0.00025
 Ionic relaxation
   EDIFFG = 0.1E-04   stopping-criterion for IOM
   NSW    =      0    number of steps for IOM
   NBLOCK =      1;   KBLOCK =      1    inner block; outer block 
   IBRION =     -1    ionic relax: 0-MD 1-quasi-New 2-CG
   NFREE  =      0    steps in history (QN), initial steepest desc. (CG)
   ISIF   =      2    stress and relaxation
   IWAVPR =     10    prediction:  0-non 1-charg 2-wave 3-comb
   ISYM   =      0    0-nonsym 1-usesym 2-fastsym
   LCORR  =      T    Harris-Foulkes like correction to forces

   POTIM  = 0.5000    time-step for ionic-motion
   TEIN   =    0.0    initial temperature
   TEBEG  =  300.0;   TEEND  = 700.0 temperature during run
   SMASS  =  -3.00    Nose mass-parameter (am)
   estimated Nose-frequenzy (Omega)   =  0.10E-29 period in steps = 0.13E+47 mass=  -0.514E-26a.u.
   SCALEE = 1.0000    scale energy and forces
   NPACO  =    256;   APACO  = 10.0  distance and # of slots for P.C.
   PSTRESS=    0.0 pullay stress

  Mass of Ions in am
   POMASS =  12.01  1.00
  Ionic Valenz
   ZVAL   =   4.00  1.00
  Atomic Wigner-Seitz radii
   RWIGS  =  -1.00 -1.00
  virtual crystal weights 
   VCA    =   1.00  1.00
   NELECT =      22.0000    total number of electrons
   NUPDOWN=      -1.0000    fix difference up-down

 DOS related values:
   EMIN   =  10.00;   EMAX   =-10.00  energy-range for DOS
   EFERMI =   0.00;   METHOD = LEGACY      
   ISMEAR =     0;   SIGMA  =   0.05  broadening in eV -4-tet -1-fermi 0-gaus

 Electronic relaxation 2 (details)
   IALGO  =     38    algorithm
   LDIAG  =      T    sub-space diagonalisation (order eigenvalues)
   LSUBROT=      F    optimize rotation matrix (better conditioning)
   TURBO    =      0    0=normal 1=particle mesh
   IRESTART =      0    0=no restart 2=restart with 2 vectors
   NREBOOT  =      0    no. of reboots
   NMIN     =      0    reboot dimension
   EREF     =   0.00    reference energy to select bands
   IMIX   =      4    mixing-type and parameters
     AMIX     =   0.40;   BMIX     =  1.00
     AMIX_MAG =   1.60;   BMIX_MAG =  1.00
     AMIN     =   0.10
     WC   =   100.;   INIMIX=   1;  MIXPRE=   1;  MAXMIX= -45

 Intra band minimization:
   WEIMIN = 0.0000     energy-eigenvalue tresh-hold
   EBREAK =  0.10E-07  absolut break condition
   DEPER  =   0.30     relativ break condition  

   TIME   =   0.40     timestep for ELM

  volume/ion in A,a.u.               =     337.50      2277.56
  Fermi-wavevector in a.u.,A,eV,Ry     =   0.305814  0.577905  1.272449  0.093522
  Thomas-Fermi vector in A             =   1.179187
 
 Write flags
   LWAVE        =      F    write WAVECAR
   LDOWNSAMPLE  =      F    k-point downsampling of WAVECAR
   LCHARG       =      F    write CHGCAR
   LVTOT        =      F    write LOCPOT, total local potential
   LVHAR        =      F    write LOCPOT, Hartree potential only
   LELF         =      F    write electronic localiz. function (ELF)
   LORBIT       =      0    0 simple, 1 ext, 2 COOP (PROOUT), +10 PAW based schemes


 Dipole corrections
   LMONO  =      F    monopole corrections only (constant potential shift)
   LDIPOL =      F    correct potential (dipole corrections)
   IDIPOL =      0    1-x, 2-y, 3-z, 4-all directions 
   EPSILON=  1.0000000 bulk dielectric constant

 Exchange correlation treatment:
   GGA     =    --    GGA type
   LEXCH   =     8    internal setting for exchange type
   LIBXC   =     F    Libxc                    
   VOSKOWN =     0    Vosko Wilk Nusair interpolation
   LHFCALC =     F    Hartree Fock is set to
   LHFONE  =     F    Hartree Fock one center treatment
   AEXX    =    0.0000 exact exchange contribution

 Linear response parameters
   LEPSILON=     F    determine dielectric tensor
   LRPA    =     F    only Hartree local field effects (RPA)
   LNABLA  =     F    use nabla operator in PAW spheres
   LVEL    =     F    velocity operator in full k-point grid
   CSHIFT  =0.1000    complex shift for real part using Kramers Kronig
   OMEGAMAX=  -1.0    maximum frequency
   DEG_THRESHOLD= 0.2000000E-02 threshold for treating states as degnerate
   RTIME   =   -0.100 relaxation time in fs
  (WPLASMAI=    0.000 imaginary part of plasma frequency in eV, 0.658/RTIME)
   DFIELD  = 0.0000000 0.0000000 0.0000000 field for delta impulse in time
 
  Optional k-point grid parameters
   LKPOINTS_OPT  =     F    use optional k-point grid
   KPOINTS_OPT_MODE=     1    mode for optional k-point grid
 
 Orbital magnetization related:
   ORBITALMAG=     F  switch on orbital magnetization
   LCHIMAG   =     F  perturbation theory with respect to B field
   DQ        =  0.001000  dq finite difference perturbation B field
   LLRAUG    =     F  two centre corrections for induced B field
   LBONE     =     F  B-component reconstruction in AE one-centre
   LVGVCALC  =     T  calculate vGv susceptibility
   LVGVAPPL  =     F  apply vGv susceptibility instead of pGv for G=0

 Random number generation:
   RANDOM_GENERATOR = DEFAULT
   PCG_SEED         = not used


--------------------------------------------------------------------------------------------------------


 Static calculation
 charge density and potential will be updated during run
 non-spin polarized calculation
 Variant of blocked Davidson
 Davidson routine will perform the subspace rotation
 perform sub-space diagonalisation
    after iterative eigenvector-optimisation
 modified Broyden-mixing scheme, WC =      100.0
 initial mixing is a Kerker type mixing with AMIX =  0.4000 and BMIX =      1.0000
 Hartree-type preconditioning will be used
 using additional bands           13
 real space projection scheme for non local part
 calculate Harris-corrections to forces 
   (improved forces if not selfconsistent)
 use gradient corrections 
 use of overlap-Matrix (Vanderbilt PP)
 Gauss-broadening in eV      SIGMA  =   0.05


--------------------------------------------------------------------------------------------------------


  energy-cutoff  :      520.00
  volume of cell :     3375.00
      direct lattice vectors                 reciprocal lattice vectors
    15.000000000  0.000000000  0.000000000     0.066666667  0.000000000  0.000000000
     0.000000000 15.000000000  0.000000000     0.000000000  0.066666667  0.000000000
     0.000000000  0.000000000 15.000000000     0.000000000  0.000000000  0.066666667

  length of vectors
    15.000000000 15.000000000 15.000000000     0.066666667  0.066666667  0.066666667


 
 k-points in units of 2pi/SCALE and weight: K-Spacing Value to Generate K-Mesh: 1.00
   0.00000000  0.00000000  0.00000000       1.000
 
 k-points in reciprocal lattice and weights: K-Spacing Value to Generate K-Mesh: 1.00
   0.00000000  0.00000000  0.00000000       1.000
 
 position of ions in fractional coordinates (direct lattice) 
   0.53280001  0.47906666  0.41886667
   0.48006668  0.54319998  0.44726667
   0.48020000  0.54633331  0.54813334
   0.49179999  0.46760000  0.58600000
   0.53513336  0.46153332  0.34606667
   0.58033333  0.44399999  0.46373332
   0.44013335  0.58646666  0.40239998
   0.46753333  0.60999997  0.57926668
   0.49160000  0.40573333  0.54800002
   0.50046666  0.45606667  0.66033332
 
 position of ions in cartesian coordinates  (Angst):
   7.99200010  7.18599987  6.28299999
   7.20100021  8.14799976  6.70900011
   7.20300007  8.19499969  8.22200012
   7.37699986  7.01399994  8.78999996
   8.02700043  6.92299986  5.19099998
   8.70499992  6.65999985  6.95599985
   6.60200024  8.79699993  6.03599977
   7.01300001  9.14999962  8.68900013
   7.37400007  6.08599997  8.22000027
   7.50699997  6.84100008  9.90499973
 


--------------------------------------------------------------------------------------------------------


 k-point   1 :   0.0000 0.0000 0.0000  plane waves:   90879

 maximum and minimum number of plane-waves per node :     45467    45412

 maximum number of plane-waves:     90879
 maximum index in each direction: 
   IXMAX=   27   IYMAX=   27   IZMAX=   27
   IXMIN=  -27   IYMIN=  -27   IZMIN=  -27


 real space projection operators:
  total allocation   :       1185.76 KBytes
  max/ min on nodes  :        593.37        592.39


 parallel 3D FFT for wavefunctions:
    minimum data exchange during FFTs selected (reduces bandwidth)
 parallel 3D FFT for charge:
    minimum data exchange during FFTs selected (reduces bandwidth)


 total amount of memory used by VASP MPI-rank0   224780. kBytes
=======================================================================

   base      :      30000. kBytes
   nonlr-proj:       1256. kBytes
   fftplans  :     123538. kBytes
   grid      :      67787. kBytes
   one-center:         15. kBytes
   wavefun   :       2184. kBytes
 
     INWAV:  cpu time      0.0000: real time      0.0000
 Broyden mixing: mesh for mixing (old mesh)
   NGX = 55   NGY = 55   NGZ = 55
  (NGX  =224   NGY  =224   NGZ  =224)
  gives a total of 166375 points

 initial charge density was supplied:
 charge density of overlapping atoms calculated
 number of electron      22.0000000 magnetization 
 keeping initial charge density in first step


--------------------------------------------------------------------------------------------------------


 Maximum index for non-local projection operator         1513
 Maximum index for augmentation-charges         2496 (set IRDMAX)


--------------------------------------------------------------------------------------------------------


 First call to EWALD:  gamma=   0.118
 Maximum number of real-space cells 3x 3x 3
 Maximum number of reciprocal cells 3x 3x 3

    FEWALD:  cpu time      0.0010: real time      0.0010


--------------------------------------- Ionic step        1  -------------------------------------------




--------------------------------------- Iteration      1(   1)  ---------------------------------------


    POTLOK:  cpu time      0.3333: real time      0.3352
    SETDIJ:  cpu time      0.1951: real time      0.1960
     EDDAV:  cpu time      0.4155: real time      0.4179
       DOS:  cpu time      0.0002: real time      0.0002
    --------------------------------------------
      LOOP:  cpu time      0.9441: real time      0.9493

 eigenvalue-minimisations  :    64
 total energy-change (2. order) : 0.1067671E+03  (-0.5275253E+03)
 number of electron      22.0000000 magnetization 
 augmentation part       22.0000000 magnetization 

 Free energy of the ion-electron system (eV)
  ---------------------------------------------------
  alpha Z        PSCENC =         0.62641250
  Ewald energy   TEWEN  =       931.82850505
  -Hartree energ DENC   =     -1354.99182734
  -exchange      EXHF   =         0.00000000
  -V(xc)+E(xc)   XCENC  =        67.46025714
  PAW double counting   =       156.01372664     -160.66969168
  entropy T*S    EENTRO =        -0.00134285
  eigenvalues    EBANDS =      -197.01629374
  atomic energy  EATOM  =       663.51739852
  Solvation  Ediel_sol  =         0.00000000
  ---------------------------------------------------
  free energy    TOTEN  =       106.76714424 eV

  energy without entropy =      106.76848709  energy(sigma->0) =      106.76781567


--------------------------------------------------------------------------------------------------------




--------------------------------------- Iteration      1(   2)  ---------------------------------------


     EDDAV:  cpu time      0.4420: real time      0.4445
       DOS:  cpu time      0.0001: real time      0.0001
    --------------------------------------------
      LOOP:  cpu time      0.4421: real time      0.4446

 eigenvalue-minimisations  :    72
 total energy-change (2. order) :-0.1221759E+03  (-0.1197825E+03)
 number of electron      22.0000000 magnetization 
 augmentation part       22.0000000 magnetization 

 Free energy of the ion-electron system (eV)
  ---------------------------------------------------
  alpha Z        PSCENC =         0.62641250
  Ewald energy   TEWEN  =       931.82850505
  -Hartree energ DENC   =     -1354.99182734
  -exchange      EXHF   =         0.00000000
  -V(xc)+E(xc)   XCENC  =        67.46025714
  PAW double counting   =       156.01372664     -160.66969168
  entropy T*S    EENTRO =        -0.00000000
  eigenvalues    EBANDS =      -319.19356871
  atomic energy  EATOM  =       663.51739852
  Solvation  Ediel_sol  =         0.00000000
  ---------------------------------------------------
  free energy    TOTEN  =       -15.40878787 eV

  energy without entropy =      -15.40878787  energy(sigma->0) =      -15.40878787


--------------------------------------------------------------------------------------------------------




--------------------------------------- Iteration      1(   3)  ---------------------------------------


     EDDAV:  cpu time      0.4435: real time      0.4461
       DOS:  cpu time      0.0001: real time      0.0001
    --------------------------------------------
      LOOP:  cpu time      0.4437: real time      0.4462

 eigenvalue-minimisations  :    72
 total energy-change (2. order) :-0.4503674E+02  (-0.4494106E+02)
 number of electron      22.0000000 magnetization 
 augmentation part       22.0000000 magnetization 

 Free energy of the ion-electron system (eV)
  ---------------------------------------------------
  alpha Z        PSCENC =         0.62641250
  Ewald energy   TEWEN  =       931.82850505
  -Hartree energ DENC   =     -1354.99182734
  -exchange      EXHF   =         0.00000000
  -V(xc)+E(xc)   XCENC  =        67.46025714
  PAW double counting   =       156.01372664     -160.66969168
  entropy T*S    EENTRO =        -0.00000000
  eigenvalues    EBANDS =      -364.23030962
  atomic energy  EATOM  =       663.51739852
  Solvation  Ediel_sol  =         0.00000000
  ---------------------------------------------------
  free energy    TOTEN  =       -60.44552878 eV

  energy without entropy =      -60.44552878  energy(sigma->0) =      -60.44552878


--------------------------------------------------------------------------------------------------------




--------------------------------------- Iteration      1(   4)  ---------------------------------------


     EDDAV:  cpu time      0.4431: real time      0.4456
       DOS:  cpu time      0.0001: real time      0.0001
    --------------------------------------------
      LOOP:  cpu time      0.4432: real time      0.4457

 eigenvalue-minimisations  :    72
 total energy-change (2. order) :-0.2495050E+01  (-0.2491010E+01)
 number of electron      22.0000000 magnetization 
 augmentation part       22.0000000 magnetization 

 Free energy of the ion-electron system (eV)
  ---------------------------------------------------
  alpha Z        PSCENC =         0.62641250
  Ewald energy   TEWEN  =       931.82850505
  -Hartree energ DENC   =     -1354.99182734
  -exchange      EXHF   =         0.00000000
  -V(xc)+E(xc)   XCENC  =        67.46025714
  PAW double counting   =       156.01372664     -160.66969168
  entropy T*S    EENTRO =        -0.00000000
  eigenvalues    EBANDS =      -366.72535940
  atomic energy  EATOM  =       663.51739852
  Solvation  Ediel_sol  =         0.00000000
  ---------------------------------------------------
  free energy    TOTEN  =       -62.94057856 eV

  energy without entropy =      -62.94057856  energy(sigma->0) =      -62.94057856


--------------------------------------------------------------------------------------------------------




--------------------------------------- Iteration      1(   5)  ---------------------------------------


     EDDAV:  cpu time      0.3666: real time      0.3688
       DOS:  cpu time      0.0001: real time      0.0001
    CHARGE:  cpu time      0.2059: real time      0.2067
    MIXING:  cpu time      0.0083: real time      0.0084
    --------------------------------------------
      LOOP:  cpu time      0.5810: real time      0.5840

 eigenvalue-minimisations  :    56
 total energy-change (2. order) :-0.2308078E-01  (-0.2307535E-01)
 number of electron      22.0000000 magnetization 
 augmentation part        0.5813745 magnetization 

 Broyden mixing:
  rms(total) = 0.11953E+01    rms(broyden)= 0.11951E+01
  rms(prec ) = 0.14387E+01
  weight for this iteration     100.00

 Free energy of the ion-electron system (eV)
  ---------------------------------------------------
  alpha Z        PSCENC =         0.62641250
  Ewald energy   TEWEN  =       931.82850505
  -Hartree energ DENC   =     -1354.99182734
  -exchange      EXHF   =         0.00000000
  -V(xc)+E(xc)   XCENC  =        67.46025714
  PAW double counting   =       156.01372664     -160.66969168
  entropy T*S    EENTRO =        -0.00000000
  eigenvalues    EBANDS =      -366.74844018
  atomic energy  EATOM  =       663.51739852
  Solvation  Ediel_sol  =         0.00000000
  ---------------------------------------------------
  free energy    TOTEN  =       -62.96365934 eV

  energy without entropy =      -62.96365934  energy(sigma->0) =      -62.96365934


--------------------------------------------------------------------------------------------------------




--------------------------------------- Iteration      1(   6)  ---------------------------------------


    POTLOK:  cpu time      0.3051: real time      0.3067
    SETDIJ:  cpu time      0.1927: real time      0.1935
     EDDAV:  cpu time      0.4462: real time      0.4487
       DOS:  cpu time      0.0001: real time      0.0001
    CHARGE:  cpu time      0.2009: real time      0.2017
    MIXING:  cpu time      0.0078: real time      0.0078
    --------------------------------------------
      LOOP:  cpu time      1.1527: real time      1.1585

 eigenvalue-minimisations  :    72
 total energy-change (2. order) : 0.5373128E+01  (-0.8145343E+00)
 number of electron      22.0000000 magnetization 
 augmentation part        0.5313969 magnetization 

 Broyden mixing:
  rms(total) = 0.57188E+00    rms(broyden)= 0.57185E+00
  rms(prec ) = 0.67868E+00
  weight for this iteration     100.00

 eigenvalues of (default mixing * dielectric matrix)
  average eigenvalue GAMMA=   1.5963
  1.5963

 Free energy of the ion-electron system (eV)
  ---------------------------------------------------
  alpha Z        PSCENC =         0.62641250
  Ewald energy   TEWEN  =       931.82850505
  -Hartree energ DENC   =     -1403.01190578
  -exchange      EXHF   =         0.00000000
  -V(xc)+E(xc)   XCENC  =        69.85820494
  PAW double counting   =       230.74855319     -235.96832483
  entropy T*S    EENTRO =        -0.00000000
  eigenvalues    EBANDS =      -315.18937493
  atomic energy  EATOM  =       663.51739852
  Solvation  Ediel_sol  =         0.00000000
  ---------------------------------------------------
  free energy    TOTEN  =       -57.59053134 eV

  energy without entropy =      -57.59053134  energy(sigma->0) =      -57.59053134


--------------------------------------------------------------------------------------------------------




--------------------------------------- Iteration      1(   7)  ---------------------------------------


    POTLOK:  cpu time      0.3063: real time      0.3080
    SETDIJ:  cpu time      0.1929: real time      0.1937
     EDDAV:  cpu time      0.4104: real time      0.4127
       DOS:  cpu time      0.0001: real time      0.0001
    CHARGE:  cpu time      0.2026: real time      0.2034
    MIXING:  cpu time      0.0084: real time      0.0084
    --------------------------------------------
      LOOP:  cpu time      1.1208: real time      1.1263

 eigenvalue-minimisations  :    64
 total energy-change (2. order) : 0.1220562E+01  (-0.4305235E+00)
 number of electron      22.0000000 magnetization 
 augmentation part        0.4997243 magnetization 

 Broyden mixing:
  rms(total) = 0.22976E+00    rms(broyden)= 0.22969E+00
  rms(prec ) = 0.26399E+00
  weight for this iteration     100.00

 eigenvalues of (default mixing * dielectric matrix)
  average eigenvalue GAMMA=   1.7774
  1.7774  1.7774

 Free energy of the ion-electron system (eV)
  ---------------------------------------------------
  alpha Z        PSCENC =         0.62641250
  Ewald energy   TEWEN  =       931.82850505
  -Hartree energ DENC   =     -1440.84398134
  -exchange      EXHF   =         0.00000000
  -V(xc)+E(xc)   XCENC  =        71.97185128
  PAW double counting   =       292.39169310     -297.86758053
  entropy T*S    EENTRO =        -0.00000000
  eigenvalues    EBANDS =      -277.99426799
  atomic energy  EATOM  =       663.51739852
  Solvation  Ediel_sol  =         0.00000000
  ---------------------------------------------------
  free energy    TOTEN  =       -56.36996941 eV

  energy without entropy =      -56.36996941  energy(sigma->0) =      -56.36996941


--------------------------------------------------------------------------------------------------------




--------------------------------------- Iteration      1(   8)  ---------------------------------------


    POTLOK:  cpu time      0.3098: real time      0.3114
    SETDIJ:  cpu time      0.1929: real time      0.1937
     EDDAV:  cpu time      0.4544: real time      0.4569
       DOS:  cpu time      0.0001: real time      0.0001
    CHARGE:  cpu time      0.2022: real time      0.2030
    MIXING:  cpu time      0.0093: real time      0.0093
    --------------------------------------------
      LOOP:  cpu time      1.1687: real time      1.1745

 eigenvalue-minimisations  :    72
 total energy-change (2. order) : 0.1718562E+00  (-0.2621952E-01)
 number of electron      22.0000000 magnetization 
 augmentation part        0.5000844 magnetization 

 Broyden mixing:
  rms(total) = 0.56052E-01    rms(broyden)= 0.56046E-01
  rms(prec ) = 0.84576E-01
  weight for this iteration     100.00

 eigenvalues of (default mixing * dielectric matrix)
  average eigenvalue GAMMA=   1.6198
  2.3877  0.9057  1.5660

 Free energy of the ion-electron system (eV)
  ---------------------------------------------------
  alpha Z        PSCENC =         0.62641250
  Ewald energy   TEWEN  =       931.82850505
  -Hartree energ DENC   =     -1447.77749036
  -exchange      EXHF   =         0.00000000
  -V(xc)+E(xc)   XCENC  =        72.51081623
  PAW double counting   =       299.37237669     -304.73213775
  entropy T*S    EENTRO =        -0.00000000
  eigenvalues    EBANDS =      -271.54399413
  atomic energy  EATOM  =       663.51739852
  Solvation  Ediel_sol  =         0.00000000
  ---------------------------------------------------
  free energy    TOTEN  =       -56.19811323 eV

  energy without entropy =      -56.19811323  energy(sigma->0) =      -56.19811323


--------------------------------------------------------------------------------------------------------




--------------------------------------- Iteration      1(   9)  ---------------------------------------


    POTLOK:  cpu time      0.3124: real time      0.3142
    SETDIJ:  cpu time      0.1940: real time      0.1948
     EDDAV:  cpu time      0.4482: real time      0.4506
       DOS:  cpu time      0.0001: real time      0.0001
    CHARGE:  cpu time      0.2032: real time      0.2040
    MIXING:  cpu time      0.0091: real time      0.0092
    --------------------------------------------
      LOOP:  cpu time      1.1671: real time      1.1729

 eigenvalue-minimisations  :    72
 total energy-change (2. order) : 0.3408641E-01  (-0.5025491E-02)
 number of electron      22.0000000 magnetization 
 augmentation part        0.4978290 magnetization 

 Broyden mixing:
  rms(total) = 0.24777E-01    rms(broyden)= 0.24774E-01
  rms(prec ) = 0.48471E-01
  weight for this iteration     100.00

 eigenvalues of (default mixing * dielectric matrix)
  average eigenvalue GAMMA=   1.4593
  2.2612  1.5814  0.9973  0.9973

 Free energy of the ion-electron system (eV)
  ---------------------------------------------------
  alpha Z        PSCENC =         0.62641250
  Ewald energy   TEWEN  =       931.82850505
  -Hartree energ DENC   =     -1453.73595571
  -exchange      EXHF   =         0.00000000
  -V(xc)+E(xc)   XCENC  =        72.82780264
  PAW double counting   =       304.46548055     -309.81021924
  entropy T*S    EENTRO =        -0.00000000
  eigenvalues    EBANDS =      -265.88345114
  atomic energy  EATOM  =       663.51739852
  Solvation  Ediel_sol  =         0.00000000
  ---------------------------------------------------
  free energy    TOTEN  =       -56.16402682 eV

  energy without entropy =      -56.16402682  energy(sigma->0) =      -56.16402682


--------------------------------------------------------------------------------------------------------




--------------------------------------- Iteration      1(  10)  ---------------------------------------


    POTLOK:  cpu time      0.3130: real time      0.3146
    SETDIJ:  cpu time      0.1941: real time      0.1949
     EDDAV:  cpu time      0.4486: real time      0.4511
       DOS:  cpu time      0.0001: real time      0.0001
    CHARGE:  cpu time      0.2014: real time      0.2022
    MIXING:  cpu time      0.0093: real time      0.0094
    --------------------------------------------
      LOOP:  cpu time      1.1666: real time      1.1724

 eigenvalue-minimisations  :    72
 total energy-change (2. order) : 0.5765449E-02  (-0.2314737E-02)
 number of electron      22.0000000 magnetization 
 augmentation part        0.4958557 magnetization 

 Broyden mixing:
  rms(total) = 0.19062E-01    rms(broyden)= 0.19058E-01
  rms(prec ) = 0.35225E-01
  weight for this iteration     100.00

 eigenvalues of (default mixing * dielectric matrix)
  average eigenvalue GAMMA=   1.7003
  2.7875  2.3580  1.0286  1.0286  1.2989

 Free energy of the ion-electron system (eV)
  ---------------------------------------------------
  alpha Z        PSCENC =         0.62641250
  Ewald energy   TEWEN  =       931.82850505
  -Hartree energ DENC   =     -1457.04868466
  -exchange      EXHF   =         0.00000000
  -V(xc)+E(xc)   XCENC  =        72.89246614
  PAW double counting   =       304.01255567     -309.36748846
  entropy T*S    EENTRO =        -0.00000000
  eigenvalues    EBANDS =      -262.61942613
  atomic energy  EATOM  =       663.51739852
  Solvation  Ediel_sol  =         0.00000000
  ---------------------------------------------------
  free energy    TOTEN  =       -56.15826137 eV

  energy without entropy =      -56.15826137  energy(sigma->0) =      -56.15826137


--------------------------------------------------------------------------------------------------------




--------------------------------------- Iteration      1(  11)  ---------------------------------------


    POTLOK:  cpu time      0.3117: real time      0.3133
    SETDIJ:  cpu time      0.1929: real time      0.1937
     EDDAV:  cpu time      0.4897: real time      0.4924
       DOS:  cpu time      0.0001: real time      0.0001
    CHARGE:  cpu time      0.2022: real time      0.2030
    MIXING:  cpu time      0.0104: real time      0.0104
    --------------------------------------------
      LOOP:  cpu time      1.2070: real time      1.2130

 eigenvalue-minimisations  :    80
 total energy-change (2. order) : 0.1254293E-01  (-0.7394901E-03)
 number of electron      22.0000000 magnetization 
 augmentation part        0.4956797 magnetization 

 Broyden mixing:
  rms(total) = 0.75065E-02    rms(broyden)= 0.75061E-02
  rms(prec ) = 0.17159E-01
  weight for this iteration     100.00

 eigenvalues of (default mixing * dielectric matrix)
  average eigenvalue GAMMA=   1.7926
  3.4679  2.5242  1.5085  1.0615  1.0968  1.0968

 Free energy of the ion-electron system (eV)
  ---------------------------------------------------
  alpha Z        PSCENC =         0.62641250
  Ewald energy   TEWEN  =       931.82850505
  -Hartree energ DENC   =     -1461.09318769
  -exchange      EXHF   =         0.00000000
  -V(xc)+E(xc)   XCENC  =        73.00286017
  PAW double counting   =       302.61985245     -307.95677513
  entropy T*S    EENTRO =        -0.00000000
  eigenvalues    EBANDS =      -258.69078431
  atomic energy  EATOM  =       663.51739852
  Solvation  Ediel_sol  =         0.00000000
  ---------------------------------------------------
  free energy    TOTEN  =       -56.14571844 eV

  energy without entropy =      -56.14571844  energy(sigma->0) =      -56.14571844


--------------------------------------------------------------------------------------------------------




--------------------------------------- Iteration      1(  12)  ---------------------------------------


    POTLOK:  cpu time      0.3100: real time      0.3116
    SETDIJ:  cpu time      0.1929: real time      0.1937
     EDDAV:  cpu time      0.4069: real time      0.4091
       DOS:  cpu time      0.0001: real time      0.0001
    CHARGE:  cpu time      0.2004: real time      0.2013
    MIXING:  cpu time      0.0092: real time      0.0092
    --------------------------------------------
      LOOP:  cpu time      1.1195: real time      1.1250

 eigenvalue-minimisations  :    64
 total energy-change (2. order) :-0.3835295E-02  (-0.2021234E-03)
 number of electron      22.0000000 magnetization 
 augmentation part        0.4953866 magnetization 

 Broyden mixing:
  rms(total) = 0.57910E-02    rms(broyden)= 0.57909E-02
  rms(prec ) = 0.10822E-01
  weight for this iteration     100.00

 eigenvalues of (default mixing * dielectric matrix)
  average eigenvalue GAMMA=   1.9106
  4.2830  2.4277  2.2473  1.4484  0.9416  1.0132  1.0132

 Free energy of the ion-electron system (eV)
  ---------------------------------------------------
  alpha Z        PSCENC =         0.62641250
  Ewald energy   TEWEN  =       931.82850505
  -Hartree energ DENC   =     -1463.15152799
  -exchange      EXHF   =         0.00000000
  -V(xc)+E(xc)   XCENC  =        73.03269979
  PAW double counting   =       302.09915835     -307.43796196
  entropy T*S    EENTRO =        -0.00000000
  eigenvalues    EBANDS =      -256.66423801
  atomic energy  EATOM  =       663.51739852
  Solvation  Ediel_sol  =         0.00000000
  ---------------------------------------------------
  free energy    TOTEN  =       -56.14955373 eV

  energy without entropy =      -56.14955373  energy(sigma->0) =      -56.14955373


--------------------------------------------------------------------------------------------------------




--------------------------------------- Iteration      1(  13)  ---------------------------------------


    POTLOK:  cpu time      0.3074: real time      0.3090
    SETDIJ:  cpu time      0.1920: real time      0.1928
     EDDAV:  cpu time      0.4052: real time      0.4074
       DOS:  cpu time      0.0001: real time      0.0001
    CHARGE:  cpu time      0.2023: real time      0.2030
    MIXING:  cpu time      0.0092: real time      0.0093
    --------------------------------------------
      LOOP:  cpu time      1.1161: real time      1.1216

 eigenvalue-minimisations  :    64
 total energy-change (2. order) :-0.9177395E-02  (-0.1731871E-03)
 number of electron      22.0000000 magnetization 
 augmentation part        0.4954578 magnetization 

 Broyden mixing:
  rms(total) = 0.31864E-02    rms(broyden)= 0.31861E-02
  rms(prec ) = 0.64478E-02
  weight for this iteration     100.00

 eigenvalues of (default mixing * dielectric matrix)
  average eigenvalue GAMMA=   2.0122
  5.1199  2.7985  2.2434  1.4742  1.4742  1.0268  1.0268  0.9341

 Free energy of the ion-electron system (eV)
  ---------------------------------------------------
  alpha Z        PSCENC =         0.62641250
  Ewald energy   TEWEN  =       931.82850505
  -Hartree energ DENC   =     -1463.53681361
  -exchange      EXHF   =         0.00000000
  -V(xc)+E(xc)   XCENC  =        73.02674957
  PAW double counting   =       302.17184140     -307.50966247
  entropy T*S    EENTRO =        -0.00000000
  eigenvalues    EBANDS =      -256.28316210
  atomic energy  EATOM  =       663.51739852
  Solvation  Ediel_sol  =         0.00000000
  ---------------------------------------------------
  free energy    TOTEN  =       -56.15873113 eV

  energy without entropy =      -56.15873113  energy(sigma->0) =      -56.15873113


--------------------------------------------------------------------------------------------------------




--------------------------------------- Iteration      1(  14)  ---------------------------------------


    POTLOK:  cpu time      0.3049: real time      0.3066
    SETDIJ:  cpu time      0.1926: real time      0.1934
     EDDAV:  cpu time      0.4056: real time      0.4079
       DOS:  cpu time      0.0001: real time      0.0001
    CHARGE:  cpu time      0.2007: real time      0.2014
    MIXING:  cpu time      0.0092: real time      0.0092
    --------------------------------------------
      LOOP:  cpu time      1.1131: real time      1.1186

 eigenvalue-minimisations  :    64
 total energy-change (2. order) :-0.6180836E-02  (-0.8633253E-04)
 number of electron      22.0000000 magnetization 
 augmentation part        0.4953415 magnetization 

 Broyden mixing:
  rms(total) = 0.16240E-02    rms(broyden)= 0.16239E-02
  rms(prec ) = 0.34197E-02
  weight for this iteration     100.00

 eigenvalues of (default mixing * dielectric matrix)
  average eigenvalue GAMMA=   2.1726
  6.2670  3.4277  2.3349  2.0698  1.3473  1.1863  1.0063  1.0063  0.9082

 Free energy of the ion-electron system (eV)
  ---------------------------------------------------
  alpha Z        PSCENC =         0.62641250
  Ewald energy   TEWEN  =       931.82850505
  -Hartree energ DENC   =     -1463.94007337
  -exchange      EXHF   =         0.00000000
  -V(xc)+E(xc)   XCENC  =        73.02001485
  PAW double counting   =       302.23176407     -307.57070876
  entropy T*S    EENTRO =        -0.00000000
  eigenvalues    EBANDS =      -255.87822484
  atomic energy  EATOM  =       663.51739852
  Solvation  Ediel_sol  =         0.00000000
  ---------------------------------------------------
  free energy    TOTEN  =       -56.16491196 eV

  energy without entropy =      -56.16491196  energy(sigma->0) =      -56.16491196


--------------------------------------------------------------------------------------------------------




--------------------------------------- Iteration      1(  15)  ---------------------------------------


    POTLOK:  cpu time      0.3013: real time      0.3029
    SETDIJ:  cpu time      0.1924: real time      0.1932
     EDDAV:  cpu time      0.3668: real time      0.3688
       DOS:  cpu time      0.0001: real time      0.0001
    CHARGE:  cpu time      0.1995: real time      0.2003
    MIXING:  cpu time      0.0093: real time      0.0094
    --------------------------------------------
      LOOP:  cpu time      1.0694: real time      1.0747

 eigenvalue-minimisations  :    56
 total energy-change (2. order) :-0.3648345E-02  (-0.5013389E-04)
 number of electron      22.0000000 magnetization 
 augmentation part        0.4953167 magnetization 

 Broyden mixing:
  rms(total) = 0.96411E-03    rms(broyden)= 0.96407E-03
  rms(prec ) = 0.17909E-02
  weight for this iteration     100.00

 eigenvalues of (default mixing * dielectric matrix)
  average eigenvalue GAMMA=   2.2593
  6.8812  4.1007  2.4257  2.0284  1.7157  1.4832  1.0174  1.0174  1.0199  0.9031

 Free energy of the ion-electron system (eV)
  ---------------------------------------------------
  alpha Z        PSCENC =         0.62641250
  Ewald energy   TEWEN  =       931.82850505
  -Hartree energ DENC   =     -1463.95526330
  -exchange      EXHF   =         0.00000000
  -V(xc)+E(xc)   XCENC  =        73.01108393
  PAW double counting   =       302.24635468     -307.58458798
  entropy T*S    EENTRO =        -0.00000000
  eigenvalues    EBANDS =      -255.85846371
  atomic energy  EATOM  =       663.51739852
  Solvation  Ediel_sol  =         0.00000000
  ---------------------------------------------------
  free energy    TOTEN  =       -56.16856031 eV

  energy without entropy =      -56.16856031  energy(sigma->0) =      -56.16856031


--------------------------------------------------------------------------------------------------------




--------------------------------------- Iteration      1(  16)  ---------------------------------------


    POTLOK:  cpu time      0.2998: real time      0.3014
    SETDIJ:  cpu time      0.1938: real time      0.1946
     EDDAV:  cpu time      0.4063: real time      0.4086
       DOS:  cpu time      0.0001: real time      0.0001
    CHARGE:  cpu time      0.1973: real time      0.1981
    MIXING:  cpu time      0.0144: real time      0.0145
    --------------------------------------------
      LOOP:  cpu time      1.1118: real time      1.1174

 eigenvalue-minimisations  :    64
 total energy-change (2. order) :-0.1357011E-02  (-0.1276411E-04)
 number of electron      22.0000000 magnetization 
 augmentation part        0.4952865 magnetization 

 Broyden mixing:
  rms(total) = 0.54296E-03    rms(broyden)= 0.54289E-03
  rms(prec ) = 0.96528E-03
  weight for this iteration     100.00

 eigenvalues of (default mixing * dielectric matrix)
  average eigenvalue GAMMA=   2.3160
  7.8071  4.4596  2.5679  2.3696  1.7998  1.3941  1.0134  1.0134  0.9446  1.0534
  1.0534

 Free energy of the ion-electron system (eV)
  ---------------------------------------------------
  alpha Z        PSCENC =         0.62641250
  Ewald energy   TEWEN  =       931.82850505
  -Hartree energ DENC   =     -1464.00065433
  -exchange      EXHF   =         0.00000000
  -V(xc)+E(xc)   XCENC  =        73.01045334
  PAW double counting   =       302.25517947     -307.59323659
  entropy T*S    EENTRO =        -0.00000000
  eigenvalues    EBANDS =      -255.81397529
  atomic energy  EATOM  =       663.51739852
  Solvation  Ediel_sol  =         0.00000000
  ---------------------------------------------------
  free energy    TOTEN  =       -56.16991732 eV

  energy without entropy =      -56.16991732  energy(sigma->0) =      -56.16991732


--------------------------------------------------------------------------------------------------------




--------------------------------------- Iteration      1(  17)  ---------------------------------------


    POTLOK:  cpu time      0.2975: real time      0.2992
    SETDIJ:  cpu time      0.1922: real time      0.1930
     EDDAV:  cpu time      0.4115: real time      0.4138
       DOS:  cpu time      0.0001: real time      0.0001
    CHARGE:  cpu time      0.1977: real time      0.1985
    MIXING:  cpu time      0.0142: real time      0.0143
    --------------------------------------------
      LOOP:  cpu time      1.1133: real time      1.1189

 eigenvalue-minimisations  :    64
 total energy-change (2. order) :-0.4848051E-03  (-0.2928615E-05)
 number of electron      22.0000000 magnetization 
 augmentation part        0.4952599 magnetization 

 Broyden mixing:
  rms(total) = 0.31292E-03    rms(broyden)= 0.31286E-03
  rms(prec ) = 0.57218E-03
  weight for this iteration     100.00

 eigenvalues of (default mixing * dielectric matrix)
  average eigenvalue GAMMA=   2.3953
  8.3014  4.8943  2.7529  2.4856  1.8943  1.8943  1.2812  1.2812  1.0175  1.0175
  0.9192  1.0041

 Free energy of the ion-electron system (eV)
  ---------------------------------------------------
  alpha Z        PSCENC =         0.62641250
  Ewald energy   TEWEN  =       931.82850505
  -Hartree energ DENC   =     -1464.01498898
  -exchange      EXHF   =         0.00000000
  -V(xc)+E(xc)   XCENC  =        73.00986437
  PAW double counting   =       302.24216443     -307.58033104
  entropy T*S    EENTRO =        -0.00000000
  eigenvalues    EBANDS =      -255.79942698
  atomic energy  EATOM  =       663.51739852
  Solvation  Ediel_sol  =         0.00000000
  ---------------------------------------------------
  free energy    TOTEN  =       -56.17040213 eV

  energy without entropy =      -56.17040213  energy(sigma->0) =      -56.17040213


--------------------------------------------------------------------------------------------------------




--------------------------------------- Iteration      1(  18)  ---------------------------------------


    POTLOK:  cpu time      0.2960: real time      0.2977
    SETDIJ:  cpu time      0.1916: real time      0.1924
     EDDAV:  cpu time      0.3652: real time      0.3673
       DOS:  cpu time      0.0001: real time      0.0001
    CHARGE:  cpu time      0.1968: real time      0.1976
    MIXING:  cpu time      0.0143: real time      0.0143
    --------------------------------------------
      LOOP:  cpu time      1.0639: real time      1.0693

 eigenvalue-minimisations  :    56
 total energy-change (2. order) :-0.2826822E-03  (-0.1471273E-05)
 number of electron      22.0000000 magnetization 
 augmentation part        0.4952681 magnetization 

 Broyden mixing:
  rms(total) = 0.17470E-03    rms(broyden)= 0.17464E-03
  rms(prec ) = 0.29967E-03
  weight for this iteration     100.00

 eigenvalues of (default mixing * dielectric matrix)
  average eigenvalue GAMMA=   2.3445
  8.5222  5.1356  3.1385  2.4463  2.0849  1.5180  1.5180  0.9138  0.9604  1.0119
  1.0119  1.1084  1.1084

 Free energy of the ion-electron system (eV)
  ---------------------------------------------------
  alpha Z        PSCENC =         0.62641250
  Ewald energy   TEWEN  =       931.82850505
  -Hartree energ DENC   =     -1464.01120995
  -exchange      EXHF   =         0.00000000
  -V(xc)+E(xc)   XCENC  =        73.00915868
  PAW double counting   =       302.22113404     -307.55923221
  entropy T*S    EENTRO =        -0.00000000
  eigenvalues    EBANDS =      -255.80285144
  atomic energy  EATOM  =       663.51739852
  Solvation  Ediel_sol  =         0.00000000
  ---------------------------------------------------
  free energy    TOTEN  =       -56.17068481 eV

  energy without entropy =      -56.17068481  energy(sigma->0) =      -56.17068481


--------------------------------------------------------------------------------------------------------




--------------------------------------- Iteration      1(  19)  ---------------------------------------


    POTLOK:  cpu time      0.2953: real time      0.2969
    SETDIJ:  cpu time      0.1932: real time      0.1940
     EDDAV:  cpu time      0.4461: real time      0.4487
       DOS:  cpu time      0.0001: real time      0.0001
    CHARGE:  cpu time      0.1956: real time      0.1964
    MIXING:  cpu time      0.0145: real time      0.0146
    --------------------------------------------
      LOOP:  cpu time      1.1448: real time      1.1506

 eigenvalue-minimisations  :    72
 total energy-change (2. order) :-0.4536854E-04  (-0.1509143E-06)
 number of electron      22.0000000 magnetization 
 augmentation part        0.4952601 magnetization 

 Broyden mixing:
  rms(total) = 0.13039E-03    rms(broyden)= 0.13033E-03
  rms(prec ) = 0.22016E-03
  weight for this iteration     100.00

 eigenvalues of (default mixing * dielectric matrix)
  average eigenvalue GAMMA=   2.4058
  8.8454  5.4213  3.4709  2.5872  2.2041  1.8933  1.4179  1.4179  1.3190  1.0152
  1.0152  1.1539  0.9266  0.9935

 Free energy of the ion-electron system (eV)
  ---------------------------------------------------
  alpha Z        PSCENC =         0.62641250
  Ewald energy   TEWEN  =       931.82850505
  -Hartree energ DENC   =     -1464.02635827
  -exchange      EXHF   =         0.00000000
  -V(xc)+E(xc)   XCENC  =        73.00959227
  PAW double counting   =       302.22777636     -307.56594997
  entropy T*S    EENTRO =        -0.00000000
  eigenvalues    EBANDS =      -255.78810666
  atomic energy  EATOM  =       663.51739852
  Solvation  Ediel_sol  =         0.00000000
  ---------------------------------------------------
  free energy    TOTEN  =       -56.17073018 eV

  energy without entropy =      -56.17073018  energy(sigma->0) =      -56.17073018


--------------------------------------------------------------------------------------------------------




--------------------------------------- Iteration      1(  20)  ---------------------------------------


    POTLOK:  cpu time      0.2996: real time      0.3012
    SETDIJ:  cpu time      0.1921: real time      0.1929
     EDDAV:  cpu time      0.3716: real time      0.3737
       DOS:  cpu time      0.0001: real time      0.0001
    CHARGE:  cpu time      0.1980: real time      0.1987
    MIXING:  cpu time      0.0148: real time      0.0149
    --------------------------------------------
      LOOP:  cpu time      1.0761: real time      1.0815

 eigenvalue-minimisations  :    56
 total energy-change (2. order) :-0.5970563E-04  (-0.1495555E-06)
 number of electron      22.0000000 magnetization 
 augmentation part        0.4952629 magnetization 

 Broyden mixing:
  rms(total) = 0.74998E-04    rms(broyden)= 0.74908E-04
  rms(prec ) = 0.11762E-03
  weight for this iteration     100.00

 eigenvalues of (default mixing * dielectric matrix)
  average eigenvalue GAMMA=   2.3508
  8.7717  5.6550  3.7864  2.6168  2.4442  1.9027  1.2532  1.2532  1.3032  1.3032
  0.9192  1.0479  0.9807  1.0121  1.0121

 Free energy of the ion-electron system (eV)
  ---------------------------------------------------
  alpha Z        PSCENC =         0.62641250
  Ewald energy   TEWEN  =       931.82850505
  -Hartree energ DENC   =     -1464.02387253
  -exchange      EXHF   =         0.00000000
  -V(xc)+E(xc)   XCENC  =        73.00925645
  PAW double counting   =       302.22718857     -307.56535463
  entropy T*S    EENTRO =        -0.00000000
  eigenvalues    EBANDS =      -255.79032381
  atomic energy  EATOM  =       663.51739852
  Solvation  Ediel_sol  =         0.00000000
  ---------------------------------------------------
  free energy    TOTEN  =       -56.17078988 eV

  energy without entropy =      -56.17078988  energy(sigma->0) =      -56.17078988


--------------------------------------------------------------------------------------------------------




--------------------------------------- Iteration      1(  21)  ---------------------------------------


    POTLOK:  cpu time      0.3044: real time      0.3061
    SETDIJ:  cpu time      0.1911: real time      0.1919
     EDDAV:  cpu time      0.4513: real time      0.4538
       DOS:  cpu time      0.0001: real time      0.0001
    CHARGE:  cpu time      0.1979: real time      0.1987
    MIXING:  cpu time      0.0150: real time      0.0151
    --------------------------------------------
      LOOP:  cpu time      1.1599: real time      1.1657

 eigenvalue-minimisations  :    72
 total energy-change (2. order) :-0.1163369E-04  (-0.2277331E-07)
 number of electron      22.0000000 magnetization 
 augmentation part        0.4952626 magnetization 

 Broyden mixing:
  rms(total) = 0.55651E-04    rms(broyden)= 0.55534E-04
  rms(prec ) = 0.83210E-04
  weight for this iteration     100.00

 eigenvalues of (default mixing * dielectric matrix)
  average eigenvalue GAMMA=   2.3929
  8.8948  5.9161  4.1849  2.7956  2.5196  1.9011  1.9011  1.3889  1.3889  1.3404
  1.0173  1.0173  1.1129  1.0418  0.9332  0.9332

 Free energy of the ion-electron system (eV)
  ---------------------------------------------------
  alpha Z        PSCENC =         0.62641250
  Ewald energy   TEWEN  =       931.82850505
  -Hartree energ DENC   =     -1464.02975295
  -exchange      EXHF   =         0.00000000
  -V(xc)+E(xc)   XCENC  =        73.00943900
  PAW double counting   =       302.22908481     -307.56723737
  entropy T*S    EENTRO =        -0.00000000
  eigenvalues    EBANDS =      -255.78465108
  atomic energy  EATOM  =       663.51739852
  Solvation  Ediel_sol  =         0.00000000
  ---------------------------------------------------
  free energy    TOTEN  =       -56.17080152 eV

  energy without entropy =      -56.17080152  energy(sigma->0) =      -56.17080152


--------------------------------------------------------------------------------------------------------




--------------------------------------- Iteration      1(  22)  ---------------------------------------


    POTLOK:  cpu time      0.3095: real time      0.3111
    SETDIJ:  cpu time      0.1923: real time      0.1931
     EDDAV:  cpu time      0.3718: real time      0.3739
       DOS:  cpu time      0.0002: real time      0.0002
    CHARGE:  cpu time      0.1976: real time      0.1984
    MIXING:  cpu time      0.0174: real time      0.0175
    --------------------------------------------
      LOOP:  cpu time      1.0888: real time      1.0942

 eigenvalue-minimisations  :    56
 total energy-change (2. order) :-0.1144327E-04  (-0.2264592E-07)
 number of electron      22.0000000 magnetization 
 augmentation part        0.4952618 magnetization 

 Broyden mixing:
  rms(total) = 0.29486E-04    rms(broyden)= 0.29268E-04
  rms(prec ) = 0.43457E-04
  weight for this iteration     100.00

 eigenvalues of (default mixing * dielectric matrix)
  average eigenvalue GAMMA=   2.4269
  9.0984  6.2578  4.7026  3.1102  2.4298  2.4298  1.8696  1.3065  1.3065  1.4480
  1.0163  1.0163  1.1684  1.1684  0.9244  1.0020  1.0020

 Free energy of the ion-electron system (eV)
  ---------------------------------------------------
  alpha Z        PSCENC =         0.62641250
  Ewald energy   TEWEN  =       931.82850505
  -Hartree energ DENC   =     -1464.03123316
  -exchange      EXHF   =         0.00000000
  -V(xc)+E(xc)   XCENC  =        73.00943430
  PAW double counting   =       302.23076039     -307.56892456
  entropy T*S    EENTRO =        -0.00000000
  eigenvalues    EBANDS =      -255.78316600
  atomic energy  EATOM  =       663.51739852
  Solvation  Ediel_sol  =         0.00000000
  ---------------------------------------------------
  free energy    TOTEN  =       -56.17081296 eV

  energy without entropy =      -56.17081296  energy(sigma->0) =      -56.17081296


--------------------------------------------------------------------------------------------------------




--------------------------------------- Iteration      1(  23)  ---------------------------------------


    POTLOK:  cpu time      0.3136: real time      0.3153
    SETDIJ:  cpu time      0.1918: real time      0.1926
     EDDAV:  cpu time      0.3741: real time      0.3762
       DOS:  cpu time      0.0001: real time      0.0001
    CHARGE:  cpu time      0.1974: real time      0.1982
    MIXING:  cpu time      0.0159: real time      0.0159
    --------------------------------------------
      LOOP:  cpu time      1.0928: real time      1.0983

 eigenvalue-minimisations  :    56
 total energy-change (2. order) :-0.3636449E-05  (-0.6666545E-08)
 number of electron      22.0000000 magnetization 
 augmentation part        0.4952628 magnetization 

 Broyden mixing:
  rms(total) = 0.20615E-04    rms(broyden)= 0.20306E-04
  rms(prec ) = 0.27995E-04
  weight for this iteration     100.00

 eigenvalues of (default mixing * dielectric matrix)
  average eigenvalue GAMMA=   2.4072
  9.1074  6.4930  4.8091  3.3294  2.5892  2.3982  1.9237  1.3079  1.3079  1.5224
  1.4204  1.0177  1.0177  1.0921  1.0921  0.9218  0.9897  0.9897

 Free energy of the ion-electron system (eV)
  ---------------------------------------------------
  alpha Z        PSCENC =         0.62641250
  Ewald energy   TEWEN  =       931.82850505
  -Hartree energ DENC   =     -1464.02999153
  -exchange      EXHF   =         0.00000000
  -V(xc)+E(xc)   XCENC  =        73.00935879
  PAW double counting   =       302.22824758     -307.56639516
  entropy T*S    EENTRO =        -0.00000000
  eigenvalues    EBANDS =      -255.78435236
  atomic energy  EATOM  =       663.51739852
  Solvation  Ediel_sol  =         0.00000000
  ---------------------------------------------------
  free energy    TOTEN  =       -56.17081660 eV

  energy without entropy =      -56.17081660  energy(sigma->0) =      -56.17081660


--------------------------------------------------------------------------------------------------------




--------------------------------------- Iteration      1(  24)  ---------------------------------------


    POTLOK:  cpu time      0.3133: real time      0.3150
    SETDIJ:  cpu time      0.1916: real time      0.1924
     EDDAV:  cpu time      0.4518: real time      0.4543
       DOS:  cpu time      0.0001: real time      0.0001
    CHARGE:  cpu time      0.1981: real time      0.1989
    MIXING:  cpu time      0.0157: real time      0.0157
    --------------------------------------------
      LOOP:  cpu time      1.1705: real time      1.1763

 eigenvalue-minimisations  :    72
 total energy-change (2. order) :-0.1522291E-05  (-0.3183805E-08)
 number of electron      22.0000000 magnetization 
 augmentation part        0.4952621 magnetization 

 Broyden mixing:
  rms(total) = 0.75991E-05    rms(broyden)= 0.67232E-05
  rms(prec ) = 0.12623E-04
  weight for this iteration     100.00
  WARNING: grid for Broyden might be to small

 eigenvalues of (default mixing * dielectric matrix)
  average eigenvalue GAMMA=   2.4237
  9.1837  6.7413  5.0305  3.5883  2.6345  2.4371  2.1925  1.9141  1.3443  1.3443
  1.4162  1.0167  1.0167  1.1190  1.1190  1.0595  1.0595  0.9165  0.9165

 Free energy of the ion-electron system (eV)
  ---------------------------------------------------
  alpha Z        PSCENC =         0.62641250
  Ewald energy   TEWEN  =       931.82850505
  -Hartree energ DENC   =     -1464.03058532
  -exchange      EXHF   =         0.00000000
  -V(xc)+E(xc)   XCENC  =        73.00938767
  PAW double counting   =       302.22936314     -307.56751761
  entropy T*S    EENTRO =        -0.00000000
  eigenvalues    EBANDS =      -255.78378208
  atomic energy  EATOM  =       663.51739852
  Solvation  Ediel_sol  =         0.00000000
  ---------------------------------------------------
  free energy    TOTEN  =       -56.17081812 eV

  energy without entropy =      -56.17081812  energy(sigma->0) =      -56.17081812


--------------------------------------------------------------------------------------------------------




--------------------------------------- Iteration      1(  25)  ---------------------------------------


    POTLOK:  cpu time      0.3178: real time      0.3195
    SETDIJ:  cpu time      0.1912: real time      0.1920
     EDDAV:  cpu time      0.3769: real time      0.3790
       DOS:  cpu time      0.0001: real time      0.0001
    --------------------------------------------
      LOOP:  cpu time      0.8860: real time      0.8906

 eigenvalue-minimisations  :    56
 total energy-change (2. order) :-0.9251745E-06  (-0.2022084E-08)
 number of electron      22.0000000 magnetization 
 augmentation part        0.4952621 magnetization 

 Free energy of the ion-electron system (eV)
  ---------------------------------------------------
  alpha Z        PSCENC =         0.62641250
  Ewald energy   TEWEN  =       931.82850505
  -Hartree energ DENC   =     -1464.03098846
  -exchange      EXHF   =         0.00000000
  -V(xc)+E(xc)   XCENC  =        73.00939368
  PAW double counting   =       302.22926682     -307.56742366
  entropy T*S    EENTRO =        -0.00000000
  eigenvalues    EBANDS =      -255.78338350
  atomic energy  EATOM  =       663.51739852
  Solvation  Ediel_sol  =         0.00000000
  ---------------------------------------------------
  free energy    TOTEN  =       -56.17081904 eV

  energy without entropy =      -56.17081904  energy(sigma->0) =      -56.17081904


--------------------------------------------------------------------------------------------------------




 average (electrostatic) potential at core
  the test charge radii are     0.6991  0.5201
  (the norm of the test charge is              1.0000)
       1 -58.3945       2 -58.7103       3 -58.7556       4 -58.4524       5 -41.4706
       6 -41.7745       7 -42.0857       8 -42.2344       9 -41.9426      10 -41.4709
 
 
 
 E-fermi :  -5.5480     XC(G=0):  -0.4306     alpha+bet : -0.1681

 Fermi energy:        -5.5479749467

 k-point     1 :       0.0000    0.0000    0.0000
  band No.  band energies     occupation 
      1     -20.1925      2.00000
      2     -17.5654      2.00000
      3     -14.8602      2.00000
      4     -12.7769      2.00000
      5     -11.9657      2.00000
      6     -10.6549      2.00000
      7      -9.9036      2.00000
      8      -8.9110      2.00000
      9      -7.9614      2.00000
     10      -7.2991      2.00000
     11      -5.8009      2.00000
     12      -1.6824      0.00000
     13      -0.3317      0.00000
     14       0.0638      0.00000
     15       0.1646      0.00000
     16       0.2566      0.00000
     17       0.4125      0.00000
     18       0.4605      0.00000
     19       0.5603      0.00000
     20       0.6913      0.00000
     21       0.8928      0.00000
     22       0.9434      0.00000
     23       1.0079      0.00000
     24       1.1099      0.00000


--------------------------------------------------------------------------------------------------------


 soft charge-density along one line, spin component           1
         0         1         2         3         4         5         6         7         8         9
 total charge-density along one line
 
 pseudopotential strength for first ion, spin component:           1
 10.243   0.019  -0.003  -0.002   0.001  -0.002  -0.002   0.002
  0.019  -0.001   0.000   0.000  -0.000  -0.000  -0.000   0.000
 -0.003   0.000  -4.353  -0.004   0.012  -0.017  -0.001   0.003
 -0.002   0.000  -0.004  -4.353   0.001  -0.001  -0.017   0.000
  0.001  -0.000   0.012   0.001  -4.350   0.003   0.000  -0.016
 -0.002  -0.000  -0.017  -0.001   0.003  -0.772  -0.000   0.000
 -0.002  -0.000  -0.001  -0.017   0.000  -0.000  -0.772   0.000
  0.002   0.000   0.003   0.000  -0.016   0.000   0.000  -0.772
 total augmentation occupancy for first ion, spin component:           1
  1.504  -1.088   0.058   0.048  -0.038   0.029   0.013  -0.020
 -1.088   0.913  -0.119  -0.036   0.087  -0.048  -0.021   0.035
  0.058  -0.119   1.090   0.068  -0.179   0.166   0.022  -0.068
  0.048  -0.036   0.068   1.153   0.000   0.021   0.186   0.003
 -0.038   0.087  -0.179   0.000   1.095  -0.068   0.003   0.159
  0.029  -0.048   0.166   0.021  -0.068   0.029   0.006  -0.017
  0.013  -0.021   0.022   0.186   0.003   0.006   0.032  -0.000
 -0.020   0.035  -0.068   0.003   0.159  -0.017  -0.000   0.026


------------------------ aborting loop because EDIFF is reached ----------------------------------------


    CHARGE:  cpu time      0.1984: real time      0.1991
    FORLOC:  cpu time      0.0339: real time      0.0340
    FORNL :  cpu time      1.0724: real time      1.0775
    STRESS:  cpu time      3.3967: real time      3.4126
    FORHAR:  cpu time      0.1141: real time      0.1146
    MIXING:  cpu time      0.0123: real time      0.0123
    OFIELD:  cpu time      0.0001: real time      0.0001

  FORCE on cell =-STRESS in cart. coord.  units (eV):
  Direction    XX          YY          ZZ          XY          YZ          ZX
  --------------------------------------------------------------------------------------
  Alpha Z     0.62641     0.62641     0.62641
  Ewald     -33.65534   344.51293   620.97061  -219.93176   -29.61851   -57.11863
  Hartree   293.00662   471.70120   699.32296  -103.94200   -21.97010   -51.90029
  E(xc)     -77.53546   -76.30310   -75.83772    -0.72868    -0.02510     0.04822
  Local    -474.66054 -1004.96043 -1511.97559   309.28376    51.93607   111.90618
  n-local   -28.87160   -30.23352   -30.70089     0.82833    -0.40356    -0.07371
  augment    -0.58860    -0.73884    -0.68183     0.07772    -0.00304    -0.01877
  Kinetic   321.86372   295.95757   298.56082    14.32710     1.57043    -5.78010
  Fock        0.00000     0.00000     0.00000     0.00000     0.00000     0.00000
  -------------------------------------------------------------------------------------
  Total       0.18520     0.56222     0.28477    -0.08553     1.48619    -2.93710
  in kB       0.08792     0.26690     0.13519    -0.04060     0.70552    -1.39430
  external pressure =        0.16 kB  Pullay stress =        0.00 kB


 VOLUME and BASIS-vectors are now :
 -----------------------------------------------------------------------------
  energy-cutoff  :      520.00
  volume of cell :     3375.00
      direct lattice vectors                 reciprocal lattice vectors
    15.000000000  0.000000000  0.000000000     0.066666667  0.000000000  0.000000000
     0.000000000 15.000000000  0.000000000     0.000000000  0.066666667  0.000000000
     0.000000000  0.000000000 15.000000000     0.000000000  0.000000000  0.066666667

  length of vectors
    15.000000000 15.000000000 15.000000000     0.066666667  0.066666667  0.066666667


 FORCES acting on ions
    electron-ion (+dipol)            ewald-force                    non-local-force                 convergence-correction
 -----------------------------------------------------------------------------------------------
   -.820E+02 0.861E+02 0.108E+03   0.838E+02 -.873E+02 -.110E+03   -.274E+00 0.658E-01 -.152E+01   -.694E-05 -.307E-04 0.677E-04
   0.702E+02 -.104E+03 0.762E+02   -.715E+02 0.105E+03 -.758E+02   0.783E+00 -.427E+00 0.132E+01   -.296E-04 0.227E-04 0.190E-03
   0.295E+02 -.119E+03 -.669E+02   -.295E+02 0.120E+03 0.665E+02   -.786E+00 -.653E+00 -.184E+01   0.291E-04 -.715E-04 0.696E-04
   -.410E+01 0.102E+03 -.121E+03   0.344E+01 -.103E+03 0.123E+03   0.575E+00 0.628E+00 0.134E+01   -.203E-06 0.167E-03 -.128E-03
   -.842E+01 0.200E+02 0.641E+02   0.868E+01 -.211E+02 -.683E+02   -.133E+00 0.120E+01 0.506E+01   -.465E-06 -.103E-04 -.128E-04
   -.534E+02 0.371E+02 -.134E+02   0.564E+02 -.392E+02 0.160E+02   -.355E+01 0.252E+01 -.330E+01   0.418E-05 -.793E-05 0.254E-04
   0.372E+02 -.425E+02 0.432E+02   -.399E+02 0.453E+02 -.460E+02   0.290E+01 -.316E+01 0.336E+01   -.113E-04 0.117E-04 0.225E-05
   0.133E+02 -.630E+02 -.340E+02   -.142E+02 0.684E+02 0.371E+02   0.109E+01 -.526E+01 -.248E+01   0.130E-04 -.522E-04 -.249E-04
   0.407E+01 0.665E+02 0.803E+01   -.421E+01 -.714E+02 -.110E+02   0.835E-01 0.496E+01 0.300E+01   0.199E-05 0.360E-04 0.831E-05
   -.650E+01 0.162E+02 -.643E+02   0.687E+01 -.166E+02 0.681E+02   -.586E+00 0.830E+00 -.495E+01   0.359E-06 0.959E-05 -.385E-04
 -----------------------------------------------------------------------------------------------
   -.124E+00 -.693E+00 0.861E-02   -.622E-14 -.213E-13 0.142E-13   0.107E+00 0.697E+00 -.825E-02   0.135E-06 0.738E-04 0.159E-03
 
 
 POSITION                                       TOTAL-FORCE (eV/Angst)
 -----------------------------------------------------------------------------------
      7.99200      7.18600      6.28300         1.572928     -1.137812     -2.928070
      7.20100      8.14800      6.70900        -0.454652      0.629229      1.736112
      7.20300      8.19500      8.22200        -0.769275      0.694996     -2.186468
      7.37700      7.01400      8.79000        -0.084776     -1.083831      3.170173
      8.02700      6.92300      5.19100         0.127143      0.132984      0.840385
      8.70500      6.66000      6.95600        -0.524611      0.348427     -0.720494
      6.60200      8.79700      6.03600         0.233124     -0.367135      0.558721
      7.01300      9.15000      8.68900         0.176993      0.161176      0.599078
      7.37400      6.08600      8.22000        -0.056603      0.133699      0.048118
      7.50700      6.84100      9.90500        -0.220271      0.488267     -1.117556
 -----------------------------------------------------------------------------------
    total drift:                               -0.017608      0.003765      0.000521


--------------------------------------------------------------------------------------------------------



  FREE ENERGIE OF THE ION-ELECTRON SYSTEM (eV)
  ---------------------------------------------------
  free  energy   TOTEN  =       -56.17081904 eV

  energy  without entropy=      -56.17081904  energy(sigma->0) =      -56.17081904
 


--------------------------------------------------------------------------------------------------------


    POTLOK:  cpu time      0.5147: real time      0.5171


--------------------------------------------------------------------------------------------------------


 stress matrix after NEB project (eV)
      0.18520     -0.08553     -2.93710
     -0.08553      0.56222      1.48619
     -2.93711      1.48619      0.28477
  FORCES: max atom, RMS     3.513163    1.928184
  FORCE total and by dimension    6.097453    3.170173
  Stress total and by dimension    4.702851    2.937106
     LOOP+:  cpu time     30.6991: real time     30.8523
    4ORBIT:  cpu time      0.0000: real time      0.0000

 total amount of memory used by VASP MPI-rank0   224780. kBytes
=======================================================================

   base      :      30000. kBytes
   nonlr-proj:       1256. kBytes
   fftplans  :     123538. kBytes
   grid      :      67787. kBytes
   one-center:         15. kBytes
   wavefun   :       2184. kBytes
 
  
  
 General timing and accounting informations for this job:
 ========================================================
  
                  Total CPU time used (sec):       37.336
                            User time (sec):       34.115
                          System time (sec):        3.221
                         Elapsed time (sec):       38.979
  
                   Maximum memory used (kb):      558092.
                   Average memory used (kb):          N/A
  
                          Minor page faults:       169414
                          Major page faults:         5442
                 Voluntary context switches:         3109
