 vasp.6.4.2 20Jul23 (build Apr 10 2024 13:39:58) complex                        
  
 executed on             LinuxIFC date 2024.05.18  09:09:23
 running   16 mpi-ranks, on    1 nodes
 distrk:  each k-point on   16 cores,    1 groups
 distr:  one band on NCORE=   2 cores,    8 groups


--------------------------------------------------------------------------------------------------------


 INCAR:
   ISTART = 0
   ISPIN = 1
   LREAL = Auto
   ENCUT = 520
   NPAR = 8
   LPLANE = .TRUE.
   LSCALU = .FALSE.
   NSIM = 4
   LWAVE = .FALSE.
   LCHARG = .FALSE.
   ADDGRID = .TRUE.
   LASPH = .TRUE.
   PREC = Accurate
   ISMEAR = 0
   SIGMA = 0.05
   EDIFF = 1E-06
   NSW = 0
   TEBEG = 300
   TEEND = 700     	
   ISYM = 0
   NWRITE = 2

 POTCAR:   PAW_PBE C 08Apr2002                    
 POTCAR:   PAW_PBE H 15Jun2001                    
 POTCAR:   PAW_PBE C 08Apr2002                    
   VRHFIN =C: s2p2                                                                                  
   LEXCH  = PE                                                                                      
   EATOM  =   147.1560 eV,   10.8157 Ry                                                             
                                                                                                    
   TITEL  = PAW_PBE C 08Apr2002                                                                     
   LULTRA =        F    use ultrasoft PP ?                                                          
   IUNSCR =        0    unscreen: 0-lin 1-nonlin 2-no                                               
   RPACOR =     .000    partial core radius                                                         
   POMASS =   12.011; ZVAL   =    4.000    mass and valenz                                          
   RCORE  =    1.500    outmost cutoff radius                                                       
   RWIGS  =    1.630; RWIGS  =     .863    wigner-seitz radius (au A)                               
   ENMAX  =  400.000; ENMIN  =  300.000 eV                                                          
   ICORE  =        2    local potential                                                             
   LCOR   =        T    correct aug charges                                                         
   LPAW   =        T    paw PP                                                                      
   EAUG   =  644.873                                                                                
   DEXC   =     .000                                                                                
   RMAX   =    2.266    core radius for proj-oper                                                   
   RAUG   =    1.300    factor for augmentation sphere                                              
   RDEP   =    1.501    radius for radial grids                                                     
   RDEPT  =    1.300    core radius for aug-charge                                                  
   QCUT   =   -5.516; QGAM   =   11.032    optimization parameters                                  
                                                                                                    
   Description                                                                                      
     l     E      TYP  RCUT    TYP  RCUT                                                            
     0   .000     23  1.200                                                                         
     0   .000     23  1.200                                                                         
     1   .000     23  1.500                                                                         
     1  2.500     23  1.500                                                                         
     2   .000      7  1.500                                                                         
  local pseudopotential read in
  atomic valenz-charges read in
  non local Contribution for L=           0  read in
    real space projection operators read in
  non local Contribution for L=           0  read in
    real space projection operators read in
  non local Contribution for L=           1  read in
    real space projection operators read in
  non local Contribution for L=           1  read in
    real space projection operators read in
    PAW grid and wavefunctions read in
 
   number of l-projection  operators is LMAX  =           4
   number of lm-projection operators is LMMAX =           8
 
 POTCAR:   PAW_PBE H 15Jun2001                    
   VRHFIN =H: ultrasoft test                                                                        
   LEXCH  = PE                                                                                      
   EATOM  =    12.4884 eV,     .9179 Ry                                                             
                                                                                                    
   TITEL  = PAW_PBE H 15Jun2001                                                                     
   LULTRA =        F    use ultrasoft PP ?                                                          
   IUNSCR =        0    unscreen: 0-lin 1-nonlin 2-no                                               
   RPACOR =     .000    partial core radius                                                         
   POMASS =    1.000; ZVAL   =    1.000    mass and valenz                                          
   RCORE  =    1.100    outmost cutoff radius                                                       
   RWIGS  =     .700; RWIGS  =     .370    wigner-seitz radius (au A)                               
   ENMAX  =  250.000; ENMIN  =  200.000 eV                                                          
   RCLOC  =     .701    cutoff for local pot                                                        
   LCOR   =        T    correct aug charges                                                         
   LPAW   =        T    paw PP                                                                      
   EAUG   =  400.000                                                                                
   RMAX   =    2.174    core radius for proj-oper                                                   
   RAUG   =    1.200    factor for augmentation sphere                                              
   RDEP   =    1.112    radius for radial grids                                                     
   QCUT   =   -5.749; QGAM   =   11.498    optimization parameters                                  
                                                                                                    
   Description                                                                                      
     l     E      TYP  RCUT    TYP  RCUT                                                            
     0   .000     23  1.100                                                                         
     0   .500     23  1.100                                                                         
     1  -.300     23  1.100                                                                         
  local pseudopotential read in
  atomic valenz-charges read in
  non local Contribution for L=           0  read in
    real space projection operators read in
  non local Contribution for L=           0  read in
    real space projection operators read in
  non local Contribution for L=           1  read in
    real space projection operators read in
    PAW grid and wavefunctions read in
 
   number of l-projection  operators is LMAX  =           3
   number of lm-projection operators is LMMAX =           5
 
 Optimization of the real space projectors (new method)

 maximal supplied QI-value         = 25.13
 optimisation between [QCUT,QGAM] = [ 11.56, 23.12] = [ 37.43,149.72] Ry 
 Optimized for a Real-space Cutoff    1.04 Angstroem

   l    n(q)    QCUT    max X(q) W(low)/X(q) W(high)/X(q)  e(spline) 
   0      7    11.561     5.582    0.47E-04    0.94E-04    0.17E-07
   0      7    11.561    69.432    0.20E-03    0.59E-03    0.21E-06
   1      7    11.561     2.780    0.24E-04    0.70E-04    0.44E-07
   1      7    11.561     4.549    0.18E-03    0.25E-03    0.12E-06
 Optimization of the real space projectors (new method)

 maximal supplied QI-value         = 34.20
 optimisation between [QCUT,QGAM] = [ 11.63, 23.26] = [ 37.87,151.49] Ry 
 Optimized for a Real-space Cutoff    1.21 Angstroem

   l    n(q)    QCUT    max X(q) W(low)/X(q) W(high)/X(q)  e(spline) 
   0      8    11.629     4.436    0.19E-04    0.32E-04    0.47E-07
   0      8    11.629    16.131    0.16E-03    0.33E-03    0.21E-06
   1      8    11.629     4.654    0.18E-03    0.16E-03    0.26E-06
 PAW_PBE C 08Apr2002                    :
 energy of atom  1       EATOM= -147.1560
 kinetic energy error for atom=    0.0071 (will be added to EATOM!!)
 PAW_PBE H 15Jun2001                    :
 energy of atom  2       EATOM=  -12.4884
 kinetic energy error for atom=    0.0014 (will be added to EATOM!!)
 
 
 POSCAR:  C  H
  positions in cartesian coordinates
  No initial velocities read in
 exchange correlation table for  LEXCH =        8
   RHO(1)=    0.500       N(1)  =     2000
   RHO(2)=  100.500       N(2)  =     4000

 VTST: version 4.1, (05/19/21)

 CHAIN: initializing optimizer
 
 OPT: Using VASP Dynamics algorithm
 CHAIN: Read ICHAIN            0
 
 POSCAR:  C  H
  positions in cartesian coordinates
  No initial velocities read in
 


--------------------------------------------------------------------------------------------------------


 ion  position               nearest neighbor table
   1  0.519  0.474  0.414-   6 1.08   5 1.10   2 1.29
   2  0.504  0.550  0.453-   7 1.09   1 1.29   3 1.47
   3  0.501  0.550  0.551-   8 1.07   4 1.41   2 1.47
   4  0.479  0.464  0.581-   9 1.05  10 1.13   3 1.41
   5  0.518  0.463  0.342-   1 1.10
   6  0.540  0.418  0.453-   1 1.08
   7  0.490  0.612  0.420-   2 1.09
   8  0.522  0.601  0.595-   3 1.07
   9  0.451  0.419  0.536-   4 1.05
  10  0.476  0.449  0.655-   4 1.13
 

IMPORTANT INFORMATION: All symmetrisations will be switched off!
NOSYMM: (Re-)initialisation of all symmetry stuff for point group C_1.


----------------------------------------------------------------------------------------

                                     Primitive cell                                     

  volume of cell :    3375.0000

  direct lattice vectors                    reciprocal lattice vectors
    15.000000000  0.000000000  0.000000000     0.066666667  0.000000000  0.000000000
     0.000000000 15.000000000  0.000000000     0.000000000  0.066666667  0.000000000
     0.000000000  0.000000000 15.000000000     0.000000000  0.000000000  0.066666667

  length of vectors
    15.000000000 15.000000000 15.000000000     0.066666667  0.066666667  0.066666667

  position of ions in fractional coordinates (direct lattice)
     0.518999990  0.474466674  0.413799985
     0.504200013  0.549533335  0.453066667
     0.500800006  0.550066694  0.550933329
     0.478800011  0.463799985  0.581333351
     0.518400002  0.462666670  0.341533343
     0.540066655  0.418266678  0.453400008
     0.489599991  0.612399991  0.419933319
     0.522200012  0.601333364  0.595333354
     0.451200008  0.418533325  0.535533333
     0.475666682  0.449000009  0.655133311

  ion indices of the primitive-cell ions
   primitive index   ion index
                 1           1
                 2           2
                 3           3
                 4           4
                 5           5
                 6           6
                 7           7
                 8           8
                 9           9
                10          10

----------------------------------------------------------------------------------------

 
 
 KPOINTS: K-Spacing Value to Generate K-Mesh: 1.00

Automatic generation of k-mesh.
 Grid dimensions read from file:
 generate k-points for:    1    1    1

 Generating k-lattice:

  Cartesian coordinates                     Fractional coordinates (reciprocal lattice)
     0.066666667  0.000000000  0.000000000     1.000000000  0.000000000  0.000000000
     0.000000000  0.066666667  0.000000000     0.000000000  1.000000000  0.000000000
     0.000000000  0.000000000  0.066666667     0.000000000  0.000000000  1.000000000

  Length of vectors
     0.066666667  0.066666667  0.066666667

  Shift w.r.t. Gamma in fractional coordinates (k-lattice)
     0.000000000  0.000000000  0.000000000

 
 Subroutine IBZKPT returns following result:
 ===========================================
 
 Found      1 irreducible k-points:
 
 Following reciprocal coordinates:
            Coordinates               Weight
  0.000000  0.000000  0.000000      1.000000
 
 Following cartesian coordinates:
            Coordinates               Weight
  0.000000  0.000000  0.000000      1.000000
 


--------------------------------------------------------------------------------------------------------




 Dimension of arrays:
   k-points           NKPTS =      1   k-points in BZ     NKDIM =      1   number of bands    NBANDS=     24
   number of dos      NEDOS =    301   number of ions     NIONS =     10
   non local maximal  LDIM  =      4   non local SUM 2l+1 LMDIM =      8
   total plane-waves  NPLWV = ******
   max r-space proj   IRMAX =   3145   max aug-charges    IRDMAX=  39494
   dimension x,y,z NGX =   112 NGY =  112 NGZ =  112
   dimension x,y,z NGXF=   224 NGYF=  224 NGZF=  224
   support grid    NGXF=   448 NGYF=  448 NGZF=  448
   ions per type =               4   6
   NGX,Y,Z   is equivalent  to a cutoff of  12.41, 12.41, 12.41 a.u.
   NGXF,Y,Z  is equivalent  to a cutoff of  24.83, 24.83, 24.83 a.u.

 SYSTEM =  unknown system                          
 POSCAR =   C  H                                   

 Startparameter for this run:
   NWRITE =      2    write-flag & timer
   PREC   = accura    normal or accurate (medium, high low for compatibility)
   ISTART =      0    job   : 0-new  1-cont  2-samecut
   ICHARG =      2    charge: 1-file 2-atom 10-const
   ISPIN  =      1    spin polarized calculation?
   LNONCOLLINEAR =      F non collinear calculations
   LSORBIT =      F    spin-orbit coupling
   INIWAV =      1    electr: 0-lowe 1-rand  2-diag
   LASPH  =      T    aspherical Exc in radial PAW
 Electronic Relaxation 1
   ENCUT  =  520.0 eV  38.22 Ry    6.18 a.u.  27.89 27.89 27.89*2*pi/ulx,y,z
   ENINI  =  520.0     initial cutoff
   ENAUG  =  644.9 eV  augmentation charge cutoff
   NELM   =     60;   NELMIN=  2; NELMDL= -5     # of ELM steps 
   EDIFF  = 0.1E-05   stopping-criterion for ELM
   LREAL  =      T    real-space projection
   NLSPLINE    = F    spline interpolate recip. space projectors
   LCOMPAT=      F    compatible to vasp.4.4
   GGA_COMPAT  = T    GGA compatible to vasp.4.4-vasp.4.6
   LMAXPAW     = -100 max onsite density
   LMAXMIX     =    2 max onsite mixed and CHGCAR
   VOSKOWN=      0    Vosko Wilk Nusair interpolation
   ROPT   =   -0.00025  -0.00025
 Ionic relaxation
   EDIFFG = 0.1E-04   stopping-criterion for IOM
   NSW    =      0    number of steps for IOM
   NBLOCK =      1;   KBLOCK =      1    inner block; outer block 
   IBRION =     -1    ionic relax: 0-MD 1-quasi-New 2-CG
   NFREE  =      0    steps in history (QN), initial steepest desc. (CG)
   ISIF   =      2    stress and relaxation
   IWAVPR =     10    prediction:  0-non 1-charg 2-wave 3-comb
   ISYM   =      0    0-nonsym 1-usesym 2-fastsym
   LCORR  =      T    Harris-Foulkes like correction to forces

   POTIM  = 0.5000    time-step for ionic-motion
   TEIN   =    0.0    initial temperature
   TEBEG  =  300.0;   TEEND  = 700.0 temperature during run
   SMASS  =  -3.00    Nose mass-parameter (am)
   estimated Nose-frequenzy (Omega)   =  0.10E-29 period in steps = 0.13E+47 mass=  -0.514E-26a.u.
   SCALEE = 1.0000    scale energy and forces
   NPACO  =    256;   APACO  = 10.0  distance and # of slots for P.C.
   PSTRESS=    0.0 pullay stress

  Mass of Ions in am
   POMASS =  12.01  1.00
  Ionic Valenz
   ZVAL   =   4.00  1.00
  Atomic Wigner-Seitz radii
   RWIGS  =  -1.00 -1.00
  virtual crystal weights 
   VCA    =   1.00  1.00
   NELECT =      22.0000    total number of electrons
   NUPDOWN=      -1.0000    fix difference up-down

 DOS related values:
   EMIN   =  10.00;   EMAX   =-10.00  energy-range for DOS
   EFERMI =   0.00;   METHOD = LEGACY      
   ISMEAR =     0;   SIGMA  =   0.05  broadening in eV -4-tet -1-fermi 0-gaus

 Electronic relaxation 2 (details)
   IALGO  =     38    algorithm
   LDIAG  =      T    sub-space diagonalisation (order eigenvalues)
   LSUBROT=      F    optimize rotation matrix (better conditioning)
   TURBO    =      0    0=normal 1=particle mesh
   IRESTART =      0    0=no restart 2=restart with 2 vectors
   NREBOOT  =      0    no. of reboots
   NMIN     =      0    reboot dimension
   EREF     =   0.00    reference energy to select bands
   IMIX   =      4    mixing-type and parameters
     AMIX     =   0.40;   BMIX     =  1.00
     AMIX_MAG =   1.60;   BMIX_MAG =  1.00
     AMIN     =   0.10
     WC   =   100.;   INIMIX=   1;  MIXPRE=   1;  MAXMIX= -45

 Intra band minimization:
   WEIMIN = 0.0000     energy-eigenvalue tresh-hold
   EBREAK =  0.10E-07  absolut break condition
   DEPER  =   0.30     relativ break condition  

   TIME   =   0.40     timestep for ELM

  volume/ion in A,a.u.               =     337.50      2277.56
  Fermi-wavevector in a.u.,A,eV,Ry     =   0.305814  0.577905  1.272449  0.093522
  Thomas-Fermi vector in A             =   1.179187
 
 Write flags
   LWAVE        =      F    write WAVECAR
   LDOWNSAMPLE  =      F    k-point downsampling of WAVECAR
   LCHARG       =      F    write CHGCAR
   LVTOT        =      F    write LOCPOT, total local potential
   LVHAR        =      F    write LOCPOT, Hartree potential only
   LELF         =      F    write electronic localiz. function (ELF)
   LORBIT       =      0    0 simple, 1 ext, 2 COOP (PROOUT), +10 PAW based schemes


 Dipole corrections
   LMONO  =      F    monopole corrections only (constant potential shift)
   LDIPOL =      F    correct potential (dipole corrections)
   IDIPOL =      0    1-x, 2-y, 3-z, 4-all directions 
   EPSILON=  1.0000000 bulk dielectric constant

 Exchange correlation treatment:
   GGA     =    --    GGA type
   LEXCH   =     8    internal setting for exchange type
   LIBXC   =     F    Libxc                    
   VOSKOWN =     0    Vosko Wilk Nusair interpolation
   LHFCALC =     F    Hartree Fock is set to
   LHFONE  =     F    Hartree Fock one center treatment
   AEXX    =    0.0000 exact exchange contribution

 Linear response parameters
   LEPSILON=     F    determine dielectric tensor
   LRPA    =     F    only Hartree local field effects (RPA)
   LNABLA  =     F    use nabla operator in PAW spheres
   LVEL    =     F    velocity operator in full k-point grid
   CSHIFT  =0.1000    complex shift for real part using Kramers Kronig
   OMEGAMAX=  -1.0    maximum frequency
   DEG_THRESHOLD= 0.2000000E-02 threshold for treating states as degnerate
   RTIME   =   -0.100 relaxation time in fs
  (WPLASMAI=    0.000 imaginary part of plasma frequency in eV, 0.658/RTIME)
   DFIELD  = 0.0000000 0.0000000 0.0000000 field for delta impulse in time
 
  Optional k-point grid parameters
   LKPOINTS_OPT  =     F    use optional k-point grid
   KPOINTS_OPT_MODE=     1    mode for optional k-point grid
 
 Orbital magnetization related:
   ORBITALMAG=     F  switch on orbital magnetization
   LCHIMAG   =     F  perturbation theory with respect to B field
   DQ        =  0.001000  dq finite difference perturbation B field
   LLRAUG    =     F  two centre corrections for induced B field
   LBONE     =     F  B-component reconstruction in AE one-centre
   LVGVCALC  =     T  calculate vGv susceptibility
   LVGVAPPL  =     F  apply vGv susceptibility instead of pGv for G=0

 Random number generation:
   RANDOM_GENERATOR = DEFAULT
   PCG_SEED         = not used


--------------------------------------------------------------------------------------------------------


 Static calculation
 charge density and potential will be updated during run
 non-spin polarized calculation
 Variant of blocked Davidson
 Davidson routine will perform the subspace rotation
 perform sub-space diagonalisation
    after iterative eigenvector-optimisation
 modified Broyden-mixing scheme, WC =      100.0
 initial mixing is a Kerker type mixing with AMIX =  0.4000 and BMIX =      1.0000
 Hartree-type preconditioning will be used
 using additional bands           13
 real space projection scheme for non local part
 calculate Harris-corrections to forces 
   (improved forces if not selfconsistent)
 use gradient corrections 
 use of overlap-Matrix (Vanderbilt PP)
 Gauss-broadening in eV      SIGMA  =   0.05


--------------------------------------------------------------------------------------------------------


  energy-cutoff  :      520.00
  volume of cell :     3375.00
      direct lattice vectors                 reciprocal lattice vectors
    15.000000000  0.000000000  0.000000000     0.066666667  0.000000000  0.000000000
     0.000000000 15.000000000  0.000000000     0.000000000  0.066666667  0.000000000
     0.000000000  0.000000000 15.000000000     0.000000000  0.000000000  0.066666667

  length of vectors
    15.000000000 15.000000000 15.000000000     0.066666667  0.066666667  0.066666667


 
 k-points in units of 2pi/SCALE and weight: K-Spacing Value to Generate K-Mesh: 1.00
   0.00000000  0.00000000  0.00000000       1.000
 
 k-points in reciprocal lattice and weights: K-Spacing Value to Generate K-Mesh: 1.00
   0.00000000  0.00000000  0.00000000       1.000
 
 position of ions in fractional coordinates (direct lattice) 
   0.51899999  0.47446667  0.41379999
   0.50420001  0.54953334  0.45306667
   0.50080001  0.55006669  0.55093333
   0.47880001  0.46379999  0.58133335
   0.51840000  0.46266667  0.34153334
   0.54006666  0.41826668  0.45340001
   0.48959999  0.61239999  0.41993332
   0.52220001  0.60133336  0.59533335
   0.45120001  0.41853333  0.53553333
   0.47566668  0.44900001  0.65513331
 
 position of ions in cartesian coordinates  (Angst):
   7.78499985  7.11700010  6.20699978
   7.56300020  8.24300003  6.79600000
   7.51200008  8.25100040  8.26399994
   7.18200016  6.95699978  8.72000027
   7.77600002  6.94000006  5.12300014
   8.10099983  6.27400017  6.80100012
   7.34399986  9.18599987  6.29899979
   7.83300018  9.02000046  8.93000031
   6.76800013  6.27799988  8.03299999
   7.13500023  6.73500013  9.82699966
 


--------------------------------------------------------------------------------------------------------


 k-point   1 :   0.0000 0.0000 0.0000  plane waves:   90879

 maximum and minimum number of plane-waves per node :     45467    45412

 maximum number of plane-waves:     90879
 maximum index in each direction: 
   IXMAX=   27   IYMAX=   27   IZMAX=   27
   IXMIN=  -27   IYMIN=  -27   IZMIN=  -27


 real space projection operators:
  total allocation   :       1185.34 KBytes
  max/ min on nodes  :        593.18        592.16


 parallel 3D FFT for wavefunctions:
    minimum data exchange during FFTs selected (reduces bandwidth)
 parallel 3D FFT for charge:
    minimum data exchange during FFTs selected (reduces bandwidth)


 total amount of memory used by VASP MPI-rank0   224781. kBytes
=======================================================================

   base      :      30000. kBytes
   nonlr-proj:       1257. kBytes
   fftplans  :     123538. kBytes
   grid      :      67787. kBytes
   one-center:         15. kBytes
   wavefun   :       2184. kBytes
 
     INWAV:  cpu time      0.0000: real time      0.0000
 Broyden mixing: mesh for mixing (old mesh)
   NGX = 55   NGY = 55   NGZ = 55
  (NGX  =224   NGY  =224   NGZ  =224)
  gives a total of 166375 points

 initial charge density was supplied:
 charge density of overlapping atoms calculated
 number of electron      22.0000000 magnetization 
 keeping initial charge density in first step


--------------------------------------------------------------------------------------------------------


 Maximum index for non-local projection operator         1507
 Maximum index for augmentation-charges         2498 (set IRDMAX)


--------------------------------------------------------------------------------------------------------


 First call to EWALD:  gamma=   0.118
 Maximum number of real-space cells 3x 3x 3
 Maximum number of reciprocal cells 3x 3x 3

    FEWALD:  cpu time      0.0014: real time      0.0014


--------------------------------------- Ionic step        1  -------------------------------------------




--------------------------------------- Iteration      1(   1)  ---------------------------------------


    POTLOK:  cpu time      0.3321: real time      0.3340
    SETDIJ:  cpu time      0.1934: real time      0.1942
     EDDAV:  cpu time      0.4202: real time      0.4225
       DOS:  cpu time      0.0003: real time      0.0003
    --------------------------------------------
      LOOP:  cpu time      0.9460: real time      0.9510

 eigenvalue-minimisations  :    64
 total energy-change (2. order) : 0.1071520E+03  (-0.5304674E+03)
 number of electron      22.0000000 magnetization 
 augmentation part       22.0000000 magnetization 

 Free energy of the ion-electron system (eV)
  ---------------------------------------------------
  alpha Z        PSCENC =         0.62641250
  Ewald energy   TEWEN  =       940.42827196
  -Hartree energ DENC   =     -1360.73261855
  -exchange      EXHF   =         0.00000000
  -V(xc)+E(xc)   XCENC  =        67.62230362
  PAW double counting   =       156.01372664     -160.66969168
  entropy T*S    EENTRO =        -0.00081361
  eigenvalues    EBANDS =      -199.65302521
  atomic energy  EATOM  =       663.51739852
  Solvation  Ediel_sol  =         0.00000000
  ---------------------------------------------------
  free energy    TOTEN  =       107.15196420 eV

  energy without entropy =      107.15277781  energy(sigma->0) =      107.15237101


--------------------------------------------------------------------------------------------------------




--------------------------------------- Iteration      1(   2)  ---------------------------------------


     EDDAV:  cpu time      0.4463: real time      0.4488
       DOS:  cpu time      0.0001: real time      0.0001
    --------------------------------------------
      LOOP:  cpu time      0.4464: real time      0.4489

 eigenvalue-minimisations  :    72
 total energy-change (2. order) :-0.1223679E+03  (-0.1204977E+03)
 number of electron      22.0000000 magnetization 
 augmentation part       22.0000000 magnetization 

 Free energy of the ion-electron system (eV)
  ---------------------------------------------------
  alpha Z        PSCENC =         0.62641250
  Ewald energy   TEWEN  =       940.42827196
  -Hartree energ DENC   =     -1360.73261855
  -exchange      EXHF   =         0.00000000
  -V(xc)+E(xc)   XCENC  =        67.62230362
  PAW double counting   =       156.01372664     -160.66969168
  entropy T*S    EENTRO =        -0.00000000
  eigenvalues    EBANDS =      -322.02176920
  atomic energy  EATOM  =       663.51739852
  Solvation  Ediel_sol  =         0.00000000
  ---------------------------------------------------
  free energy    TOTEN  =       -15.21596619 eV

  energy without entropy =      -15.21596619  energy(sigma->0) =      -15.21596619


--------------------------------------------------------------------------------------------------------




--------------------------------------- Iteration      1(   3)  ---------------------------------------


     EDDAV:  cpu time      0.4450: real time      0.4475
       DOS:  cpu time      0.0001: real time      0.0001
    --------------------------------------------
      LOOP:  cpu time      0.4451: real time      0.4476

 eigenvalue-minimisations  :    72
 total energy-change (2. order) :-0.4521308E+02  (-0.4511933E+02)
 number of electron      22.0000000 magnetization 
 augmentation part       22.0000000 magnetization 

 Free energy of the ion-electron system (eV)
  ---------------------------------------------------
  alpha Z        PSCENC =         0.62641250
  Ewald energy   TEWEN  =       940.42827196
  -Hartree energ DENC   =     -1360.73261855
  -exchange      EXHF   =         0.00000000
  -V(xc)+E(xc)   XCENC  =        67.62230362
  PAW double counting   =       156.01372664     -160.66969168
  entropy T*S    EENTRO =        -0.00000000
  eigenvalues    EBANDS =      -367.23485332
  atomic energy  EATOM  =       663.51739852
  Solvation  Ediel_sol  =         0.00000000
  ---------------------------------------------------
  free energy    TOTEN  =       -60.42905030 eV

  energy without entropy =      -60.42905030  energy(sigma->0) =      -60.42905030


--------------------------------------------------------------------------------------------------------




--------------------------------------- Iteration      1(   4)  ---------------------------------------


     EDDAV:  cpu time      0.4466: real time      0.4491
       DOS:  cpu time      0.0001: real time      0.0001
    --------------------------------------------
      LOOP:  cpu time      0.4467: real time      0.4492

 eigenvalue-minimisations  :    72
 total energy-change (2. order) :-0.2478026E+01  (-0.2473192E+01)
 number of electron      22.0000000 magnetization 
 augmentation part       22.0000000 magnetization 

 Free energy of the ion-electron system (eV)
  ---------------------------------------------------
  alpha Z        PSCENC =         0.62641250
  Ewald energy   TEWEN  =       940.42827196
  -Hartree energ DENC   =     -1360.73261855
  -exchange      EXHF   =         0.00000000
  -V(xc)+E(xc)   XCENC  =        67.62230362
  PAW double counting   =       156.01372664     -160.66969168
  entropy T*S    EENTRO =        -0.00000000
  eigenvalues    EBANDS =      -369.71287956
  atomic energy  EATOM  =       663.51739852
  Solvation  Ediel_sol  =         0.00000000
  ---------------------------------------------------
  free energy    TOTEN  =       -62.90707654 eV

  energy without entropy =      -62.90707654  energy(sigma->0) =      -62.90707654


--------------------------------------------------------------------------------------------------------




--------------------------------------- Iteration      1(   5)  ---------------------------------------


     EDDAV:  cpu time      0.3675: real time      0.3696
       DOS:  cpu time      0.0001: real time      0.0001
    CHARGE:  cpu time      0.1974: real time      0.1983
    MIXING:  cpu time      0.0155: real time      0.0156
    --------------------------------------------
      LOOP:  cpu time      0.5806: real time      0.5836

 eigenvalue-minimisations  :    56
 total energy-change (2. order) :-0.2660622E-01  (-0.2659777E-01)
 number of electron      22.0000000 magnetization 
 augmentation part        0.5874866 magnetization 

 Broyden mixing:
  rms(total) = 0.12173E+01    rms(broyden)= 0.12171E+01
  rms(prec ) = 0.14586E+01
  weight for this iteration     100.00

 Free energy of the ion-electron system (eV)
  ---------------------------------------------------
  alpha Z        PSCENC =         0.62641250
  Ewald energy   TEWEN  =       940.42827196
  -Hartree energ DENC   =     -1360.73261855
  -exchange      EXHF   =         0.00000000
  -V(xc)+E(xc)   XCENC  =        67.62230362
  PAW double counting   =       156.01372664     -160.66969168
  entropy T*S    EENTRO =        -0.00000000
  eigenvalues    EBANDS =      -369.73948578
  atomic energy  EATOM  =       663.51739852
  Solvation  Ediel_sol  =         0.00000000
  ---------------------------------------------------
  free energy    TOTEN  =       -62.93368276 eV

  energy without entropy =      -62.93368276  energy(sigma->0) =      -62.93368276


--------------------------------------------------------------------------------------------------------




--------------------------------------- Iteration      1(   6)  ---------------------------------------


    POTLOK:  cpu time      0.3058: real time      0.3075
    SETDIJ:  cpu time      0.1930: real time      0.1938
     EDDAV:  cpu time      0.4068: real time      0.4091
       DOS:  cpu time      0.0001: real time      0.0001
    CHARGE:  cpu time      0.1937: real time      0.1945
    MIXING:  cpu time      0.0153: real time      0.0153
    --------------------------------------------
      LOOP:  cpu time      1.1147: real time      1.1203

 eigenvalue-minimisations  :    64
 total energy-change (2. order) : 0.5437007E+01  (-0.7994692E+00)
 number of electron      22.0000000 magnetization 
 augmentation part        0.5387651 magnetization 

 Broyden mixing:
  rms(total) = 0.58717E+00    rms(broyden)= 0.58714E+00
  rms(prec ) = 0.69628E+00
  weight for this iteration     100.00

 eigenvalues of (default mixing * dielectric matrix)
  average eigenvalue GAMMA=   1.6325
  1.6325

 Free energy of the ion-electron system (eV)
  ---------------------------------------------------
  alpha Z        PSCENC =         0.62641250
  Ewald energy   TEWEN  =       940.42827196
  -Hartree energ DENC   =     -1408.83625434
  -exchange      EXHF   =         0.00000000
  -V(xc)+E(xc)   XCENC  =        70.05091699
  PAW double counting   =       231.93222885     -237.15878302
  entropy T*S    EENTRO =        -0.00000000
  eigenvalues    EBANDS =      -318.05686701
  atomic energy  EATOM  =       663.51739852
  Solvation  Ediel_sol  =         0.00000000
  ---------------------------------------------------
  free energy    TOTEN  =       -57.49667556 eV

  energy without entropy =      -57.49667556  energy(sigma->0) =      -57.49667556


--------------------------------------------------------------------------------------------------------




--------------------------------------- Iteration      1(   7)  ---------------------------------------


    POTLOK:  cpu time      0.3064: real time      0.3080
    SETDIJ:  cpu time      0.1934: real time      0.1942
     EDDAV:  cpu time      0.4117: real time      0.4139
       DOS:  cpu time      0.0001: real time      0.0001
    CHARGE:  cpu time      0.1949: real time      0.1957
    MIXING:  cpu time      0.0148: real time      0.0149
    --------------------------------------------
      LOOP:  cpu time      1.1213: real time      1.1268

 eigenvalue-minimisations  :    64
 total energy-change (2. order) : 0.1294072E+01  (-0.4747469E+00)
 number of electron      22.0000000 magnetization 
 augmentation part        0.5051944 magnetization 

 Broyden mixing:
  rms(total) = 0.22844E+00    rms(broyden)= 0.22837E+00
  rms(prec ) = 0.26252E+00
  weight for this iteration     100.00

 eigenvalues of (default mixing * dielectric matrix)
  average eigenvalue GAMMA=   1.8055
  1.8055  1.8055

 Free energy of the ion-electron system (eV)
  ---------------------------------------------------
  alpha Z        PSCENC =         0.62641250
  Ewald energy   TEWEN  =       940.42827196
  -Hartree energ DENC   =     -1448.61849369
  -exchange      EXHF   =         0.00000000
  -V(xc)+E(xc)   XCENC  =        72.28351971
  PAW double counting   =       297.65648515     -303.16131262
  entropy T*S    EENTRO =        -0.00000000
  eigenvalues    EBANDS =      -278.93488546
  atomic energy  EATOM  =       663.51739852
  Solvation  Ediel_sol  =         0.00000000
  ---------------------------------------------------
  free energy    TOTEN  =       -56.20260393 eV

  energy without entropy =      -56.20260393  energy(sigma->0) =      -56.20260393


--------------------------------------------------------------------------------------------------------




--------------------------------------- Iteration      1(   8)  ---------------------------------------


    POTLOK:  cpu time      0.3103: real time      0.3119
    SETDIJ:  cpu time      0.1932: real time      0.1940
     EDDAV:  cpu time      0.4109: real time      0.4131
       DOS:  cpu time      0.0001: real time      0.0001
    CHARGE:  cpu time      0.1937: real time      0.1945
    MIXING:  cpu time      0.0163: real time      0.0163
    --------------------------------------------
      LOOP:  cpu time      1.1244: real time      1.1299

 eigenvalue-minimisations  :    64
 total energy-change (2. order) : 0.1668678E+00  (-0.2946413E-01)
 number of electron      22.0000000 magnetization 
 augmentation part        0.5064580 magnetization 

 Broyden mixing:
  rms(total) = 0.56604E-01    rms(broyden)= 0.56598E-01
  rms(prec ) = 0.85680E-01
  weight for this iteration     100.00

 eigenvalues of (default mixing * dielectric matrix)
  average eigenvalue GAMMA=   1.6204
  2.3742  0.8959  1.5909

 Free energy of the ion-electron system (eV)
  ---------------------------------------------------
  alpha Z        PSCENC =         0.62641250
  Ewald energy   TEWEN  =       940.42827196
  -Hartree energ DENC   =     -1454.85479698
  -exchange      EXHF   =         0.00000000
  -V(xc)+E(xc)   XCENC  =        72.77945627
  PAW double counting   =       303.48495342     -308.86390168
  entropy T*S    EENTRO =        -0.00000000
  eigenvalues    EBANDS =      -273.15353009
  atomic energy  EATOM  =       663.51739852
  Solvation  Ediel_sol  =         0.00000000
  ---------------------------------------------------
  free energy    TOTEN  =       -56.03573608 eV

  energy without entropy =      -56.03573608  energy(sigma->0) =      -56.03573608


--------------------------------------------------------------------------------------------------------




--------------------------------------- Iteration      1(   9)  ---------------------------------------


    POTLOK:  cpu time      0.3123: real time      0.3140
    SETDIJ:  cpu time      0.1932: real time      0.1940
     EDDAV:  cpu time      0.4474: real time      0.4499
       DOS:  cpu time      0.0001: real time      0.0001
    CHARGE:  cpu time      0.1933: real time      0.1941
    MIXING:  cpu time      0.0153: real time      0.0154
    --------------------------------------------
      LOOP:  cpu time      1.1616: real time      1.1674

 eigenvalue-minimisations  :    72
 total energy-change (2. order) : 0.3397317E-01  (-0.5749831E-02)
 number of electron      22.0000000 magnetization 
 augmentation part        0.5039756 magnetization 

 Broyden mixing:
  rms(total) = 0.25992E-01    rms(broyden)= 0.25989E-01
  rms(prec ) = 0.49594E-01
  weight for this iteration     100.00

 eigenvalues of (default mixing * dielectric matrix)
  average eigenvalue GAMMA=   1.4520
  2.2473  1.5908  0.9850  0.9850

 Free energy of the ion-electron system (eV)
  ---------------------------------------------------
  alpha Z        PSCENC =         0.62641250
  Ewald energy   TEWEN  =       940.42827196
  -Hartree energ DENC   =     -1460.88771054
  -exchange      EXHF   =         0.00000000
  -V(xc)+E(xc)   XCENC  =        73.09718068
  PAW double counting   =       308.91236343     -314.27862507
  entropy T*S    EENTRO =        -0.00000000
  eigenvalues    EBANDS =      -267.41705440
  atomic energy  EATOM  =       663.51739852
  Solvation  Ediel_sol  =         0.00000000
  ---------------------------------------------------
  free energy    TOTEN  =       -56.00176292 eV

  energy without entropy =      -56.00176292  energy(sigma->0) =      -56.00176292


--------------------------------------------------------------------------------------------------------




--------------------------------------- Iteration      1(  10)  ---------------------------------------


    POTLOK:  cpu time      0.3127: real time      0.3144
    SETDIJ:  cpu time      0.1912: real time      0.1920
     EDDAV:  cpu time      0.4459: real time      0.4483
       DOS:  cpu time      0.0001: real time      0.0001
    CHARGE:  cpu time      0.1921: real time      0.1929
    MIXING:  cpu time      0.0159: real time      0.0159
    --------------------------------------------
      LOOP:  cpu time      1.1579: real time      1.1636

 eigenvalue-minimisations  :    72
 total energy-change (2. order) : 0.5639257E-02  (-0.2207804E-02)
 number of electron      22.0000000 magnetization 
 augmentation part        0.5020060 magnetization 

 Broyden mixing:
  rms(total) = 0.18476E-01    rms(broyden)= 0.18472E-01
  rms(prec ) = 0.35848E-01
  weight for this iteration     100.00

 eigenvalues of (default mixing * dielectric matrix)
  average eigenvalue GAMMA=   1.6345
  2.4227  2.4227  1.0285  1.0285  1.2699

 Free energy of the ion-electron system (eV)
  ---------------------------------------------------
  alpha Z        PSCENC =         0.62641250
  Ewald energy   TEWEN  =       940.42827196
  -Hartree energ DENC   =     -1463.88668041
  -exchange      EXHF   =         0.00000000
  -V(xc)+E(xc)   XCENC  =        73.15673725
  PAW double counting   =       308.68729791     -314.06402446
  entropy T*S    EENTRO =        -0.00000000
  eigenvalues    EBANDS =      -264.46153693
  atomic energy  EATOM  =       663.51739852
  Solvation  Ediel_sol  =         0.00000000
  ---------------------------------------------------
  free energy    TOTEN  =       -55.99612366 eV

  energy without entropy =      -55.99612366  energy(sigma->0) =      -55.99612366


--------------------------------------------------------------------------------------------------------




--------------------------------------- Iteration      1(  11)  ---------------------------------------


    POTLOK:  cpu time      0.3120: real time      0.3137
    SETDIJ:  cpu time      0.1919: real time      0.1927
     EDDAV:  cpu time      0.4098: real time      0.4120
       DOS:  cpu time      0.0001: real time      0.0001
    CHARGE:  cpu time      0.1947: real time      0.1955
    MIXING:  cpu time      0.0160: real time      0.0160
    --------------------------------------------
      LOOP:  cpu time      1.1245: real time      1.1300

 eigenvalue-minimisations  :    64
 total energy-change (2. order) : 0.1048112E-01  (-0.6152913E-03)
 number of electron      22.0000000 magnetization 
 augmentation part        0.5018119 magnetization 

 Broyden mixing:
  rms(total) = 0.77300E-02    rms(broyden)= 0.77297E-02
  rms(prec ) = 0.18628E-01
  weight for this iteration     100.00

 eigenvalues of (default mixing * dielectric matrix)
  average eigenvalue GAMMA=   1.7812
  3.4534  2.4969  1.5217  1.0580  1.0784  1.0784

 Free energy of the ion-electron system (eV)
  ---------------------------------------------------
  alpha Z        PSCENC =         0.62641250
  Ewald energy   TEWEN  =       940.42827196
  -Hartree energ DENC   =     -1467.75941329
  -exchange      EXHF   =         0.00000000
  -V(xc)+E(xc)   XCENC  =        73.25691615
  PAW double counting   =       307.32203940     -312.68180432
  entropy T*S    EENTRO =        -0.00000000
  eigenvalues    EBANDS =      -260.69546346
  atomic energy  EATOM  =       663.51739852
  Solvation  Ediel_sol  =         0.00000000
  ---------------------------------------------------
  free energy    TOTEN  =       -55.98564254 eV

  energy without entropy =      -55.98564254  energy(sigma->0) =      -55.98564254


--------------------------------------------------------------------------------------------------------




--------------------------------------- Iteration      1(  12)  ---------------------------------------


    POTLOK:  cpu time      0.3093: real time      0.3110
    SETDIJ:  cpu time      0.1923: real time      0.1931
     EDDAV:  cpu time      0.4064: real time      0.4087
       DOS:  cpu time      0.0002: real time      0.0002
    CHARGE:  cpu time      0.1935: real time      0.1943
    MIXING:  cpu time      0.0154: real time      0.0155
    --------------------------------------------
      LOOP:  cpu time      1.1171: real time      1.1228

 eigenvalue-minimisations  :    64
 total energy-change (2. order) :-0.4210185E-03  (-0.2889874E-03)
 number of electron      22.0000000 magnetization 
 augmentation part        0.5014236 magnetization 

 Broyden mixing:
  rms(total) = 0.58794E-02    rms(broyden)= 0.58792E-02
  rms(prec ) = 0.11355E-01
  weight for this iteration     100.00

 eigenvalues of (default mixing * dielectric matrix)
  average eigenvalue GAMMA=   1.8651
  4.1521  2.3012  2.0734  1.5051  0.9842  1.0198  1.0198

 Free energy of the ion-electron system (eV)
  ---------------------------------------------------
  alpha Z        PSCENC =         0.62641250
  Ewald energy   TEWEN  =       940.42827196
  -Hartree energ DENC   =     -1470.29635800
  -exchange      EXHF   =         0.00000000
  -V(xc)+E(xc)   XCENC  =        73.30318743
  PAW double counting   =       306.74776071     -312.10831235
  entropy T*S    EENTRO =        -0.00000000
  eigenvalues    EBANDS =      -258.20442433
  atomic energy  EATOM  =       663.51739852
  Solvation  Ediel_sol  =         0.00000000
  ---------------------------------------------------
  free energy    TOTEN  =       -55.98606356 eV

  energy without entropy =      -55.98606356  energy(sigma->0) =      -55.98606356


--------------------------------------------------------------------------------------------------------




--------------------------------------- Iteration      1(  13)  ---------------------------------------


    POTLOK:  cpu time      0.3079: real time      0.3096
    SETDIJ:  cpu time      0.1929: real time      0.1937
     EDDAV:  cpu time      0.3651: real time      0.3671
       DOS:  cpu time      0.0001: real time      0.0001
    CHARGE:  cpu time      0.1918: real time      0.1926
    MIXING:  cpu time      0.0178: real time      0.0179
    --------------------------------------------
      LOOP:  cpu time      1.0756: real time      1.0810

 eigenvalue-minimisations  :    56
 total energy-change (2. order) :-0.9589985E-02  (-0.1940074E-03)
 number of electron      22.0000000 magnetization 
 augmentation part        0.5014916 magnetization 

 Broyden mixing:
  rms(total) = 0.34346E-02    rms(broyden)= 0.34343E-02
  rms(prec ) = 0.69540E-02
  weight for this iteration     100.00

 eigenvalues of (default mixing * dielectric matrix)
  average eigenvalue GAMMA=   1.9863
  5.0660  2.7295  2.1351  1.4925  1.4925  0.9544  1.0101  1.0101

 Free energy of the ion-electron system (eV)
  ---------------------------------------------------
  alpha Z        PSCENC =         0.62641250
  Ewald energy   TEWEN  =       940.42827196
  -Hartree energ DENC   =     -1470.68920144
  -exchange      EXHF   =         0.00000000
  -V(xc)+E(xc)   XCENC  =        73.29700112
  PAW double counting   =       306.77754544     -312.13709687
  entropy T*S    EENTRO =        -0.00000000
  eigenvalues    EBANDS =      -257.81598478
  atomic energy  EATOM  =       663.51739852
  Solvation  Ediel_sol  =         0.00000000
  ---------------------------------------------------
  free energy    TOTEN  =       -55.99565354 eV

  energy without entropy =      -55.99565354  energy(sigma->0) =      -55.99565354


--------------------------------------------------------------------------------------------------------




--------------------------------------- Iteration      1(  14)  ---------------------------------------


    POTLOK:  cpu time      0.3082: real time      0.3098
    SETDIJ:  cpu time      0.1905: real time      0.1913
     EDDAV:  cpu time      0.4084: real time      0.4107
       DOS:  cpu time      0.0001: real time      0.0001
    CHARGE:  cpu time      0.1928: real time      0.1936
    MIXING:  cpu time      0.0171: real time      0.0171
    --------------------------------------------
      LOOP:  cpu time      1.1171: real time      1.1227

 eigenvalue-minimisations  :    64
 total energy-change (2. order) :-0.5770554E-02  (-0.9228243E-04)
 number of electron      22.0000000 magnetization 
 augmentation part        0.5013149 magnetization 

 Broyden mixing:
  rms(total) = 0.19888E-02    rms(broyden)= 0.19887E-02
  rms(prec ) = 0.39430E-02
  weight for this iteration     100.00

 eigenvalues of (default mixing * dielectric matrix)
  average eigenvalue GAMMA=   2.1260
  6.0404  3.2668  2.2123  2.1038  1.3054  1.3054  0.9966  0.9966  0.9071

 Free energy of the ion-electron system (eV)
  ---------------------------------------------------
  alpha Z        PSCENC =         0.62641250
  Ewald energy   TEWEN  =       940.42827196
  -Hartree energ DENC   =     -1471.24246878
  -exchange      EXHF   =         0.00000000
  -V(xc)+E(xc)   XCENC  =        73.29340650
  PAW double counting   =       306.77075185     -312.13204524
  entropy T*S    EENTRO =        -0.00000000
  eigenvalues    EBANDS =      -257.26315140
  atomic energy  EATOM  =       663.51739852
  Solvation  Ediel_sol  =         0.00000000
  ---------------------------------------------------
  free energy    TOTEN  =       -56.00142410 eV

  energy without entropy =      -56.00142410  energy(sigma->0) =      -56.00142410


--------------------------------------------------------------------------------------------------------




--------------------------------------- Iteration      1(  15)  ---------------------------------------


    POTLOK:  cpu time      0.3015: real time      0.3031
    SETDIJ:  cpu time      0.1905: real time      0.1913
     EDDAV:  cpu time      0.4068: real time      0.4090
       DOS:  cpu time      0.0002: real time      0.0002
    CHARGE:  cpu time      0.1924: real time      0.1932
    MIXING:  cpu time      0.0158: real time      0.0158
    --------------------------------------------
      LOOP:  cpu time      1.1071: real time      1.1126

 eigenvalue-minimisations  :    64
 total energy-change (2. order) :-0.4487974E-02  (-0.7446526E-04)
 number of electron      22.0000000 magnetization 
 augmentation part        0.5013464 magnetization 

 Broyden mixing:
  rms(total) = 0.12025E-02    rms(broyden)= 0.12024E-02
  rms(prec ) = 0.20480E-02
  weight for this iteration     100.00

 eigenvalues of (default mixing * dielectric matrix)
  average eigenvalue GAMMA=   2.1515
  6.5219  3.8111  2.4227  1.7718  1.5623  1.5623  1.0054  1.0054  0.9757  0.8763

 Free energy of the ion-electron system (eV)
  ---------------------------------------------------
  alpha Z        PSCENC =         0.62641250
  Ewald energy   TEWEN  =       940.42827196
  -Hartree energ DENC   =     -1471.18780723
  -exchange      EXHF   =         0.00000000
  -V(xc)+E(xc)   XCENC  =        73.28048027
  PAW double counting   =       306.76011729     -312.11995105
  entropy T*S    EENTRO =        -0.00000000
  eigenvalues    EBANDS =      -257.31083433
  atomic energy  EATOM  =       663.51739852
  Solvation  Ediel_sol  =         0.00000000
  ---------------------------------------------------
  free energy    TOTEN  =       -56.00591207 eV

  energy without entropy =      -56.00591207  energy(sigma->0) =      -56.00591207


--------------------------------------------------------------------------------------------------------




--------------------------------------- Iteration      1(  16)  ---------------------------------------


    POTLOK:  cpu time      0.3004: real time      0.3020
    SETDIJ:  cpu time      0.1902: real time      0.1909
     EDDAV:  cpu time      0.4065: real time      0.4087
       DOS:  cpu time      0.0001: real time      0.0001
    CHARGE:  cpu time      0.1929: real time      0.1936
    MIXING:  cpu time      0.0155: real time      0.0155
    --------------------------------------------
      LOOP:  cpu time      1.1055: real time      1.1109

 eigenvalue-minimisations  :    64
 total energy-change (2. order) :-0.1073135E-02  (-0.1058284E-04)
 number of electron      22.0000000 magnetization 
 augmentation part        0.5013039 magnetization 

 Broyden mixing:
  rms(total) = 0.91383E-03    rms(broyden)= 0.91370E-03
  rms(prec ) = 0.13989E-02
  weight for this iteration     100.00

 eigenvalues of (default mixing * dielectric matrix)
  average eigenvalue GAMMA=   2.2124
  7.4613  4.2034  2.3616  2.2649  1.7170  1.4479  1.0137  1.0137  1.0616  0.8955
  0.8955

 Free energy of the ion-electron system (eV)
  ---------------------------------------------------
  alpha Z        PSCENC =         0.62641250
  Ewald energy   TEWEN  =       940.42827196
  -Hartree energ DENC   =     -1471.25217941
  -exchange      EXHF   =         0.00000000
  -V(xc)+E(xc)   XCENC  =        73.28118507
  PAW double counting   =       306.81604426     -312.17588797
  entropy T*S    EENTRO =        -0.00000000
  eigenvalues    EBANDS =      -257.24823014
  atomic energy  EATOM  =       663.51739852
  Solvation  Ediel_sol  =         0.00000000
  ---------------------------------------------------
  free energy    TOTEN  =       -56.00698521 eV

  energy without entropy =      -56.00698521  energy(sigma->0) =      -56.00698521


--------------------------------------------------------------------------------------------------------




--------------------------------------- Iteration      1(  17)  ---------------------------------------


    POTLOK:  cpu time      0.2987: real time      0.3003
    SETDIJ:  cpu time      0.1895: real time      0.1903
     EDDAV:  cpu time      0.4091: real time      0.4113
       DOS:  cpu time      0.0001: real time      0.0001
    CHARGE:  cpu time      0.1938: real time      0.1946
    MIXING:  cpu time      0.0170: real time      0.0171
    --------------------------------------------
      LOOP:  cpu time      1.1082: real time      1.1138

 eigenvalue-minimisations  :    64
 total energy-change (2. order) :-0.6716187E-03  (-0.4598703E-05)
 number of electron      22.0000000 magnetization 
 augmentation part        0.5012742 magnetization 

 Broyden mixing:
  rms(total) = 0.41427E-03    rms(broyden)= 0.41415E-03
  rms(prec ) = 0.75231E-03
  weight for this iteration     100.00

 eigenvalues of (default mixing * dielectric matrix)
  average eigenvalue GAMMA=   2.2280
  7.7932  4.6058  2.6418  2.3122  1.5160  1.5160  1.4390  1.0118  1.0118  0.9092
  0.9899  0.9899

 Free energy of the ion-electron system (eV)
  ---------------------------------------------------
  alpha Z        PSCENC =         0.62641250
  Ewald energy   TEWEN  =       940.42827196
  -Hartree energ DENC   =     -1471.27782118
  -exchange      EXHF   =         0.00000000
  -V(xc)+E(xc)   XCENC  =        73.27997042
  PAW double counting   =       306.80365456     -312.16378203
  entropy T*S    EENTRO =        -0.00000000
  eigenvalues    EBANDS =      -257.22176158
  atomic energy  EATOM  =       663.51739852
  Solvation  Ediel_sol  =         0.00000000
  ---------------------------------------------------
  free energy    TOTEN  =       -56.00765683 eV

  energy without entropy =      -56.00765683  energy(sigma->0) =      -56.00765683


--------------------------------------------------------------------------------------------------------




--------------------------------------- Iteration      1(  18)  ---------------------------------------


    POTLOK:  cpu time      0.2964: real time      0.2980
    SETDIJ:  cpu time      0.1905: real time      0.1913
     EDDAV:  cpu time      0.4462: real time      0.4487
       DOS:  cpu time      0.0001: real time      0.0001
    CHARGE:  cpu time      0.1934: real time      0.1942
    MIXING:  cpu time      0.0170: real time      0.0171
    --------------------------------------------
      LOOP:  cpu time      1.1436: real time      1.1494

 eigenvalue-minimisations  :    72
 total energy-change (2. order) :-0.3151458E-03  (-0.1771446E-05)
 number of electron      22.0000000 magnetization 
 augmentation part        0.5012565 magnetization 

 Broyden mixing:
  rms(total) = 0.27581E-03    rms(broyden)= 0.27572E-03
  rms(prec ) = 0.47607E-03
  weight for this iteration     100.00

 eigenvalues of (default mixing * dielectric matrix)
  average eigenvalue GAMMA=   2.3075
  8.5344  5.0513  3.0290  2.4866  2.0811  1.3930  1.3930  1.1013  1.1013  0.9876
  0.9876  0.8970  0.9538

 Free energy of the ion-electron system (eV)
  ---------------------------------------------------
  alpha Z        PSCENC =         0.62641250
  Ewald energy   TEWEN  =       940.42827196
  -Hartree energ DENC   =     -1471.29760803
  -exchange      EXHF   =         0.00000000
  -V(xc)+E(xc)   XCENC  =        73.28028631
  PAW double counting   =       306.80059863     -312.16066723
  entropy T*S    EENTRO =        -0.00000000
  eigenvalues    EBANDS =      -257.20266464
  atomic energy  EATOM  =       663.51739852
  Solvation  Ediel_sol  =         0.00000000
  ---------------------------------------------------
  free energy    TOTEN  =       -56.00797197 eV

  energy without entropy =      -56.00797197  energy(sigma->0) =      -56.00797197


--------------------------------------------------------------------------------------------------------




--------------------------------------- Iteration      1(  19)  ---------------------------------------


    POTLOK:  cpu time      0.3008: real time      0.3025
    SETDIJ:  cpu time      0.1898: real time      0.1906
     EDDAV:  cpu time      0.3654: real time      0.3673
       DOS:  cpu time      0.0002: real time      0.0002
    CHARGE:  cpu time      0.1943: real time      0.1950
    MIXING:  cpu time      0.0166: real time      0.0167
    --------------------------------------------
      LOOP:  cpu time      1.0671: real time      1.0723

 eigenvalue-minimisations  :    56
 total energy-change (2. order) :-0.1883563E-03  (-0.9376757E-06)
 number of electron      22.0000000 magnetization 
 augmentation part        0.5012604 magnetization 

 Broyden mixing:
  rms(total) = 0.15062E-03    rms(broyden)= 0.15052E-03
  rms(prec ) = 0.25038E-03
  weight for this iteration     100.00

 eigenvalues of (default mixing * dielectric matrix)
  average eigenvalue GAMMA=   2.2653
  8.4944  5.2531  3.2311  2.4078  2.0604  1.5218  1.5218  1.1759  1.1759  1.0101
  1.0101  0.9928  0.9292  0.9292

 Free energy of the ion-electron system (eV)
  ---------------------------------------------------
  alpha Z        PSCENC =         0.62641250
  Ewald energy   TEWEN  =       940.42827196
  -Hartree energ DENC   =     -1471.29261635
  -exchange      EXHF   =         0.00000000
  -V(xc)+E(xc)   XCENC  =        73.27970465
  PAW double counting   =       306.78151614     -312.14162464
  entropy T*S    EENTRO =        -0.00000000
  eigenvalues    EBANDS =      -257.20722311
  atomic energy  EATOM  =       663.51739852
  Solvation  Ediel_sol  =         0.00000000
  ---------------------------------------------------
  free energy    TOTEN  =       -56.00816033 eV

  energy without entropy =      -56.00816033  energy(sigma->0) =      -56.00816033


--------------------------------------------------------------------------------------------------------




--------------------------------------- Iteration      1(  20)  ---------------------------------------


    POTLOK:  cpu time      0.2965: real time      0.2981
    SETDIJ:  cpu time      0.1898: real time      0.1906
     EDDAV:  cpu time      0.4083: real time      0.4105
       DOS:  cpu time      0.0001: real time      0.0001
    CHARGE:  cpu time      0.1932: real time      0.1939
    MIXING:  cpu time      0.0169: real time      0.0170
    --------------------------------------------
      LOOP:  cpu time      1.1049: real time      1.1103

 eigenvalue-minimisations  :    64
 total energy-change (2. order) :-0.5087655E-04  (-0.1172724E-06)
 number of electron      22.0000000 magnetization 
 augmentation part        0.5012627 magnetization 

 Broyden mixing:
  rms(total) = 0.72373E-04    rms(broyden)= 0.72184E-04
  rms(prec ) = 0.14522E-03
  weight for this iteration     100.00

 eigenvalues of (default mixing * dielectric matrix)
  average eigenvalue GAMMA=   2.3476
  8.8620  5.6844  3.8404  2.6911  2.3676  1.9649  1.4906  1.2371  1.0996  1.0996
  0.9969  0.9969  1.0453  0.8893  0.9488

 Free energy of the ion-electron system (eV)
  ---------------------------------------------------
  alpha Z        PSCENC =         0.62641250
  Ewald energy   TEWEN  =       940.42827196
  -Hartree energ DENC   =     -1471.29940859
  -exchange      EXHF   =         0.00000000
  -V(xc)+E(xc)   XCENC  =        73.27987223
  PAW double counting   =       306.78393350     -312.14398877
  entropy T*S    EENTRO =        -0.00000000
  eigenvalues    EBANDS =      -257.20070256
  atomic energy  EATOM  =       663.51739852
  Solvation  Ediel_sol  =         0.00000000
  ---------------------------------------------------
  free energy    TOTEN  =       -56.00821120 eV

  energy without entropy =      -56.00821120  energy(sigma->0) =      -56.00821120


--------------------------------------------------------------------------------------------------------




--------------------------------------- Iteration      1(  21)  ---------------------------------------


    POTLOK:  cpu time      0.3039: real time      0.3055
    SETDIJ:  cpu time      0.1895: real time      0.1903
     EDDAV:  cpu time      0.3682: real time      0.3702
       DOS:  cpu time      0.0001: real time      0.0001
    CHARGE:  cpu time      0.1938: real time      0.1946
    MIXING:  cpu time      0.0157: real time      0.0158
    --------------------------------------------
      LOOP:  cpu time      1.0712: real time      1.0766

 eigenvalue-minimisations  :    56
 total energy-change (2. order) :-0.3872276E-04  (-0.6715565E-07)
 number of electron      22.0000000 magnetization 
 augmentation part        0.5012643 magnetization 

 Broyden mixing:
  rms(total) = 0.59652E-04    rms(broyden)= 0.59429E-04
  rms(prec ) = 0.87882E-04
  weight for this iteration     100.00

 eigenvalues of (default mixing * dielectric matrix)
  average eigenvalue GAMMA=   2.3394
  8.9302  5.8431  4.1371  2.7993  2.3860  2.0181  1.5047  1.5047  1.2163  1.2163
  1.0079  1.0079  1.0199  1.0199  0.9098  0.9098

 Free energy of the ion-electron system (eV)
  ---------------------------------------------------
  alpha Z        PSCENC =         0.62641250
  Ewald energy   TEWEN  =       940.42827196
  -Hartree energ DENC   =     -1471.29859392
  -exchange      EXHF   =         0.00000000
  -V(xc)+E(xc)   XCENC  =        73.27963647
  PAW double counting   =       306.78412610     -312.14419297
  entropy T*S    EENTRO =        -0.00000000
  eigenvalues    EBANDS =      -257.20130859
  atomic energy  EATOM  =       663.51739852
  Solvation  Ediel_sol  =         0.00000000
  ---------------------------------------------------
  free energy    TOTEN  =       -56.00824993 eV

  energy without entropy =      -56.00824993  energy(sigma->0) =      -56.00824993


--------------------------------------------------------------------------------------------------------




--------------------------------------- Iteration      1(  22)  ---------------------------------------


    POTLOK:  cpu time      0.3084: real time      0.3100
    SETDIJ:  cpu time      0.1903: real time      0.1911
     EDDAV:  cpu time      0.4079: real time      0.4100
       DOS:  cpu time      0.0002: real time      0.0002
    CHARGE:  cpu time      0.1940: real time      0.1947
    MIXING:  cpu time      0.0175: real time      0.0176
    --------------------------------------------
      LOOP:  cpu time      1.1182: real time      1.1236

 eigenvalue-minimisations  :    64
 total energy-change (2. order) :-0.1103876E-04  (-0.1473681E-07)
 number of electron      22.0000000 magnetization 
 augmentation part        0.5012648 magnetization 

 Broyden mixing:
  rms(total) = 0.28070E-04    rms(broyden)= 0.27602E-04
  rms(prec ) = 0.43511E-04
  weight for this iteration     100.00

 eigenvalues of (default mixing * dielectric matrix)
  average eigenvalue GAMMA=   2.4005
  9.0126  6.3232  4.5834  3.2328  2.5676  2.1076  2.1076  1.4612  1.1963  1.1963
  1.1024  1.1024  0.9936  0.9936  1.0185  0.9049  0.9049

 Free energy of the ion-electron system (eV)
  ---------------------------------------------------
  alpha Z        PSCENC =         0.62641250
  Ewald energy   TEWEN  =       940.42827196
  -Hartree energ DENC   =     -1471.30080604
  -exchange      EXHF   =         0.00000000
  -V(xc)+E(xc)   XCENC  =        73.27965776
  PAW double counting   =       306.78444025     -312.14449922
  entropy T*S    EENTRO =        -0.00000000
  eigenvalues    EBANDS =      -257.19913669
  atomic energy  EATOM  =       663.51739852
  Solvation  Ediel_sol  =         0.00000000
  ---------------------------------------------------
  free energy    TOTEN  =       -56.00826097 eV

  energy without entropy =      -56.00826097  energy(sigma->0) =      -56.00826097


--------------------------------------------------------------------------------------------------------




--------------------------------------- Iteration      1(  23)  ---------------------------------------


    POTLOK:  cpu time      0.3084: real time      0.3101
    SETDIJ:  cpu time      0.1900: real time      0.1908
     EDDAV:  cpu time      0.3682: real time      0.3702
       DOS:  cpu time      0.0001: real time      0.0001
    CHARGE:  cpu time      0.1934: real time      0.1942
    MIXING:  cpu time      0.0173: real time      0.0173
    --------------------------------------------
      LOOP:  cpu time      1.0773: real time      1.0827

 eigenvalue-minimisations  :    56
 total energy-change (2. order) :-0.4825161E-05  (-0.9826838E-08)
 number of electron      22.0000000 magnetization 
 augmentation part        0.5012641 magnetization 

 Broyden mixing:
  rms(total) = 0.24531E-04    rms(broyden)= 0.23993E-04
  rms(prec ) = 0.31868E-04
  weight for this iteration     100.00

 eigenvalues of (default mixing * dielectric matrix)
  average eigenvalue GAMMA=   2.3834
  9.1175  6.4632  4.8450  3.2381  2.4529  2.4529  1.9025  1.6028  1.2755  1.2755
  1.3648  0.9956  0.9956  1.0426  1.0426  1.0050  0.8968  0.9315

 Free energy of the ion-electron system (eV)
  ---------------------------------------------------
  alpha Z        PSCENC =         0.62641250
  Ewald energy   TEWEN  =       940.42827196
  -Hartree energ DENC   =     -1471.30219685
  -exchange      EXHF   =         0.00000000
  -V(xc)+E(xc)   XCENC  =        73.27969257
  PAW double counting   =       306.78632255     -312.14639571
  entropy T*S    EENTRO =        -0.00000000
  eigenvalues    EBANDS =      -257.19777134
  atomic energy  EATOM  =       663.51739852
  Solvation  Ediel_sol  =         0.00000000
  ---------------------------------------------------
  free energy    TOTEN  =       -56.00826579 eV

  energy without entropy =      -56.00826579  energy(sigma->0) =      -56.00826579


--------------------------------------------------------------------------------------------------------




--------------------------------------- Iteration      1(  24)  ---------------------------------------


    POTLOK:  cpu time      0.3070: real time      0.3086
    SETDIJ:  cpu time      0.1898: real time      0.1906
     EDDAV:  cpu time      0.3672: real time      0.3692
       DOS:  cpu time      0.0002: real time      0.0002
    CHARGE:  cpu time      0.1937: real time      0.1944
    MIXING:  cpu time      0.0186: real time      0.0186
    --------------------------------------------
      LOOP:  cpu time      1.0763: real time      1.0816

 eigenvalue-minimisations  :    56
 total energy-change (2. order) :-0.1439820E-05  (-0.2664851E-08)
 number of electron      22.0000000 magnetization 
 augmentation part        0.5012638 magnetization 

 Broyden mixing:
  rms(total) = 0.10853E-04    rms(broyden)= 0.95811E-05
  rms(prec ) = 0.15069E-04
  weight for this iteration     100.00
  WARNING: grid for Broyden might be to small

 eigenvalues of (default mixing * dielectric matrix)
  average eigenvalue GAMMA=   2.4110
  9.1655  6.7735  5.0935  3.6091  2.7113  2.4179  1.9609  1.9609  1.3239  1.3239
  1.4067  1.0896  1.0896  0.9946  0.9946  1.0747  0.9053  0.9230  0.9904

 Free energy of the ion-electron system (eV)
  ---------------------------------------------------
  alpha Z        PSCENC =         0.62641250
  Ewald energy   TEWEN  =       940.42827196
  -Hartree energ DENC   =     -1471.30254169
  -exchange      EXHF   =         0.00000000
  -V(xc)+E(xc)   XCENC  =        73.27968510
  PAW double counting   =       306.78540244     -312.14547970
  entropy T*S    EENTRO =        -0.00000000
  eigenvalues    EBANDS =      -257.19741637
  atomic energy  EATOM  =       663.51739852
  Solvation  Ediel_sol  =         0.00000000
  ---------------------------------------------------
  free energy    TOTEN  =       -56.00826723 eV

  energy without entropy =      -56.00826723  energy(sigma->0) =      -56.00826723


--------------------------------------------------------------------------------------------------------




--------------------------------------- Iteration      1(  25)  ---------------------------------------


    POTLOK:  cpu time      0.3122: real time      0.3139
    SETDIJ:  cpu time      0.1890: real time      0.1897
     EDDAV:  cpu time      0.3664: real time      0.3685
       DOS:  cpu time      0.0001: real time      0.0001
    --------------------------------------------
      LOOP:  cpu time      0.8677: real time      0.8721

 eigenvalue-minimisations  :    56
 total energy-change (2. order) :-0.8882976E-06  (-0.2137226E-08)
 number of electron      22.0000000 magnetization 
 augmentation part        0.5012638 magnetization 

 Free energy of the ion-electron system (eV)
  ---------------------------------------------------
  alpha Z        PSCENC =         0.62641250
  Ewald energy   TEWEN  =       940.42827196
  -Hartree energ DENC   =     -1471.30258356
  -exchange      EXHF   =         0.00000000
  -V(xc)+E(xc)   XCENC  =        73.27968685
  PAW double counting   =       306.78531839     -312.14539352
  entropy T*S    EENTRO =        -0.00000000
  eigenvalues    EBANDS =      -257.19737926
  atomic energy  EATOM  =       663.51739852
  Solvation  Ediel_sol  =         0.00000000
  ---------------------------------------------------
  free energy    TOTEN  =       -56.00826812 eV

  energy without entropy =      -56.00826812  energy(sigma->0) =      -56.00826812


--------------------------------------------------------------------------------------------------------




 average (electrostatic) potential at core
  the test charge radii are     0.6991  0.5201
  (the norm of the test charge is              1.0000)
       1 -58.3237       2 -58.6917       3 -58.7941       4 -58.4726       5 -41.7826
       6 -41.9772       7 -42.0505       8 -42.4783       9 -42.3516      10 -41.5116
 
 
 
 E-fermi :  -5.3291     XC(G=0):  -0.4293     alpha+bet : -0.1681

 Fermi energy:        -5.3291111233

 k-point     1 :       0.0000    0.0000    0.0000
  band No.  band energies     occupation 
      1     -20.2624      2.00000
      2     -17.4378      2.00000
      3     -15.1772      2.00000
      4     -12.9255      2.00000
      5     -12.0941      2.00000
      6     -10.6903      2.00000
      7      -9.8035      2.00000
      8      -9.0014      2.00000
      9      -8.1281      2.00000
     10      -7.4648      2.00000
     11      -5.6134      2.00000
     12      -2.0186      0.00000
     13      -0.3227      0.00000
     14       0.1171      0.00000
     15       0.2281      0.00000
     16       0.2785      0.00000
     17       0.4155      0.00000
     18       0.4659      0.00000
     19       0.5648      0.00000
     20       0.6855      0.00000
     21       0.9153      0.00000
     22       0.9579      0.00000
     23       1.0130      0.00000
     24       1.1250      0.00000


--------------------------------------------------------------------------------------------------------


 soft charge-density along one line, spin component           1
         0         1         2         3         4         5         6         7         8         9
 total charge-density along one line
 
 pseudopotential strength for first ion, spin component:           1
 10.244   0.019  -0.002  -0.002  -0.001  -0.003  -0.002   0.001
  0.019  -0.001   0.000   0.000   0.000  -0.000  -0.000   0.000
 -0.002   0.000  -4.356  -0.006   0.006  -0.021  -0.001   0.002
 -0.002   0.000  -0.006  -4.349   0.000  -0.001  -0.020  -0.000
 -0.001   0.000   0.006   0.000  -4.332   0.002  -0.000  -0.016
 -0.003  -0.000  -0.021  -0.001   0.002  -0.773  -0.000   0.000
 -0.002  -0.000  -0.001  -0.020  -0.000  -0.000  -0.772   0.000
  0.001   0.000   0.002  -0.000  -0.016   0.000   0.000  -0.772
 total augmentation occupancy for first ion, spin component:           1
  1.513  -1.167   0.062   0.059  -0.004   0.032   0.022  -0.003
 -1.167   1.016  -0.139  -0.082   0.013  -0.055  -0.036   0.006
  0.062  -0.139   1.263   0.061  -0.106   0.228   0.024  -0.036
  0.059  -0.082   0.061   1.209   0.017   0.024   0.206   0.004
 -0.004   0.013  -0.106   0.017   0.963  -0.035   0.004   0.106
  0.032  -0.055   0.228   0.024  -0.035   0.045   0.007  -0.009
  0.022  -0.036   0.024   0.206   0.004   0.007   0.038   0.000
 -0.003   0.006  -0.036   0.004   0.106  -0.009   0.000   0.013


------------------------ aborting loop because EDIFF is reached ----------------------------------------


    CHARGE:  cpu time      0.1930: real time      0.1938
    FORLOC:  cpu time      0.0351: real time      0.0352
    FORNL :  cpu time      1.0681: real time      1.0731
    STRESS:  cpu time      3.3749: real time      3.3905
    FORHAR:  cpu time      0.1104: real time      0.1109
    MIXING:  cpu time      0.0123: real time      0.0124
    OFIELD:  cpu time      0.0001: real time      0.0001

  FORCE on cell =-STRESS in cart. coord.  units (eV):
  Direction    XX          YY          ZZ          XY          YZ          ZX
  --------------------------------------------------------------------------------------
  Alpha Z     0.62641     0.62641     0.62641
  Ewald    -147.46879   445.63150   642.26523    27.83797    18.08149   -73.38059
  Hartree   239.56111   528.80380   702.93758    16.32569    -1.00422   -61.86931
  E(xc)     -78.18925   -76.31190   -76.04806     0.07722     0.06730    -0.02211
  Local    -314.72850 -1159.43762 -1532.25399   -44.04570   -12.01329   138.26560
  n-local   -28.93823   -31.30306   -31.51876    -0.17398     0.10006    -0.34000
  augment    -0.53957    -0.74683    -0.70994     0.00724    -0.04434    -0.02474
  Kinetic   330.28893   293.09993   298.37113    -0.93592    -3.10461    -3.41127
  Fock        0.00000     0.00000     0.00000     0.00000     0.00000     0.00000
  -------------------------------------------------------------------------------------
  Total       0.61211     0.36223     3.66960    -0.90748     2.08239    -0.78243
  in kB       0.29058     0.17196     1.74203    -0.43080     0.98855    -0.37144
  external pressure =        0.73 kB  Pullay stress =        0.00 kB


 VOLUME and BASIS-vectors are now :
 -----------------------------------------------------------------------------
  energy-cutoff  :      520.00
  volume of cell :     3375.00
      direct lattice vectors                 reciprocal lattice vectors
    15.000000000  0.000000000  0.000000000     0.066666667  0.000000000  0.000000000
     0.000000000 15.000000000  0.000000000     0.000000000  0.066666667  0.000000000
     0.000000000  0.000000000 15.000000000     0.000000000  0.000000000  0.066666667

  length of vectors
    15.000000000 15.000000000 15.000000000     0.066666667  0.066666667  0.066666667


 FORCES acting on ions
    electron-ion (+dipol)            ewald-force                    non-local-force                 convergence-correction
 -----------------------------------------------------------------------------------------------
   -.294E+02 0.997E+02 0.127E+03   0.306E+02 -.102E+03 -.129E+03   -.120E-01 0.162E+00 -.863E+00   -.205E-04 0.207E-04 0.773E-04
   0.580E+01 -.125E+03 0.641E+02   -.609E+01 0.127E+03 -.641E+02   -.323E+00 0.701E+00 0.170E+01   -.666E-05 -.181E-04 0.125E-03
   -.889E+01 -.114E+03 -.851E+02   0.830E+01 0.113E+03 0.860E+02   0.306E-01 -.281E+01 -.841E+00   -.590E-06 -.703E-04 -.114E-04
   0.288E+02 0.101E+03 -.109E+03   -.284E+02 -.993E+02 0.110E+03   -.275E+00 0.222E+01 0.152E+01   0.328E-04 0.593E-04 -.826E-04
   -.217E+01 0.169E+02 0.671E+02   0.203E+01 -.175E+02 -.724E+02   0.938E-03 0.955E+00 0.550E+01   -.210E-05 -.216E-05 -.299E-05
   -.276E+02 0.613E+02 -.847E+01   0.296E+02 -.663E+02 0.116E+02   -.182E+01 0.460E+01 -.329E+01   -.181E-05 -.531E-05 0.188E-04
   0.128E+02 -.628E+02 0.354E+02   -.139E+02 0.678E+02 -.384E+02   0.117E+01 -.501E+01 0.259E+01   -.698E-06 0.176E-05 0.539E-05
   -.196E+02 -.537E+02 -.456E+02   0.216E+02 0.588E+02 0.498E+02   -.187E+01 -.435E+01 -.393E+01   -.603E-05 -.217E-04 -.223E-04
   0.350E+02 0.555E+02 0.163E+02   -.382E+02 -.606E+02 -.210E+02   0.262E+01 0.410E+01 0.427E+01   0.123E-04 0.174E-04 0.965E-05
   0.543E+01 0.197E+02 -.633E+02   -.550E+01 -.205E+02 0.673E+02   0.239E+00 0.958E+00 -.505E+01   0.282E-05 0.141E-05 -.282E-04
 -----------------------------------------------------------------------------------------------
   0.242E+00 -.153E+01 -.158E+01   0.799E-14 0.426E-13 0.142E-13   -.238E+00 0.153E+01 0.159E+01   0.949E-05 -.169E-04 0.883E-04
 
 
 POSITION                                       TOTAL-FORCE (eV/Angst)
 -----------------------------------------------------------------------------------
      7.78500      7.11700      6.20700         1.166553     -2.371439     -2.926699
      7.56300      8.24300      6.79600        -0.620876      3.338685      1.752532
      7.51200      8.25100      8.26400        -0.563343     -4.564403      0.011792
      7.18200      6.95700      8.72000         0.204040      3.811960      2.814069
      7.77600      6.94000      5.12300        -0.143125      0.286294      0.168190
      8.10100      6.27400      6.80100         0.232622     -0.333734     -0.140751
      7.34400      9.18600      6.29900        -0.009411      0.024348     -0.423326
      7.83300      9.02000      8.93000         0.130905      0.738297      0.287214
      6.76800      6.27800      8.03300        -0.563752     -0.998180     -0.421205
      7.13500      6.73500      9.82700         0.166386      0.068172     -1.121816
 -----------------------------------------------------------------------------------
    total drift:                                0.004675     -0.000204      0.002720


--------------------------------------------------------------------------------------------------------



  FREE ENERGIE OF THE ION-ELECTRON SYSTEM (eV)
  ---------------------------------------------------
  free  energy   TOTEN  =       -56.00826812 eV

  energy  without entropy=      -56.00826812  energy(sigma->0) =      -56.00826812
 


--------------------------------------------------------------------------------------------------------


    POTLOK:  cpu time      0.5065: real time      0.5090


--------------------------------------------------------------------------------------------------------


 stress matrix after NEB project (eV)
      0.61211     -0.90748     -0.78243
     -0.90748      0.36223      2.08239
     -0.78243      2.08239      3.66960
  FORCES: max atom, RMS     4.742537    2.787826
  FORCE total and by dimension    8.815881    4.564403
  Stress total and by dimension    5.051342    3.669604
     LOOP+:  cpu time     30.3201: real time     30.4703
    4ORBIT:  cpu time      0.0000: real time      0.0000

 total amount of memory used by VASP MPI-rank0   224781. kBytes
=======================================================================

   base      :      30000. kBytes
   nonlr-proj:       1257. kBytes
   fftplans  :     123538. kBytes
   grid      :      67787. kBytes
   one-center:         15. kBytes
   wavefun   :       2184. kBytes
 
  
  
 General timing and accounting informations for this job:
 ========================================================
  
                  Total CPU time used (sec):       36.924
                            User time (sec):       33.739
                          System time (sec):        3.185
                         Elapsed time (sec):       37.933
  
                   Maximum memory used (kb):      557800.
                   Average memory used (kb):          N/A
  
                          Minor page faults:       148347
                          Major page faults:         5439
                 Voluntary context switches:         3100
