 vasp.6.4.2 20Jul23 (build Apr 10 2024 13:39:58) complex                        
  
 executed on             LinuxIFC date 2024.05.17  01:17:28
 running   16 mpi-ranks, on    1 nodes
 distrk:  each k-point on   16 cores,    1 groups
 distr:  one band on NCORE=   2 cores,    8 groups


--------------------------------------------------------------------------------------------------------


 INCAR:
   ISTART = 0
   ISPIN = 1
   LREAL = Auto
   ENCUT = 520
   NPAR = 8
   LPLANE = .TRUE.
   LSCALU = .FALSE.
   NSIM = 4
   LWAVE = .FALSE.
   LCHARG = .FALSE.
   ADDGRID = .TRUE.
   LASPH = .TRUE.
   PREC = Accurate
   ISMEAR = 0
   SIGMA = 0.05
   EDIFF = 1E-06
   NSW = 0
   TEBEG = 300
   TEEND = 700     	
   ISYM = 0
   NWRITE = 2

 POTCAR:   PAW_PBE C 08Apr2002                    
 POTCAR:   PAW_PBE H 15Jun2001                    
 POTCAR:   PAW_PBE C 08Apr2002                    
   VRHFIN =C: s2p2                                                                                  
   LEXCH  = PE                                                                                      
   EATOM  =   147.1560 eV,   10.8157 Ry                                                             
                                                                                                    
   TITEL  = PAW_PBE C 08Apr2002                                                                     
   LULTRA =        F    use ultrasoft PP ?                                                          
   IUNSCR =        0    unscreen: 0-lin 1-nonlin 2-no                                               
   RPACOR =     .000    partial core radius                                                         
   POMASS =   12.011; ZVAL   =    4.000    mass and valenz                                          
   RCORE  =    1.500    outmost cutoff radius                                                       
   RWIGS  =    1.630; RWIGS  =     .863    wigner-seitz radius (au A)                               
   ENMAX  =  400.000; ENMIN  =  300.000 eV                                                          
   ICORE  =        2    local potential                                                             
   LCOR   =        T    correct aug charges                                                         
   LPAW   =        T    paw PP                                                                      
   EAUG   =  644.873                                                                                
   DEXC   =     .000                                                                                
   RMAX   =    2.266    core radius for proj-oper                                                   
   RAUG   =    1.300    factor for augmentation sphere                                              
   RDEP   =    1.501    radius for radial grids                                                     
   RDEPT  =    1.300    core radius for aug-charge                                                  
   QCUT   =   -5.516; QGAM   =   11.032    optimization parameters                                  
                                                                                                    
   Description                                                                                      
     l     E      TYP  RCUT    TYP  RCUT                                                            
     0   .000     23  1.200                                                                         
     0   .000     23  1.200                                                                         
     1   .000     23  1.500                                                                         
     1  2.500     23  1.500                                                                         
     2   .000      7  1.500                                                                         
  local pseudopotential read in
  atomic valenz-charges read in
  non local Contribution for L=           0  read in
    real space projection operators read in
  non local Contribution for L=           0  read in
    real space projection operators read in
  non local Contribution for L=           1  read in
    real space projection operators read in
  non local Contribution for L=           1  read in
    real space projection operators read in
    PAW grid and wavefunctions read in
 
   number of l-projection  operators is LMAX  =           4
   number of lm-projection operators is LMMAX =           8
 
 POTCAR:   PAW_PBE H 15Jun2001                    
   VRHFIN =H: ultrasoft test                                                                        
   LEXCH  = PE                                                                                      
   EATOM  =    12.4884 eV,     .9179 Ry                                                             
                                                                                                    
   TITEL  = PAW_PBE H 15Jun2001                                                                     
   LULTRA =        F    use ultrasoft PP ?                                                          
   IUNSCR =        0    unscreen: 0-lin 1-nonlin 2-no                                               
   RPACOR =     .000    partial core radius                                                         
   POMASS =    1.000; ZVAL   =    1.000    mass and valenz                                          
   RCORE  =    1.100    outmost cutoff radius                                                       
   RWIGS  =     .700; RWIGS  =     .370    wigner-seitz radius (au A)                               
   ENMAX  =  250.000; ENMIN  =  200.000 eV                                                          
   RCLOC  =     .701    cutoff for local pot                                                        
   LCOR   =        T    correct aug charges                                                         
   LPAW   =        T    paw PP                                                                      
   EAUG   =  400.000                                                                                
   RMAX   =    2.174    core radius for proj-oper                                                   
   RAUG   =    1.200    factor for augmentation sphere                                              
   RDEP   =    1.112    radius for radial grids                                                     
   QCUT   =   -5.749; QGAM   =   11.498    optimization parameters                                  
                                                                                                    
   Description                                                                                      
     l     E      TYP  RCUT    TYP  RCUT                                                            
     0   .000     23  1.100                                                                         
     0   .500     23  1.100                                                                         
     1  -.300     23  1.100                                                                         
  local pseudopotential read in
  atomic valenz-charges read in
  non local Contribution for L=           0  read in
    real space projection operators read in
  non local Contribution for L=           0  read in
    real space projection operators read in
  non local Contribution for L=           1  read in
    real space projection operators read in
    PAW grid and wavefunctions read in
 
   number of l-projection  operators is LMAX  =           3
   number of lm-projection operators is LMMAX =           5
 
 Optimization of the real space projectors (new method)

 maximal supplied QI-value         = 25.13
 optimisation between [QCUT,QGAM] = [ 11.56, 23.12] = [ 37.43,149.72] Ry 
 Optimized for a Real-space Cutoff    1.04 Angstroem

   l    n(q)    QCUT    max X(q) W(low)/X(q) W(high)/X(q)  e(spline) 
   0      7    11.561     5.582    0.47E-04    0.94E-04    0.17E-07
   0      7    11.561    69.432    0.20E-03    0.59E-03    0.21E-06
   1      7    11.561     2.780    0.24E-04    0.70E-04    0.44E-07
   1      7    11.561     4.549    0.18E-03    0.25E-03    0.12E-06
 Optimization of the real space projectors (new method)

 maximal supplied QI-value         = 34.20
 optimisation between [QCUT,QGAM] = [ 11.63, 23.26] = [ 37.87,151.49] Ry 
 Optimized for a Real-space Cutoff    1.21 Angstroem

   l    n(q)    QCUT    max X(q) W(low)/X(q) W(high)/X(q)  e(spline) 
   0      8    11.629     4.436    0.19E-04    0.32E-04    0.47E-07
   0      8    11.629    16.131    0.16E-03    0.33E-03    0.21E-06
   1      8    11.629     4.654    0.18E-03    0.16E-03    0.26E-06
 PAW_PBE C 08Apr2002                    :
 energy of atom  1       EATOM= -147.1560
 kinetic energy error for atom=    0.0071 (will be added to EATOM!!)
 PAW_PBE H 15Jun2001                    :
 energy of atom  2       EATOM=  -12.4884
 kinetic energy error for atom=    0.0014 (will be added to EATOM!!)
 
 
 POSCAR:  C  H
  positions in cartesian coordinates
  No initial velocities read in
 exchange correlation table for  LEXCH =        8
   RHO(1)=    0.500       N(1)  =     2000
   RHO(2)=  100.500       N(2)  =     4000

 VTST: version 4.1, (05/19/21)

 CHAIN: initializing optimizer
 
 OPT: Using VASP Dynamics algorithm
 CHAIN: Read ICHAIN            0
 
 POSCAR:  C  H
  positions in cartesian coordinates
  No initial velocities read in
 


--------------------------------------------------------------------------------------------------------


 ion  position               nearest neighbor table
   1  0.536  0.503  0.389-   6 1.08   5 1.15   2 1.28
   2  0.480  0.511  0.452-   7 1.03   1 1.28   3 1.56
   3  0.519  0.509  0.548-   8 1.08   4 1.35   2 1.56
   4  0.461  0.490  0.613-   9 1.11  10 1.15   3 1.35
   5  0.516  0.494  0.315-   1 1.15
   6  0.608  0.496  0.397-   1 1.08
   7  0.412  0.514  0.439-   2 1.03
   8  0.590  0.522  0.555-   3 1.08
   9  0.388  0.480  0.608-   4 1.11
  10  0.491  0.481  0.683-   4 1.15
 

IMPORTANT INFORMATION: All symmetrisations will be switched off!
NOSYMM: (Re-)initialisation of all symmetry stuff for point group C_1.


----------------------------------------------------------------------------------------

                                     Primitive cell                                     

  volume of cell :    3375.0000

  direct lattice vectors                    reciprocal lattice vectors
    15.000000000  0.000000000  0.000000000     0.066666667  0.000000000  0.000000000
     0.000000000 15.000000000  0.000000000     0.000000000  0.066666667  0.000000000
     0.000000000  0.000000000 15.000000000     0.000000000  0.000000000  0.066666667

  length of vectors
    15.000000000 15.000000000 15.000000000     0.066666667  0.066666667  0.066666667

  position of ions in fractional coordinates (direct lattice)
     0.536333338  0.502533340  0.388799985
     0.479599984  0.511066659  0.451533318
     0.519133345  0.509466680  0.547533353
     0.461066659  0.489599991  0.613466644
     0.515933323  0.493800004  0.315399996
     0.607733345  0.495799987  0.396800009
     0.411800003  0.514199988  0.439333344
     0.589733315  0.521733348  0.555133311
     0.387600009  0.480333328  0.608466657
     0.490999985  0.481400013  0.683466657

  ion indices of the primitive-cell ions
   primitive index   ion index
                 1           1
                 2           2
                 3           3
                 4           4
                 5           5
                 6           6
                 7           7
                 8           8
                 9           9
                10          10

----------------------------------------------------------------------------------------

 
 
 KPOINTS: K-Spacing Value to Generate K-Mesh: 1.00

Automatic generation of k-mesh.
 Grid dimensions read from file:
 generate k-points for:    1    1    1

 Generating k-lattice:

  Cartesian coordinates                     Fractional coordinates (reciprocal lattice)
     0.066666667  0.000000000  0.000000000     1.000000000  0.000000000  0.000000000
     0.000000000  0.066666667  0.000000000     0.000000000  1.000000000  0.000000000
     0.000000000  0.000000000  0.066666667     0.000000000  0.000000000  1.000000000

  Length of vectors
     0.066666667  0.066666667  0.066666667

  Shift w.r.t. Gamma in fractional coordinates (k-lattice)
     0.000000000  0.000000000  0.000000000

 
 Subroutine IBZKPT returns following result:
 ===========================================
 
 Found      1 irreducible k-points:
 
 Following reciprocal coordinates:
            Coordinates               Weight
  0.000000  0.000000  0.000000      1.000000
 
 Following cartesian coordinates:
            Coordinates               Weight
  0.000000  0.000000  0.000000      1.000000
 


--------------------------------------------------------------------------------------------------------




 Dimension of arrays:
   k-points           NKPTS =      1   k-points in BZ     NKDIM =      1   number of bands    NBANDS=     24
   number of dos      NEDOS =    301   number of ions     NIONS =     10
   non local maximal  LDIM  =      4   non local SUM 2l+1 LMDIM =      8
   total plane-waves  NPLWV = ******
   max r-space proj   IRMAX =   3145   max aug-charges    IRDMAX=  39494
   dimension x,y,z NGX =   112 NGY =  112 NGZ =  112
   dimension x,y,z NGXF=   224 NGYF=  224 NGZF=  224
   support grid    NGXF=   448 NGYF=  448 NGZF=  448
   ions per type =               4   6
   NGX,Y,Z   is equivalent  to a cutoff of  12.41, 12.41, 12.41 a.u.
   NGXF,Y,Z  is equivalent  to a cutoff of  24.83, 24.83, 24.83 a.u.

 SYSTEM =  unknown system                          
 POSCAR =   C  H                                   

 Startparameter for this run:
   NWRITE =      2    write-flag & timer
   PREC   = accura    normal or accurate (medium, high low for compatibility)
   ISTART =      0    job   : 0-new  1-cont  2-samecut
   ICHARG =      2    charge: 1-file 2-atom 10-const
   ISPIN  =      1    spin polarized calculation?
   LNONCOLLINEAR =      F non collinear calculations
   LSORBIT =      F    spin-orbit coupling
   INIWAV =      1    electr: 0-lowe 1-rand  2-diag
   LASPH  =      T    aspherical Exc in radial PAW
 Electronic Relaxation 1
   ENCUT  =  520.0 eV  38.22 Ry    6.18 a.u.  27.89 27.89 27.89*2*pi/ulx,y,z
   ENINI  =  520.0     initial cutoff
   ENAUG  =  644.9 eV  augmentation charge cutoff
   NELM   =     60;   NELMIN=  2; NELMDL= -5     # of ELM steps 
   EDIFF  = 0.1E-05   stopping-criterion for ELM
   LREAL  =      T    real-space projection
   NLSPLINE    = F    spline interpolate recip. space projectors
   LCOMPAT=      F    compatible to vasp.4.4
   GGA_COMPAT  = T    GGA compatible to vasp.4.4-vasp.4.6
   LMAXPAW     = -100 max onsite density
   LMAXMIX     =    2 max onsite mixed and CHGCAR
   VOSKOWN=      0    Vosko Wilk Nusair interpolation
   ROPT   =   -0.00025  -0.00025
 Ionic relaxation
   EDIFFG = 0.1E-04   stopping-criterion for IOM
   NSW    =      0    number of steps for IOM
   NBLOCK =      1;   KBLOCK =      1    inner block; outer block 
   IBRION =     -1    ionic relax: 0-MD 1-quasi-New 2-CG
   NFREE  =      0    steps in history (QN), initial steepest desc. (CG)
   ISIF   =      2    stress and relaxation
   IWAVPR =     10    prediction:  0-non 1-charg 2-wave 3-comb
   ISYM   =      0    0-nonsym 1-usesym 2-fastsym
   LCORR  =      T    Harris-Foulkes like correction to forces

   POTIM  = 0.5000    time-step for ionic-motion
   TEIN   =    0.0    initial temperature
   TEBEG  =  300.0;   TEEND  = 700.0 temperature during run
   SMASS  =  -3.00    Nose mass-parameter (am)
   estimated Nose-frequenzy (Omega)   =  0.10E-29 period in steps = 0.13E+47 mass=  -0.514E-26a.u.
   SCALEE = 1.0000    scale energy and forces
   NPACO  =    256;   APACO  = 10.0  distance and # of slots for P.C.
   PSTRESS=    0.0 pullay stress

  Mass of Ions in am
   POMASS =  12.01  1.00
  Ionic Valenz
   ZVAL   =   4.00  1.00
  Atomic Wigner-Seitz radii
   RWIGS  =  -1.00 -1.00
  virtual crystal weights 
   VCA    =   1.00  1.00
   NELECT =      22.0000    total number of electrons
   NUPDOWN=      -1.0000    fix difference up-down

 DOS related values:
   EMIN   =  10.00;   EMAX   =-10.00  energy-range for DOS
   EFERMI =   0.00;   METHOD = LEGACY      
   ISMEAR =     0;   SIGMA  =   0.05  broadening in eV -4-tet -1-fermi 0-gaus

 Electronic relaxation 2 (details)
   IALGO  =     38    algorithm
   LDIAG  =      T    sub-space diagonalisation (order eigenvalues)
   LSUBROT=      F    optimize rotation matrix (better conditioning)
   TURBO    =      0    0=normal 1=particle mesh
   IRESTART =      0    0=no restart 2=restart with 2 vectors
   NREBOOT  =      0    no. of reboots
   NMIN     =      0    reboot dimension
   EREF     =   0.00    reference energy to select bands
   IMIX   =      4    mixing-type and parameters
     AMIX     =   0.40;   BMIX     =  1.00
     AMIX_MAG =   1.60;   BMIX_MAG =  1.00
     AMIN     =   0.10
     WC   =   100.;   INIMIX=   1;  MIXPRE=   1;  MAXMIX= -45

 Intra band minimization:
   WEIMIN = 0.0000     energy-eigenvalue tresh-hold
   EBREAK =  0.10E-07  absolut break condition
   DEPER  =   0.30     relativ break condition  

   TIME   =   0.40     timestep for ELM

  volume/ion in A,a.u.               =     337.50      2277.56
  Fermi-wavevector in a.u.,A,eV,Ry     =   0.305814  0.577905  1.272449  0.093522
  Thomas-Fermi vector in A             =   1.179187
 
 Write flags
   LWAVE        =      F    write WAVECAR
   LDOWNSAMPLE  =      F    k-point downsampling of WAVECAR
   LCHARG       =      F    write CHGCAR
   LVTOT        =      F    write LOCPOT, total local potential
   LVHAR        =      F    write LOCPOT, Hartree potential only
   LELF         =      F    write electronic localiz. function (ELF)
   LORBIT       =      0    0 simple, 1 ext, 2 COOP (PROOUT), +10 PAW based schemes


 Dipole corrections
   LMONO  =      F    monopole corrections only (constant potential shift)
   LDIPOL =      F    correct potential (dipole corrections)
   IDIPOL =      0    1-x, 2-y, 3-z, 4-all directions 
   EPSILON=  1.0000000 bulk dielectric constant

 Exchange correlation treatment:
   GGA     =    --    GGA type
   LEXCH   =     8    internal setting for exchange type
   LIBXC   =     F    Libxc                    
   VOSKOWN =     0    Vosko Wilk Nusair interpolation
   LHFCALC =     F    Hartree Fock is set to
   LHFONE  =     F    Hartree Fock one center treatment
   AEXX    =    0.0000 exact exchange contribution

 Linear response parameters
   LEPSILON=     F    determine dielectric tensor
   LRPA    =     F    only Hartree local field effects (RPA)
   LNABLA  =     F    use nabla operator in PAW spheres
   LVEL    =     F    velocity operator in full k-point grid
   CSHIFT  =0.1000    complex shift for real part using Kramers Kronig
   OMEGAMAX=  -1.0    maximum frequency
   DEG_THRESHOLD= 0.2000000E-02 threshold for treating states as degnerate
   RTIME   =   -0.100 relaxation time in fs
  (WPLASMAI=    0.000 imaginary part of plasma frequency in eV, 0.658/RTIME)
   DFIELD  = 0.0000000 0.0000000 0.0000000 field for delta impulse in time
 
  Optional k-point grid parameters
   LKPOINTS_OPT  =     F    use optional k-point grid
   KPOINTS_OPT_MODE=     1    mode for optional k-point grid
 
 Orbital magnetization related:
   ORBITALMAG=     F  switch on orbital magnetization
   LCHIMAG   =     F  perturbation theory with respect to B field
   DQ        =  0.001000  dq finite difference perturbation B field
   LLRAUG    =     F  two centre corrections for induced B field
   LBONE     =     F  B-component reconstruction in AE one-centre
   LVGVCALC  =     T  calculate vGv susceptibility
   LVGVAPPL  =     F  apply vGv susceptibility instead of pGv for G=0

 Random number generation:
   RANDOM_GENERATOR = DEFAULT
   PCG_SEED         = not used


--------------------------------------------------------------------------------------------------------


 Static calculation
 charge density and potential will be updated during run
 non-spin polarized calculation
 Variant of blocked Davidson
 Davidson routine will perform the subspace rotation
 perform sub-space diagonalisation
    after iterative eigenvector-optimisation
 modified Broyden-mixing scheme, WC =      100.0
 initial mixing is a Kerker type mixing with AMIX =  0.4000 and BMIX =      1.0000
 Hartree-type preconditioning will be used
 using additional bands           13
 real space projection scheme for non local part
 calculate Harris-corrections to forces 
   (improved forces if not selfconsistent)
 use gradient corrections 
 use of overlap-Matrix (Vanderbilt PP)
 Gauss-broadening in eV      SIGMA  =   0.05


--------------------------------------------------------------------------------------------------------


  energy-cutoff  :      520.00
  volume of cell :     3375.00
      direct lattice vectors                 reciprocal lattice vectors
    15.000000000  0.000000000  0.000000000     0.066666667  0.000000000  0.000000000
     0.000000000 15.000000000  0.000000000     0.000000000  0.066666667  0.000000000
     0.000000000  0.000000000 15.000000000     0.000000000  0.000000000  0.066666667

  length of vectors
    15.000000000 15.000000000 15.000000000     0.066666667  0.066666667  0.066666667


 
 k-points in units of 2pi/SCALE and weight: K-Spacing Value to Generate K-Mesh: 1.00
   0.00000000  0.00000000  0.00000000       1.000
 
 k-points in reciprocal lattice and weights: K-Spacing Value to Generate K-Mesh: 1.00
   0.00000000  0.00000000  0.00000000       1.000
 
 position of ions in fractional coordinates (direct lattice) 
   0.53633334  0.50253334  0.38879999
   0.47959998  0.51106666  0.45153332
   0.51913335  0.50946668  0.54753335
   0.46106666  0.48959999  0.61346664
   0.51593332  0.49380000  0.31540000
   0.60773335  0.49579999  0.39680001
   0.41180000  0.51419999  0.43933334
   0.58973331  0.52173335  0.55513331
   0.38760001  0.48033333  0.60846666
   0.49099998  0.48140001  0.68346666
 
 position of ions in cartesian coordinates  (Angst):
   8.04500008  7.53800011  5.83199978
   7.19399977  7.66599989  6.77299976
   7.78700018  7.64200020  8.21300030
   6.91599989  7.34399986  9.20199966
   7.73899984  7.40700006  4.73099995
   9.11600018  7.43699980  5.95200014
   6.17700005  7.71299982  6.59000015
   8.84599972  7.82600021  8.32699966
   5.81400013  7.20499992  9.12699986
   7.36499977  7.22100019 10.25199986
 


--------------------------------------------------------------------------------------------------------


 k-point   1 :   0.0000 0.0000 0.0000  plane waves:   90879

 maximum and minimum number of plane-waves per node :     45467    45412

 maximum number of plane-waves:     90879
 maximum index in each direction: 
   IXMAX=   27   IYMAX=   27   IZMAX=   27
   IXMIN=  -27   IYMIN=  -27   IZMIN=  -27


 real space projection operators:
  total allocation   :       1184.84 KBytes
  max/ min on nodes  :        593.09        591.75


 parallel 3D FFT for wavefunctions:
    minimum data exchange during FFTs selected (reduces bandwidth)
 parallel 3D FFT for charge:
    minimum data exchange during FFTs selected (reduces bandwidth)


 total amount of memory used by VASP MPI-rank0   224783. kBytes
=======================================================================

   base      :      30000. kBytes
   nonlr-proj:       1259. kBytes
   fftplans  :     123538. kBytes
   grid      :      67787. kBytes
   one-center:         15. kBytes
   wavefun   :       2184. kBytes
 
     INWAV:  cpu time      0.0000: real time      0.0000
 Broyden mixing: mesh for mixing (old mesh)
   NGX = 55   NGY = 55   NGZ = 55
  (NGX  =224   NGY  =224   NGZ  =224)
  gives a total of 166375 points

 initial charge density was supplied:
 charge density of overlapping atoms calculated
 number of electron      22.0000000 magnetization 
 keeping initial charge density in first step


--------------------------------------------------------------------------------------------------------


 Maximum index for non-local projection operator         1545
 Maximum index for augmentation-charges         2499 (set IRDMAX)


--------------------------------------------------------------------------------------------------------


 First call to EWALD:  gamma=   0.118
 Maximum number of real-space cells 3x 3x 3
 Maximum number of reciprocal cells 3x 3x 3

    FEWALD:  cpu time      0.0011: real time      0.0011


--------------------------------------- Ionic step        1  -------------------------------------------




--------------------------------------- Iteration      1(   1)  ---------------------------------------


    POTLOK:  cpu time      0.3353: real time      0.3372
    SETDIJ:  cpu time      0.1932: real time      0.1941
     EDDAV:  cpu time      0.4191: real time      0.4214
       DOS:  cpu time      0.0002: real time      0.0002
    --------------------------------------------
      LOOP:  cpu time      0.9479: real time      0.9529

 eigenvalue-minimisations  :    64
 total energy-change (2. order) : 0.1036056E+03  (-0.5304831E+03)
 number of electron      22.0000000 magnetization 
 augmentation part       22.0000000 magnetization 

 Free energy of the ion-electron system (eV)
  ---------------------------------------------------
  alpha Z        PSCENC =         0.62641250
  Ewald energy   TEWEN  =       878.68003392
  -Hartree energ DENC   =     -1302.05530924
  -exchange      EXHF   =         0.00000000
  -V(xc)+E(xc)   XCENC  =        67.21479762
  PAW double counting   =       156.01372664     -160.66969168
  entropy T*S    EENTRO =        -0.00055484
  eigenvalues    EBANDS =      -199.72123240
  atomic energy  EATOM  =       663.51739852
  Solvation  Ediel_sol  =         0.00000000
  ---------------------------------------------------
  free energy    TOTEN  =       103.60558104 eV

  energy without entropy =      103.60613588  energy(sigma->0) =      103.60585846


--------------------------------------------------------------------------------------------------------




--------------------------------------- Iteration      1(   2)  ---------------------------------------


     EDDAV:  cpu time      0.4881: real time      0.4908
       DOS:  cpu time      0.0001: real time      0.0001
    --------------------------------------------
      LOOP:  cpu time      0.4882: real time      0.4909

 eigenvalue-minimisations  :    80
 total energy-change (2. order) :-0.1259772E+03  (-0.1240789E+03)
 number of electron      22.0000000 magnetization 
 augmentation part       22.0000000 magnetization 

 Free energy of the ion-electron system (eV)
  ---------------------------------------------------
  alpha Z        PSCENC =         0.62641250
  Ewald energy   TEWEN  =       878.68003392
  -Hartree energ DENC   =     -1302.05530924
  -exchange      EXHF   =         0.00000000
  -V(xc)+E(xc)   XCENC  =        67.21479762
  PAW double counting   =       156.01372664     -160.66969168
  entropy T*S    EENTRO =        -0.00000000
  eigenvalues    EBANDS =      -325.69896142
  atomic energy  EATOM  =       663.51739852
  Solvation  Ediel_sol  =         0.00000000
  ---------------------------------------------------
  free energy    TOTEN  =       -22.37159314 eV

  energy without entropy =      -22.37159314  energy(sigma->0) =      -22.37159314


--------------------------------------------------------------------------------------------------------




--------------------------------------- Iteration      1(   3)  ---------------------------------------


     EDDAV:  cpu time      0.4055: real time      0.4078
       DOS:  cpu time      0.0002: real time      0.0002
    --------------------------------------------
      LOOP:  cpu time      0.4057: real time      0.4079

 eigenvalue-minimisations  :    64
 total energy-change (2. order) :-0.3766419E+02  (-0.3752575E+02)
 number of electron      22.0000000 magnetization 
 augmentation part       22.0000000 magnetization 

 Free energy of the ion-electron system (eV)
  ---------------------------------------------------
  alpha Z        PSCENC =         0.62641250
  Ewald energy   TEWEN  =       878.68003392
  -Hartree energ DENC   =     -1302.05530924
  -exchange      EXHF   =         0.00000000
  -V(xc)+E(xc)   XCENC  =        67.21479762
  PAW double counting   =       156.01372664     -160.66969168
  entropy T*S    EENTRO =        -0.00000000
  eigenvalues    EBANDS =      -363.36315125
  atomic energy  EATOM  =       663.51739852
  Solvation  Ediel_sol  =         0.00000000
  ---------------------------------------------------
  free energy    TOTEN  =       -60.03578297 eV

  energy without entropy =      -60.03578297  energy(sigma->0) =      -60.03578297


--------------------------------------------------------------------------------------------------------




--------------------------------------- Iteration      1(   4)  ---------------------------------------


     EDDAV:  cpu time      0.4050: real time      0.4073
       DOS:  cpu time      0.0001: real time      0.0001
    --------------------------------------------
      LOOP:  cpu time      0.4051: real time      0.4074

 eigenvalue-minimisations  :    64
 total energy-change (2. order) :-0.3126236E+01  (-0.3120466E+01)
 number of electron      22.0000000 magnetization 
 augmentation part       22.0000000 magnetization 

 Free energy of the ion-electron system (eV)
  ---------------------------------------------------
  alpha Z        PSCENC =         0.62641250
  Ewald energy   TEWEN  =       878.68003392
  -Hartree energ DENC   =     -1302.05530924
  -exchange      EXHF   =         0.00000000
  -V(xc)+E(xc)   XCENC  =        67.21479762
  PAW double counting   =       156.01372664     -160.66969168
  entropy T*S    EENTRO =        -0.00000000
  eigenvalues    EBANDS =      -366.48938683
  atomic energy  EATOM  =       663.51739852
  Solvation  Ediel_sol  =         0.00000000
  ---------------------------------------------------
  free energy    TOTEN  =       -63.16201855 eV

  energy without entropy =      -63.16201855  energy(sigma->0) =      -63.16201855


--------------------------------------------------------------------------------------------------------




--------------------------------------- Iteration      1(   5)  ---------------------------------------


     EDDAV:  cpu time      0.4489: real time      0.4515
       DOS:  cpu time      0.0001: real time      0.0001
    CHARGE:  cpu time      0.2006: real time      0.2014
    MIXING:  cpu time      0.0111: real time      0.0111
    --------------------------------------------
      LOOP:  cpu time      0.6607: real time      0.6641

 eigenvalue-minimisations  :    72
 total energy-change (2. order) :-0.6444941E-01  (-0.6443389E-01)
 number of electron      22.0000000 magnetization 
 augmentation part        0.5847746 magnetization 

 Broyden mixing:
  rms(total) = 0.12131E+01    rms(broyden)= 0.12129E+01
  rms(prec ) = 0.14552E+01
  weight for this iteration     100.00

 Free energy of the ion-electron system (eV)
  ---------------------------------------------------
  alpha Z        PSCENC =         0.62641250
  Ewald energy   TEWEN  =       878.68003392
  -Hartree energ DENC   =     -1302.05530924
  -exchange      EXHF   =         0.00000000
  -V(xc)+E(xc)   XCENC  =        67.21479762
  PAW double counting   =       156.01372664     -160.66969168
  entropy T*S    EENTRO =        -0.00000000
  eigenvalues    EBANDS =      -366.55383624
  atomic energy  EATOM  =       663.51739852
  Solvation  Ediel_sol  =         0.00000000
  ---------------------------------------------------
  free energy    TOTEN  =       -63.22646796 eV

  energy without entropy =      -63.22646796  energy(sigma->0) =      -63.22646796


--------------------------------------------------------------------------------------------------------




--------------------------------------- Iteration      1(   6)  ---------------------------------------


    POTLOK:  cpu time      0.3086: real time      0.3102
    SETDIJ:  cpu time      0.1924: real time      0.1932
     EDDAV:  cpu time      0.4041: real time      0.4063
       DOS:  cpu time      0.0001: real time      0.0001
    CHARGE:  cpu time      0.1954: real time      0.1962
    MIXING:  cpu time      0.0125: real time      0.0125
    --------------------------------------------
      LOOP:  cpu time      1.1131: real time      1.1187

 eigenvalue-minimisations  :    64
 total energy-change (2. order) : 0.5473477E+01  (-0.7914504E+00)
 number of electron      22.0000000 magnetization 
 augmentation part        0.5343351 magnetization 

 Broyden mixing:
  rms(total) = 0.57992E+00    rms(broyden)= 0.57989E+00
  rms(prec ) = 0.68694E+00
  weight for this iteration     100.00

 eigenvalues of (default mixing * dielectric matrix)
  average eigenvalue GAMMA=   1.6109
  1.6109

 Free energy of the ion-electron system (eV)
  ---------------------------------------------------
  alpha Z        PSCENC =         0.62641250
  Ewald energy   TEWEN  =       878.68003392
  -Hartree energ DENC   =     -1349.84026543
  -exchange      EXHF   =         0.00000000
  -V(xc)+E(xc)   XCENC  =        69.68358000
  PAW double counting   =       231.44841024     -236.67410771
  entropy T*S    EENTRO =        -0.00000000
  eigenvalues    EBANDS =      -315.19445279
  atomic energy  EATOM  =       663.51739852
  Solvation  Ediel_sol  =         0.00000000
  ---------------------------------------------------
  free energy    TOTEN  =       -57.75299075 eV

  energy without entropy =      -57.75299075  energy(sigma->0) =      -57.75299075


--------------------------------------------------------------------------------------------------------




--------------------------------------- Iteration      1(   7)  ---------------------------------------


    POTLOK:  cpu time      0.3089: real time      0.3107
    SETDIJ:  cpu time      0.1935: real time      0.1943
     EDDAV:  cpu time      0.4109: real time      0.4131
       DOS:  cpu time      0.0001: real time      0.0001
    CHARGE:  cpu time      0.1974: real time      0.1982
    MIXING:  cpu time      0.0127: real time      0.0128
    --------------------------------------------
      LOOP:  cpu time      1.1235: real time      1.1292

 eigenvalue-minimisations  :    64
 total energy-change (2. order) : 0.1243467E+01  (-0.4506240E+00)
 number of electron      22.0000000 magnetization 
 augmentation part        0.5007353 magnetization 

 Broyden mixing:
  rms(total) = 0.23043E+00    rms(broyden)= 0.23035E+00
  rms(prec ) = 0.26354E+00
  weight for this iteration     100.00

 eigenvalues of (default mixing * dielectric matrix)
  average eigenvalue GAMMA=   1.8267
  1.8267  1.8267

 Free energy of the ion-electron system (eV)
  ---------------------------------------------------
  alpha Z        PSCENC =         0.62641250
  Ewald energy   TEWEN  =       878.68003392
  -Hartree energ DENC   =     -1388.10909242
  -exchange      EXHF   =         0.00000000
  -V(xc)+E(xc)   XCENC  =        71.87133757
  PAW double counting   =       294.67403705     -300.16295323
  entropy T*S    EENTRO =        -0.00000000
  eigenvalues    EBANDS =      -277.60669764
  atomic energy  EATOM  =       663.51739852
  Solvation  Ediel_sol  =         0.00000000
  ---------------------------------------------------
  free energy    TOTEN  =       -56.50952373 eV

  energy without entropy =      -56.50952373  energy(sigma->0) =      -56.50952373


--------------------------------------------------------------------------------------------------------




--------------------------------------- Iteration      1(   8)  ---------------------------------------


    POTLOK:  cpu time      0.3143: real time      0.3160
    SETDIJ:  cpu time      0.1922: real time      0.1929
     EDDAV:  cpu time      0.4066: real time      0.4089
       DOS:  cpu time      0.0002: real time      0.0002
    CHARGE:  cpu time      0.1959: real time      0.1967
    MIXING:  cpu time      0.0118: real time      0.0119
    --------------------------------------------
      LOOP:  cpu time      1.1209: real time      1.1266

 eigenvalue-minimisations  :    64
 total energy-change (2. order) : 0.1648838E+00  (-0.2840406E-01)
 number of electron      22.0000000 magnetization 
 augmentation part        0.5016141 magnetization 

 Broyden mixing:
  rms(total) = 0.49290E-01    rms(broyden)= 0.49286E-01
  rms(prec ) = 0.78269E-01
  weight for this iteration     100.00

 eigenvalues of (default mixing * dielectric matrix)
  average eigenvalue GAMMA=   1.6299
  2.3860  0.9385  1.5650

 Free energy of the ion-electron system (eV)
  ---------------------------------------------------
  alpha Z        PSCENC =         0.62641250
  Ewald energy   TEWEN  =       878.68003392
  -Hartree energ DENC   =     -1394.50258596
  -exchange      EXHF   =         0.00000000
  -V(xc)+E(xc)   XCENC  =        72.39581255
  PAW double counting   =       300.71005936     -306.06670673
  entropy T*S    EENTRO =        -0.00000000
  eigenvalues    EBANDS =      -271.70506414
  atomic energy  EATOM  =       663.51739852
  Solvation  Ediel_sol  =         0.00000000
  ---------------------------------------------------
  free energy    TOTEN  =       -56.34463998 eV

  energy without entropy =      -56.34463998  energy(sigma->0) =      -56.34463998


--------------------------------------------------------------------------------------------------------




--------------------------------------- Iteration      1(   9)  ---------------------------------------


    POTLOK:  cpu time      0.3140: real time      0.3156
    SETDIJ:  cpu time      0.1926: real time      0.1934
     EDDAV:  cpu time      0.4873: real time      0.4900
       DOS:  cpu time      0.0001: real time      0.0001
    CHARGE:  cpu time      0.1982: real time      0.1990
    MIXING:  cpu time      0.0096: real time      0.0097
    --------------------------------------------
      LOOP:  cpu time      1.2018: real time      1.2078

 eigenvalue-minimisations  :    80
 total energy-change (2. order) : 0.3008207E-01  (-0.4793180E-02)
 number of electron      22.0000000 magnetization 
 augmentation part        0.4993465 magnetization 

 Broyden mixing:
  rms(total) = 0.23543E-01    rms(broyden)= 0.23540E-01
  rms(prec ) = 0.46577E-01
  weight for this iteration     100.00

 eigenvalues of (default mixing * dielectric matrix)
  average eigenvalue GAMMA=   1.4571
  2.2997  1.5565  0.9860  0.9860

 Free energy of the ion-electron system (eV)
  ---------------------------------------------------
  alpha Z        PSCENC =         0.62641250
  Ewald energy   TEWEN  =       878.68003392
  -Hartree energ DENC   =     -1400.16282494
  -exchange      EXHF   =         0.00000000
  -V(xc)+E(xc)   XCENC  =        72.69608733
  PAW double counting   =       305.87917718     -311.22917342
  entropy T*S    EENTRO =        -0.00000000
  eigenvalues    EBANDS =      -266.32166901
  atomic energy  EATOM  =       663.51739852
  Solvation  Ediel_sol  =         0.00000000
  ---------------------------------------------------
  free energy    TOTEN  =       -56.31455790 eV

  energy without entropy =      -56.31455790  energy(sigma->0) =      -56.31455790


--------------------------------------------------------------------------------------------------------




--------------------------------------- Iteration      1(  10)  ---------------------------------------


    POTLOK:  cpu time      0.3150: real time      0.3167
    SETDIJ:  cpu time      0.1912: real time      0.1920
     EDDAV:  cpu time      0.3250: real time      0.3268
       DOS:  cpu time      0.0001: real time      0.0001
    CHARGE:  cpu time      0.1978: real time      0.1986
    MIXING:  cpu time      0.0100: real time      0.0100
    --------------------------------------------
      LOOP:  cpu time      1.0391: real time      1.0442

 eigenvalue-minimisations  :    48
 total energy-change (2. order) : 0.5291186E-02  (-0.2135850E-02)
 number of electron      22.0000000 magnetization 
 augmentation part        0.4974584 magnetization 

 Broyden mixing:
  rms(total) = 0.18045E-01    rms(broyden)= 0.18042E-01
  rms(prec ) = 0.33698E-01
  weight for this iteration     100.00

 eigenvalues of (default mixing * dielectric matrix)
  average eigenvalue GAMMA=   1.6787
  2.5925  2.4267  1.0695  1.0695  1.2352

 Free energy of the ion-electron system (eV)
  ---------------------------------------------------
  alpha Z        PSCENC =         0.62641250
  Ewald energy   TEWEN  =       878.68003392
  -Hartree energ DENC   =     -1403.37613162
  -exchange      EXHF   =         0.00000000
  -V(xc)+E(xc)   XCENC  =        72.76737589
  PAW double counting   =       305.61964513     -310.98029101
  entropy T*S    EENTRO =        -0.00000000
  eigenvalues    EBANDS =      -263.16371004
  atomic energy  EATOM  =       663.51739852
  Solvation  Ediel_sol  =         0.00000000
  ---------------------------------------------------
  free energy    TOTEN  =       -56.30926672 eV

  energy without entropy =      -56.30926672  energy(sigma->0) =      -56.30926672


--------------------------------------------------------------------------------------------------------




--------------------------------------- Iteration      1(  11)  ---------------------------------------


    POTLOK:  cpu time      0.3140: real time      0.3157
    SETDIJ:  cpu time      0.1908: real time      0.1916
     EDDAV:  cpu time      0.4042: real time      0.4064
       DOS:  cpu time      0.0001: real time      0.0001
    CHARGE:  cpu time      0.1913: real time      0.1921
    MIXING:  cpu time      0.0137: real time      0.0138
    --------------------------------------------
      LOOP:  cpu time      1.1142: real time      1.1198

 eigenvalue-minimisations  :    64
 total energy-change (2. order) : 0.9449137E-02  (-0.5295201E-03)
 number of electron      22.0000000 magnetization 
 augmentation part        0.4973045 magnetization 

 Broyden mixing:
  rms(total) = 0.71492E-02    rms(broyden)= 0.71490E-02
  rms(prec ) = 0.16906E-01
  weight for this iteration     100.00

 eigenvalues of (default mixing * dielectric matrix)
  average eigenvalue GAMMA=   1.8143
  3.5899  2.4983  1.5279  1.0453  1.1121  1.1121

 Free energy of the ion-electron system (eV)
  ---------------------------------------------------
  alpha Z        PSCENC =         0.62641250
  Ewald energy   TEWEN  =       878.68003392
  -Hartree energ DENC   =     -1406.89364022
  -exchange      EXHF   =         0.00000000
  -V(xc)+E(xc)   XCENC  =        72.85934402
  PAW double counting   =       304.06802124     -309.41223736
  entropy T*S    EENTRO =        -0.00000000
  eigenvalues    EBANDS =      -259.74515020
  atomic energy  EATOM  =       663.51739852
  Solvation  Ediel_sol  =         0.00000000
  ---------------------------------------------------
  free energy    TOTEN  =       -56.29981758 eV

  energy without entropy =      -56.29981758  energy(sigma->0) =      -56.29981758


--------------------------------------------------------------------------------------------------------




--------------------------------------- Iteration      1(  12)  ---------------------------------------


    POTLOK:  cpu time      0.3142: real time      0.3158
    SETDIJ:  cpu time      0.1904: real time      0.1913
     EDDAV:  cpu time      0.4039: real time      0.4061
       DOS:  cpu time      0.0001: real time      0.0001
    CHARGE:  cpu time      0.1981: real time      0.1989
    MIXING:  cpu time      0.0102: real time      0.0103
    --------------------------------------------
      LOOP:  cpu time      1.1171: real time      1.1226

 eigenvalue-minimisations  :    64
 total energy-change (2. order) :-0.2426696E-02  (-0.2492685E-03)
 number of electron      22.0000000 magnetization 
 augmentation part        0.4969639 magnetization 

 Broyden mixing:
  rms(total) = 0.56592E-02    rms(broyden)= 0.56589E-02
  rms(prec ) = 0.10643E-01
  weight for this iteration     100.00

 eigenvalues of (default mixing * dielectric matrix)
  average eigenvalue GAMMA=   1.8925
  4.2158  2.2616  2.2616  1.4624  0.9979  1.0242  1.0242

 Free energy of the ion-electron system (eV)
  ---------------------------------------------------
  alpha Z        PSCENC =         0.62641250
  Ewald energy   TEWEN  =       878.68003392
  -Hartree energ DENC   =     -1409.05744132
  -exchange      EXHF   =         0.00000000
  -V(xc)+E(xc)   XCENC  =        72.89648508
  PAW double counting   =       303.64119550     -308.98688241
  entropy T*S    EENTRO =        -0.00000000
  eigenvalues    EBANDS =      -257.61944607
  atomic energy  EATOM  =       663.51739852
  Solvation  Ediel_sol  =         0.00000000
  ---------------------------------------------------
  free energy    TOTEN  =       -56.30224428 eV

  energy without entropy =      -56.30224428  energy(sigma->0) =      -56.30224428


--------------------------------------------------------------------------------------------------------




--------------------------------------- Iteration      1(  13)  ---------------------------------------


    POTLOK:  cpu time      0.3094: real time      0.3112
    SETDIJ:  cpu time      0.1903: real time      0.1912
     EDDAV:  cpu time      0.3673: real time      0.3693
       DOS:  cpu time      0.0001: real time      0.0001
    CHARGE:  cpu time      0.1922: real time      0.1929
    MIXING:  cpu time      0.0147: real time      0.0148
    --------------------------------------------
      LOOP:  cpu time      1.0741: real time      1.0795

 eigenvalue-minimisations  :    56
 total energy-change (2. order) :-0.9924089E-02  (-0.2134489E-03)
 number of electron      22.0000000 magnetization 
 augmentation part        0.4970841 magnetization 

 Broyden mixing:
  rms(total) = 0.35843E-02    rms(broyden)= 0.35838E-02
  rms(prec ) = 0.65949E-02
  weight for this iteration     100.00

 eigenvalues of (default mixing * dielectric matrix)
  average eigenvalue GAMMA=   2.0158
  5.1042  2.8542  2.2498  1.4451  1.4315  0.9625  1.0396  1.0396

 Free energy of the ion-electron system (eV)
  ---------------------------------------------------
  alpha Z        PSCENC =         0.62641250
  Ewald energy   TEWEN  =       878.68003392
  -Hartree energ DENC   =     -1409.30563383
  -exchange      EXHF   =         0.00000000
  -V(xc)+E(xc)   XCENC  =        72.88653788
  PAW double counting   =       303.75508790     -309.09895178
  entropy T*S    EENTRO =        -0.00000000
  eigenvalues    EBANDS =      -257.37305348
  atomic energy  EATOM  =       663.51739852
  Solvation  Ediel_sol  =         0.00000000
  ---------------------------------------------------
  free energy    TOTEN  =       -56.31216837 eV

  energy without entropy =      -56.31216837  energy(sigma->0) =      -56.31216837


--------------------------------------------------------------------------------------------------------




--------------------------------------- Iteration      1(  14)  ---------------------------------------


    POTLOK:  cpu time      0.3099: real time      0.3116
    SETDIJ:  cpu time      0.1918: real time      0.1926
     EDDAV:  cpu time      0.4066: real time      0.4088
       DOS:  cpu time      0.0001: real time      0.0001
    CHARGE:  cpu time      0.1967: real time      0.1975
    MIXING:  cpu time      0.0114: real time      0.0115
    --------------------------------------------
      LOOP:  cpu time      1.1166: real time      1.1222

 eigenvalue-minimisations  :    64
 total energy-change (2. order) :-0.5260536E-02  (-0.7810353E-04)
 number of electron      22.0000000 magnetization 
 augmentation part        0.4969734 magnetization 

 Broyden mixing:
  rms(total) = 0.18160E-02    rms(broyden)= 0.18159E-02
  rms(prec ) = 0.35193E-02
  weight for this iteration     100.00

 eigenvalues of (default mixing * dielectric matrix)
  average eigenvalue GAMMA=   2.1397
  6.0473  3.3128  2.3540  1.8750  1.3622  1.3622  1.0049  1.0049  0.9336

 Free energy of the ion-electron system (eV)
  ---------------------------------------------------
  alpha Z        PSCENC =         0.62641250
  Ewald energy   TEWEN  =       878.68003392
  -Hartree energ DENC   =     -1409.71197536
  -exchange      EXHF   =         0.00000000
  -V(xc)+E(xc)   XCENC  =        72.88021673
  PAW double counting   =       303.72549018     -309.07074076
  entropy T*S    EENTRO =        -0.00000000
  eigenvalues    EBANDS =      -256.96426463
  atomic energy  EATOM  =       663.51739852
  Solvation  Ediel_sol  =         0.00000000
  ---------------------------------------------------
  free energy    TOTEN  =       -56.31742890 eV

  energy without entropy =      -56.31742890  energy(sigma->0) =      -56.31742890


--------------------------------------------------------------------------------------------------------




--------------------------------------- Iteration      1(  15)  ---------------------------------------


    POTLOK:  cpu time      0.3037: real time      0.3054
    SETDIJ:  cpu time      0.1899: real time      0.1908
     EDDAV:  cpu time      0.4072: real time      0.4095
       DOS:  cpu time      0.0001: real time      0.0001
    CHARGE:  cpu time      0.1960: real time      0.1968
    MIXING:  cpu time      0.0108: real time      0.0109
    --------------------------------------------
      LOOP:  cpu time      1.1078: real time      1.1135

 eigenvalue-minimisations  :    64
 total energy-change (2. order) :-0.3650702E-02  (-0.4952533E-04)
 number of electron      22.0000000 magnetization 
 augmentation part        0.4969359 magnetization 

 Broyden mixing:
  rms(total) = 0.98425E-03    rms(broyden)= 0.98409E-03
  rms(prec ) = 0.17806E-02
  weight for this iteration     100.00

 eigenvalues of (default mixing * dielectric matrix)
  average eigenvalue GAMMA=   2.1947
  6.7101  3.8324  2.4176  2.0459  1.5734  1.4078  1.0145  1.0145  1.0217  0.9092

 Free energy of the ion-electron system (eV)
  ---------------------------------------------------
  alpha Z        PSCENC =         0.62641250
  Ewald energy   TEWEN  =       878.68003392
  -Hartree energ DENC   =     -1409.76602539
  -exchange      EXHF   =         0.00000000
  -V(xc)+E(xc)   XCENC  =        72.87273740
  PAW double counting   =       303.75343478     -309.09812753
  entropy T*S    EENTRO =        -0.00000000
  eigenvalues    EBANDS =      -256.90694381
  atomic energy  EATOM  =       663.51739852
  Solvation  Ediel_sol  =         0.00000000
  ---------------------------------------------------
  free energy    TOTEN  =       -56.32107960 eV

  energy without entropy =      -56.32107960  energy(sigma->0) =      -56.32107960


--------------------------------------------------------------------------------------------------------




--------------------------------------- Iteration      1(  16)  ---------------------------------------


    POTLOK:  cpu time      0.3014: real time      0.3031
    SETDIJ:  cpu time      0.1904: real time      0.1912
     EDDAV:  cpu time      0.4047: real time      0.4069
       DOS:  cpu time      0.0001: real time      0.0001
    CHARGE:  cpu time      0.1962: real time      0.1970
    MIXING:  cpu time      0.0117: real time      0.0118
    --------------------------------------------
      LOOP:  cpu time      1.1046: real time      1.1101

 eigenvalue-minimisations  :    64
 total energy-change (2. order) :-0.1058794E-02  (-0.8876152E-05)
 number of electron      22.0000000 magnetization 
 augmentation part        0.4968674 magnetization 

 Broyden mixing:
  rms(total) = 0.56604E-03    rms(broyden)= 0.56595E-03
  rms(prec ) = 0.10643E-02
  weight for this iteration     100.00

 eigenvalues of (default mixing * dielectric matrix)
  average eigenvalue GAMMA=   2.2623
  7.5814  4.2756  2.4517  2.4517  1.4406  1.3962  1.3962  1.0083  1.0083  0.9703
  0.9052

 Free energy of the ion-electron system (eV)
  ---------------------------------------------------
  alpha Z        PSCENC =         0.62641250
  Ewald energy   TEWEN  =       878.68003392
  -Hartree energ DENC   =     -1409.82952894
  -exchange      EXHF   =         0.00000000
  -V(xc)+E(xc)   XCENC  =        72.87273757
  PAW double counting   =       303.78386394     -309.12875547
  entropy T*S    EENTRO =        -0.00000000
  eigenvalues    EBANDS =      -256.84430045
  atomic energy  EATOM  =       663.51739852
  Solvation  Ediel_sol  =         0.00000000
  ---------------------------------------------------
  free energy    TOTEN  =       -56.32213840 eV

  energy without entropy =      -56.32213840  energy(sigma->0) =      -56.32213840


--------------------------------------------------------------------------------------------------------




--------------------------------------- Iteration      1(  17)  ---------------------------------------


    POTLOK:  cpu time      0.2999: real time      0.3015
    SETDIJ:  cpu time      0.1903: real time      0.1911
     EDDAV:  cpu time      0.4065: real time      0.4088
       DOS:  cpu time      0.0001: real time      0.0001
    CHARGE:  cpu time      0.1949: real time      0.1957
    MIXING:  cpu time      0.0133: real time      0.0134
    --------------------------------------------
      LOOP:  cpu time      1.1050: real time      1.1105

 eigenvalue-minimisations  :    64
 total energy-change (2. order) :-0.6167818E-03  (-0.3496675E-05)
 number of electron      22.0000000 magnetization 
 augmentation part        0.4968691 magnetization 

 Broyden mixing:
  rms(total) = 0.36442E-03    rms(broyden)= 0.36437E-03
  rms(prec ) = 0.64392E-03
  weight for this iteration     100.00

 eigenvalues of (default mixing * dielectric matrix)
  average eigenvalue GAMMA=   2.3082
  7.9580  4.8264  2.7252  2.2859  1.7183  1.7183  1.4135  1.0189  1.0189  1.1051
  0.9970  0.9123

 Free energy of the ion-electron system (eV)
  ---------------------------------------------------
  alpha Z        PSCENC =         0.62641250
  Ewald energy   TEWEN  =       878.68003392
  -Hartree energ DENC   =     -1409.81557633
  -exchange      EXHF   =         0.00000000
  -V(xc)+E(xc)   XCENC  =        72.87067539
  PAW double counting   =       303.74587538     -309.09063029
  entropy T*S    EENTRO =        -0.00000000
  eigenvalues    EBANDS =      -256.85694427
  atomic energy  EATOM  =       663.51739852
  Solvation  Ediel_sol  =         0.00000000
  ---------------------------------------------------
  free energy    TOTEN  =       -56.32275518 eV

  energy without entropy =      -56.32275518  energy(sigma->0) =      -56.32275518


--------------------------------------------------------------------------------------------------------




--------------------------------------- Iteration      1(  18)  ---------------------------------------


    POTLOK:  cpu time      0.2977: real time      0.2993
    SETDIJ:  cpu time      0.1896: real time      0.1904
     EDDAV:  cpu time      0.3637: real time      0.3657
       DOS:  cpu time      0.0001: real time      0.0001
    CHARGE:  cpu time      0.1918: real time      0.1925
    MIXING:  cpu time      0.0165: real time      0.0166
    --------------------------------------------
      LOOP:  cpu time      1.0594: real time      1.0647

 eigenvalue-minimisations  :    56
 total energy-change (2. order) :-0.2848357E-03  (-0.1329728E-05)
 number of electron      22.0000000 magnetization 
 augmentation part        0.4968670 magnetization 

 Broyden mixing:
  rms(total) = 0.17797E-03    rms(broyden)= 0.17789E-03
  rms(prec ) = 0.34001E-03
  weight for this iteration     100.00

 eigenvalues of (default mixing * dielectric matrix)
  average eigenvalue GAMMA=   2.3524
  8.5793  5.1485  3.1575  2.5128  2.1565  1.4372  1.2968  1.2968  1.0192  1.0192
  0.9062  1.0256  1.0256

 Free energy of the ion-electron system (eV)
  ---------------------------------------------------
  alpha Z        PSCENC =         0.62641250
  Ewald energy   TEWEN  =       878.68003392
  -Hartree energ DENC   =     -1409.83162825
  -exchange      EXHF   =         0.00000000
  -V(xc)+E(xc)   XCENC  =        72.87119292
  PAW double counting   =       303.75110517     -309.09576150
  entropy T*S    EENTRO =        -0.00000000
  eigenvalues    EBANDS =      -256.84179330
  atomic energy  EATOM  =       663.51739852
  Solvation  Ediel_sol  =         0.00000000
  ---------------------------------------------------
  free energy    TOTEN  =       -56.32304002 eV

  energy without entropy =      -56.32304002  energy(sigma->0) =      -56.32304002


--------------------------------------------------------------------------------------------------------




--------------------------------------- Iteration      1(  19)  ---------------------------------------


    POTLOK:  cpu time      0.2979: real time      0.2995
    SETDIJ:  cpu time      0.1908: real time      0.1916
     EDDAV:  cpu time      0.3642: real time      0.3663
       DOS:  cpu time      0.0001: real time      0.0001
    CHARGE:  cpu time      0.1918: real time      0.1926
    MIXING:  cpu time      0.0157: real time      0.0157
    --------------------------------------------
      LOOP:  cpu time      1.0605: real time      1.0658

 eigenvalue-minimisations  :    56
 total energy-change (2. order) :-0.1173382E-03  (-0.4205147E-06)
 number of electron      22.0000000 magnetization 
 augmentation part        0.4968697 magnetization 

 Broyden mixing:
  rms(total) = 0.11287E-03    rms(broyden)= 0.11278E-03
  rms(prec ) = 0.19892E-03
  weight for this iteration     100.00

 eigenvalues of (default mixing * dielectric matrix)
  average eigenvalue GAMMA=   2.3232
  8.6259  5.3437  3.3425  2.4241  2.2439  1.5139  1.5139  1.3172  1.3172  1.0190
  1.0190  0.9305  0.9574  0.9574

 Free energy of the ion-electron system (eV)
  ---------------------------------------------------
  alpha Z        PSCENC =         0.62641250
  Ewald energy   TEWEN  =       878.68003392
  -Hartree energ DENC   =     -1409.83061560
  -exchange      EXHF   =         0.00000000
  -V(xc)+E(xc)   XCENC  =        72.87070441
  PAW double counting   =       303.73377626     -309.07845585
  entropy T*S    EENTRO =        -0.00000000
  eigenvalues    EBANDS =      -256.84241152
  atomic energy  EATOM  =       663.51739852
  Solvation  Ediel_sol  =         0.00000000
  ---------------------------------------------------
  free energy    TOTEN  =       -56.32315735 eV

  energy without entropy =      -56.32315735  energy(sigma->0) =      -56.32315735


--------------------------------------------------------------------------------------------------------




--------------------------------------- Iteration      1(  20)  ---------------------------------------


    POTLOK:  cpu time      0.3005: real time      0.3021
    SETDIJ:  cpu time      0.1894: real time      0.1902
     EDDAV:  cpu time      0.3714: real time      0.3735
       DOS:  cpu time      0.0001: real time      0.0001
    CHARGE:  cpu time      0.1979: real time      0.1987
    MIXING:  cpu time      0.0140: real time      0.0140
    --------------------------------------------
      LOOP:  cpu time      1.0733: real time      1.0786

 eigenvalue-minimisations  :    56
 total energy-change (2. order) :-0.4094274E-04  (-0.6925503E-07)
 number of electron      22.0000000 magnetization 
 augmentation part        0.4968669 magnetization 

 Broyden mixing:
  rms(total) = 0.73789E-04    rms(broyden)= 0.73669E-04
  rms(prec ) = 0.12772E-03
  weight for this iteration     100.00

 eigenvalues of (default mixing * dielectric matrix)
  average eigenvalue GAMMA=   2.4005
  8.9016  5.8043  4.0484  2.7338  2.4612  2.1015  1.4027  1.2986  1.1884  1.1884
  1.0146  1.0146  0.9023  0.9587  0.9888

 Free energy of the ion-electron system (eV)
  ---------------------------------------------------
  alpha Z        PSCENC =         0.62641250
  Ewald energy   TEWEN  =       878.68003392
  -Hartree energ DENC   =     -1409.83812725
  -exchange      EXHF   =         0.00000000
  -V(xc)+E(xc)   XCENC  =        72.87090482
  PAW double counting   =       303.74300325     -309.08772699
  entropy T*S    EENTRO =        -0.00000000
  eigenvalues    EBANDS =      -256.83509707
  atomic energy  EATOM  =       663.51739852
  Solvation  Ediel_sol  =         0.00000000
  ---------------------------------------------------
  free energy    TOTEN  =       -56.32319830 eV

  energy without entropy =      -56.32319830  energy(sigma->0) =      -56.32319830


--------------------------------------------------------------------------------------------------------




--------------------------------------- Iteration      1(  21)  ---------------------------------------


    POTLOK:  cpu time      0.3081: real time      0.3098
    SETDIJ:  cpu time      0.1898: real time      0.1907
     EDDAV:  cpu time      0.3658: real time      0.3679
       DOS:  cpu time      0.0001: real time      0.0001
    CHARGE:  cpu time      0.1953: real time      0.1961
    MIXING:  cpu time      0.0131: real time      0.0132
    --------------------------------------------
      LOOP:  cpu time      1.0724: real time      1.0777

 eigenvalue-minimisations  :    56
 total energy-change (2. order) :-0.2482118E-04  (-0.3581369E-07)
 number of electron      22.0000000 magnetization 
 augmentation part        0.4968672 magnetization 

 Broyden mixing:
  rms(total) = 0.33847E-04    rms(broyden)= 0.33596E-04
  rms(prec ) = 0.59714E-04
  weight for this iteration     100.00

 eigenvalues of (default mixing * dielectric matrix)
  average eigenvalue GAMMA=   2.3859
  8.9712  5.9470  4.2286  2.8626  2.3408  2.2174  1.4619  1.4619  1.2768  1.2768
  1.0164  1.0164  1.1305  1.1305  0.9173  0.9173

 Free energy of the ion-electron system (eV)
  ---------------------------------------------------
  alpha Z        PSCENC =         0.62641250
  Ewald energy   TEWEN  =       878.68003392
  -Hartree energ DENC   =     -1409.83996042
  -exchange      EXHF   =         0.00000000
  -V(xc)+E(xc)   XCENC  =        72.87079897
  PAW double counting   =       303.74382636     -309.08855674
  entropy T*S    EENTRO =        -0.00000000
  eigenvalues    EBANDS =      -256.83317623
  atomic energy  EATOM  =       663.51739852
  Solvation  Ediel_sol  =         0.00000000
  ---------------------------------------------------
  free energy    TOTEN  =       -56.32322312 eV

  energy without entropy =      -56.32322312  energy(sigma->0) =      -56.32322312


--------------------------------------------------------------------------------------------------------




--------------------------------------- Iteration      1(  22)  ---------------------------------------


    POTLOK:  cpu time      0.3103: real time      0.3120
    SETDIJ:  cpu time      0.1899: real time      0.1907
     EDDAV:  cpu time      0.3703: real time      0.3723
       DOS:  cpu time      0.0001: real time      0.0001
    CHARGE:  cpu time      0.1957: real time      0.1965
    MIXING:  cpu time      0.0135: real time      0.0136
    --------------------------------------------
      LOOP:  cpu time      1.0799: real time      1.0852

 eigenvalue-minimisations  :    56
 total energy-change (2. order) :-0.9412062E-05  (-0.2016533E-07)
 number of electron      22.0000000 magnetization 
 augmentation part        0.4968688 magnetization 

 Broyden mixing:
  rms(total) = 0.36026E-04    rms(broyden)= 0.35790E-04
  rms(prec ) = 0.49574E-04
  weight for this iteration     100.00

 eigenvalues of (default mixing * dielectric matrix)
  average eigenvalue GAMMA=   2.4236
  9.0973  6.2819  4.6802  3.1801  2.5485  2.1920  2.1920  1.3696  1.2337  1.2337
  1.1634  1.1634  1.0137  1.0137  0.9821  0.9278  0.9278

 Free energy of the ion-electron system (eV)
  ---------------------------------------------------
  alpha Z        PSCENC =         0.62641250
  Ewald energy   TEWEN  =       878.68003392
  -Hartree energ DENC   =     -1409.83869081
  -exchange      EXHF   =         0.00000000
  -V(xc)+E(xc)   XCENC  =        72.87071478
  PAW double counting   =       303.74146544     -309.08616761
  entropy T*S    EENTRO =        -0.00000000
  eigenvalues    EBANDS =      -256.83439927
  atomic energy  EATOM  =       663.51739852
  Solvation  Ediel_sol  =         0.00000000
  ---------------------------------------------------
  free energy    TOTEN  =       -56.32323253 eV

  energy without entropy =      -56.32323253  energy(sigma->0) =      -56.32323253


--------------------------------------------------------------------------------------------------------




--------------------------------------- Iteration      1(  23)  ---------------------------------------


    POTLOK:  cpu time      0.3085: real time      0.3102
    SETDIJ:  cpu time      0.1928: real time      0.1938
     EDDAV:  cpu time      0.3662: real time      0.3683
       DOS:  cpu time      0.0001: real time      0.0001
    CHARGE:  cpu time      0.1955: real time      0.1964
    MIXING:  cpu time      0.0142: real time      0.0143
    --------------------------------------------
      LOOP:  cpu time      1.0775: real time      1.0830

 eigenvalue-minimisations  :    56
 total energy-change (2. order) :-0.2795712E-05  (-0.6196773E-08)
 number of electron      22.0000000 magnetization 
 augmentation part        0.4968680 magnetization 

 Broyden mixing:
  rms(total) = 0.15151E-04    rms(broyden)= 0.14589E-04
  rms(prec ) = 0.22213E-04
  weight for this iteration     100.00

 eigenvalues of (default mixing * dielectric matrix)
  average eigenvalue GAMMA=   2.4363
  9.1478  6.5519  4.9364  3.4832  2.5516  2.5516  2.0738  1.5318  1.3055  1.3055
  1.3537  1.0154  1.0154  1.0981  1.0981  0.9595  0.9595  0.9142

 Free energy of the ion-electron system (eV)
  ---------------------------------------------------
  alpha Z        PSCENC =         0.62641250
  Ewald energy   TEWEN  =       878.68003392
  -Hartree energ DENC   =     -1409.84038529
  -exchange      EXHF   =         0.00000000
  -V(xc)+E(xc)   XCENC  =        72.87078131
  PAW double counting   =       303.74321444     -309.08792723
  entropy T*S    EENTRO =        -0.00000000
  eigenvalues    EBANDS =      -256.83276350
  atomic energy  EATOM  =       663.51739852
  Solvation  Ediel_sol  =         0.00000000
  ---------------------------------------------------
  free energy    TOTEN  =       -56.32323533 eV

  energy without entropy =      -56.32323533  energy(sigma->0) =      -56.32323533


--------------------------------------------------------------------------------------------------------




--------------------------------------- Iteration      1(  24)  ---------------------------------------


    POTLOK:  cpu time      0.3147: real time      0.3164
    SETDIJ:  cpu time      0.1903: real time      0.1911
     EDDAV:  cpu time      0.3656: real time      0.3676
       DOS:  cpu time      0.0001: real time      0.0001
    CHARGE:  cpu time      0.1959: real time      0.1968
    MIXING:  cpu time      0.0144: real time      0.0144
    --------------------------------------------
      LOOP:  cpu time      1.0810: real time      1.0863

 eigenvalue-minimisations  :    56
 total energy-change (2. order) :-0.1536960E-05  (-0.4359620E-08)
 number of electron      22.0000000 magnetization 
 augmentation part        0.4968679 magnetization 

 Broyden mixing:
  rms(total) = 0.96385E-05    rms(broyden)= 0.87282E-05
  rms(prec ) = 0.13809E-04
  weight for this iteration     100.00

 eigenvalues of (default mixing * dielectric matrix)
  average eigenvalue GAMMA=   2.4227
  9.1369  6.8349  5.1029  3.7052  2.7416  2.4024  1.9627  1.9627  1.2942  1.2942
  1.3656  1.1554  1.1554  1.0146  1.0146  1.0708  0.9138  0.9519  0.9519

 Free energy of the ion-electron system (eV)
  ---------------------------------------------------
  alpha Z        PSCENC =         0.62641250
  Ewald energy   TEWEN  =       878.68003392
  -Hartree energ DENC   =     -1409.84019767
  -exchange      EXHF   =         0.00000000
  -V(xc)+E(xc)   XCENC  =        72.87076543
  PAW double counting   =       303.74251550     -309.08722947
  entropy T*S    EENTRO =        -0.00000000
  eigenvalues    EBANDS =      -256.83293559
  atomic energy  EATOM  =       663.51739852
  Solvation  Ediel_sol  =         0.00000000
  ---------------------------------------------------
  free energy    TOTEN  =       -56.32323686 eV

  energy without entropy =      -56.32323686  energy(sigma->0) =      -56.32323686


--------------------------------------------------------------------------------------------------------




--------------------------------------- Iteration      1(  25)  ---------------------------------------


    POTLOK:  cpu time      0.3145: real time      0.3162
    SETDIJ:  cpu time      0.1898: real time      0.1906
     EDDAV:  cpu time      0.3652: real time      0.3671
       DOS:  cpu time      0.0001: real time      0.0001
    --------------------------------------------
      LOOP:  cpu time      0.8695: real time      0.8740

 eigenvalue-minimisations  :    56
 total energy-change (2. order) :-0.6033787E-06  (-0.9391279E-09)
 number of electron      22.0000000 magnetization 
 augmentation part        0.4968679 magnetization 

 Free energy of the ion-electron system (eV)
  ---------------------------------------------------
  alpha Z        PSCENC =         0.62641250
  Ewald energy   TEWEN  =       878.68003392
  -Hartree energ DENC   =     -1409.84043378
  -exchange      EXHF   =         0.00000000
  -V(xc)+E(xc)   XCENC  =        72.87077744
  PAW double counting   =       303.74271196     -309.08742324
  entropy T*S    EENTRO =        -0.00000000
  eigenvalues    EBANDS =      -256.83271479
  atomic energy  EATOM  =       663.51739852
  Solvation  Ediel_sol  =         0.00000000
  ---------------------------------------------------
  free energy    TOTEN  =       -56.32323747 eV

  energy without entropy =      -56.32323747  energy(sigma->0) =      -56.32323747


--------------------------------------------------------------------------------------------------------




 average (electrostatic) potential at core
  the test charge radii are     0.6991  0.5201
  (the norm of the test charge is              1.0000)
       1 -58.4170       2 -58.6721       3 -58.8684       4 -58.5816       5 -41.3538
       6 -42.0210       7 -42.7247       8 -42.3986       9 -41.9762      10 -41.3724
 
 
 
 E-fermi :  -5.5899     XC(G=0):  -0.4420     alpha+bet : -0.1681

 Fermi energy:        -5.5898770647

 k-point     1 :       0.0000    0.0000    0.0000
  band No.  band energies     occupation 
      1     -19.8549      2.00000
      2     -18.0299      2.00000
      3     -14.2346      2.00000
      4     -13.7598      2.00000
      5     -11.2420      2.00000
      6     -11.0583      2.00000
      7      -9.7864      2.00000
      8      -9.1188      2.00000
      9      -7.8219      2.00000
     10      -7.6510      2.00000
     11      -5.8589      2.00000
     12      -1.3848      0.00000
     13      -0.3235      0.00000
     14      -0.0870      0.00000
     15       0.0653      0.00000
     16       0.1716      0.00000
     17       0.3996      0.00000
     18       0.4833      0.00000
     19       0.5363      0.00000
     20       0.6481      0.00000
     21       0.8833      0.00000
     22       0.9227      0.00000
     23       0.9728      0.00000
     24       1.1263      0.00000


--------------------------------------------------------------------------------------------------------


 soft charge-density along one line, spin component           1
         0         1         2         3         4         5         6         7         8         9
 total charge-density along one line
 
 pseudopotential strength for first ion, spin component:           1
 10.249   0.019  -0.001  -0.004   0.002  -0.000  -0.004   0.002
  0.019  -0.001   0.000   0.000  -0.000  -0.000  -0.000   0.000
 -0.001   0.000  -4.337  -0.003   0.003  -0.015  -0.001   0.001
 -0.004   0.000  -0.003  -4.358   0.010  -0.001  -0.020   0.002
  0.002  -0.000   0.003   0.010  -4.360   0.001   0.002  -0.020
 -0.000  -0.000  -0.015  -0.001   0.001  -0.772  -0.000   0.000
 -0.004  -0.000  -0.001  -0.020   0.002  -0.000  -0.773   0.000
  0.002   0.000   0.001   0.002  -0.020   0.000   0.000  -0.773
 total augmentation occupancy for first ion, spin component:           1
  1.512  -1.149   0.011   0.107  -0.057   0.001   0.038  -0.025
 -1.149   0.986   0.002  -0.141   0.100  -0.002  -0.056   0.042
  0.011   0.002   0.932   0.034  -0.031   0.100   0.015  -0.012
  0.107  -0.141   0.034   1.226  -0.106   0.015   0.213  -0.033
 -0.057   0.100  -0.031  -0.106   1.250  -0.012  -0.033   0.221
  0.001  -0.002   0.100   0.015  -0.012   0.011   0.004  -0.003
  0.038  -0.056   0.015   0.213  -0.033   0.004   0.040  -0.010
 -0.025   0.042  -0.012  -0.033   0.221  -0.003  -0.010   0.042


------------------------ aborting loop because EDIFF is reached ----------------------------------------


    CHARGE:  cpu time      0.1955: real time      0.1963
    FORLOC:  cpu time      0.0321: real time      0.0322
    FORNL :  cpu time      1.0711: real time      1.0763
    STRESS:  cpu time      3.3671: real time      3.3833
    FORHAR:  cpu time      0.1099: real time      0.1104
    MIXING:  cpu time      0.0122: real time      0.0122
    OFIELD:  cpu time      0.0001: real time      0.0001

  FORCE on cell =-STRESS in cart. coord.  units (eV):
  Direction    XX          YY          ZZ          XY          YZ          ZX
  --------------------------------------------------------------------------------------
  Alpha Z     0.62641     0.62641     0.62641
  Ewald     351.70204  -201.07298   728.05063    28.91050   -35.21565  -146.24479
  Hartree   438.46751   199.07593   772.29703    14.07430   -22.31721   -88.66055
  E(xc)     -75.76379   -77.95632   -75.77400     0.10393    -0.07066    -0.14594
  Local    -967.58239  -222.98319 -1692.58836   -41.32990    56.79331   230.02818
  n-local   -31.26062   -28.33064   -30.74177    -0.08515     0.08271     0.31317
  augment    -0.80939    -0.52740    -0.66652    -0.00522     0.00012     0.03511
  Kinetic   285.62978   330.93030   298.29128    -2.47042     1.09686     0.17127
  Fock        0.00000     0.00000     0.00000     0.00000     0.00000     0.00000
  -------------------------------------------------------------------------------------
  Total       1.00956    -0.23790    -0.50529    -0.80196     0.36948    -4.50356
  in kB       0.47926    -0.11293    -0.23987    -0.38071     0.17540    -2.13793
  external pressure =        0.04 kB  Pullay stress =        0.00 kB


 VOLUME and BASIS-vectors are now :
 -----------------------------------------------------------------------------
  energy-cutoff  :      520.00
  volume of cell :     3375.00
      direct lattice vectors                 reciprocal lattice vectors
    15.000000000  0.000000000  0.000000000     0.066666667  0.000000000  0.000000000
     0.000000000 15.000000000  0.000000000     0.000000000  0.066666667  0.000000000
     0.000000000  0.000000000 15.000000000     0.000000000  0.000000000  0.066666667

  length of vectors
    15.000000000 15.000000000 15.000000000     0.066666667  0.066666667  0.066666667


 FORCES acting on ions
    electron-ion (+dipol)            ewald-force                    non-local-force                 convergence-correction
 -----------------------------------------------------------------------------------------------
   -.782E+02 0.683E+01 0.138E+03   0.797E+02 -.704E+01 -.141E+03   0.302E+00 -.604E+00 -.212E+01   0.978E-05 -.351E-05 0.174E-04
   0.923E+02 -.216E+02 0.147E+02   -.928E+02 0.220E+02 -.112E+02   0.225E+01 -.789E-01 0.134E+01   0.392E-05 -.111E-04 0.629E-04
   -.821E+02 -.248E+02 -.322E+02   0.810E+02 0.250E+02 0.314E+02   -.254E+01 -.435E+00 -.924E+00   -.386E-04 -.287E-04 0.258E-04
   0.732E+02 0.269E+02 -.124E+03   -.730E+02 -.269E+02 0.125E+03   0.120E+01 0.502E-01 0.811E+00   0.394E-05 -.358E-05 -.506E-04
   0.861E+01 0.693E+01 0.635E+02   -.961E+01 -.718E+01 -.667E+02   0.125E+01 0.588E+00 0.464E+01   -.216E-05 -.130E-05 0.120E-05
   -.659E+02 0.645E+01 0.111E+02   0.720E+02 -.694E+01 -.103E+02   -.577E+01 0.578E+00 -.528E+00   0.102E-04 -.896E-06 0.726E-05
   0.707E+02 -.549E+01 0.193E+02   -.795E+02 0.590E+01 -.206E+02   0.655E+01 -.317E+00 0.132E+01   -.124E-04 -.190E-05 0.485E-05
   -.671E+02 -.131E+02 -.167E+02   0.731E+02 0.141E+02 0.174E+02   -.581E+01 -.106E+01 -.636E+00   -.706E-05 -.446E-05 -.240E-05
   0.626E+02 0.974E+01 -.121E+02   -.671E+02 -.103E+02 0.116E+02   0.536E+01 0.671E+00 0.251E+00   0.137E-04 0.107E-05 -.635E-05
   -.150E+02 0.825E+01 -.612E+02   0.162E+02 -.860E+01 0.644E+02   -.198E+01 0.527E+00 -.443E+01   -.588E-05 0.228E-06 -.229E-04
 -----------------------------------------------------------------------------------------------
   -.819E+00 0.907E-01 0.288E+00   0.355E-14 -.355E-14 0.000E+00   0.817E+00 -.847E-01 -.285E+00   -.246E-04 -.541E-04 0.372E-04
 
 
 POSITION                                       TOTAL-FORCE (eV/Angst)
 -----------------------------------------------------------------------------------
      8.04500      7.53800      5.83200         1.841529     -0.817782     -5.551319
      7.19400      7.66600      6.77300         1.775744      0.343021      4.894695
      7.78700      7.64200      8.21300        -3.601998     -0.176677     -1.706175
      6.91600      7.34400      9.20200         1.407326      0.008375      1.967466
      7.73900      7.40700      4.73100         0.253123      0.334139      1.423571
      9.11600      7.43700      5.95200         0.304630      0.091813      0.335552
      6.17700      7.71300      6.59000        -2.203603      0.088743      0.030983
      8.84600      7.82600      8.32700         0.254149     -0.119723      0.119904
      5.81400      7.20500      9.12700         0.828790      0.069784     -0.293756
      7.36500      7.22100     10.25200        -0.859689      0.178308     -1.220920
 -----------------------------------------------------------------------------------
    total drift:                               -0.002209      0.005869      0.003486


--------------------------------------------------------------------------------------------------------



  FREE ENERGIE OF THE ION-ELECTRON SYSTEM (eV)
  ---------------------------------------------------
  free  energy   TOTEN  =       -56.32323747 eV

  energy  without entropy=      -56.32323747  energy(sigma->0) =      -56.32323747
 


--------------------------------------------------------------------------------------------------------


    POTLOK:  cpu time      0.5048: real time      0.5073


--------------------------------------------------------------------------------------------------------


 stress matrix after NEB project (eV)
      1.00956     -0.80196     -4.50356
     -0.80196     -0.23790      0.36948
     -4.50357      0.36948     -0.50529
  FORCES: max atom, RMS     5.905687    3.070634
  FORCE total and by dimension    9.710199    5.551319
  Stress total and by dimension    6.592012    4.503566
     LOOP+:  cpu time     30.1042: real time     30.2553
    4ORBIT:  cpu time      0.0000: real time      0.0000

 total amount of memory used by VASP MPI-rank0   224783. kBytes
=======================================================================

   base      :      30000. kBytes
   nonlr-proj:       1259. kBytes
   fftplans  :     123538. kBytes
   grid      :      67787. kBytes
   one-center:         15. kBytes
   wavefun   :       2184. kBytes
 
  
  
 General timing and accounting informations for this job:
 ========================================================
  
                  Total CPU time used (sec):       36.706
                            User time (sec):       33.477
                          System time (sec):        3.229
                         Elapsed time (sec):       37.639
  
                   Maximum memory used (kb):      558576.
                   Average memory used (kb):          N/A
  
                          Minor page faults:       197304
                          Major page faults:         5438
                 Voluntary context switches:         3117
