 vasp.6.4.2 20Jul23 (build Apr 10 2024 13:39:58) complex                        
  
 executed on             LinuxIFC date 2024.05.17  07:55:23
 running   16 mpi-ranks, on    1 nodes
 distrk:  each k-point on   16 cores,    1 groups
 distr:  one band on NCORE=   2 cores,    8 groups


--------------------------------------------------------------------------------------------------------


 INCAR:
   ISTART = 0
   ISPIN = 1
   LREAL = Auto
   ENCUT = 520
   NPAR = 8
   LPLANE = .TRUE.
   LSCALU = .FALSE.
   NSIM = 4
   LWAVE = .FALSE.
   LCHARG = .FALSE.
   ADDGRID = .TRUE.
   LASPH = .TRUE.
   PREC = Accurate
   ISMEAR = 0
   SIGMA = 0.05
   EDIFF = 1E-06
   NSW = 0
   TEBEG = 300
   TEEND = 700     	
   ISYM = 0
   NWRITE = 2

 POTCAR:   PAW_PBE C 08Apr2002                    
 POTCAR:   PAW_PBE H 15Jun2001                    
 POTCAR:   PAW_PBE C 08Apr2002                    
   VRHFIN =C: s2p2                                                                                  
   LEXCH  = PE                                                                                      
   EATOM  =   147.1560 eV,   10.8157 Ry                                                             
                                                                                                    
   TITEL  = PAW_PBE C 08Apr2002                                                                     
   LULTRA =        F    use ultrasoft PP ?                                                          
   IUNSCR =        0    unscreen: 0-lin 1-nonlin 2-no                                               
   RPACOR =     .000    partial core radius                                                         
   POMASS =   12.011; ZVAL   =    4.000    mass and valenz                                          
   RCORE  =    1.500    outmost cutoff radius                                                       
   RWIGS  =    1.630; RWIGS  =     .863    wigner-seitz radius (au A)                               
   ENMAX  =  400.000; ENMIN  =  300.000 eV                                                          
   ICORE  =        2    local potential                                                             
   LCOR   =        T    correct aug charges                                                         
   LPAW   =        T    paw PP                                                                      
   EAUG   =  644.873                                                                                
   DEXC   =     .000                                                                                
   RMAX   =    2.266    core radius for proj-oper                                                   
   RAUG   =    1.300    factor for augmentation sphere                                              
   RDEP   =    1.501    radius for radial grids                                                     
   RDEPT  =    1.300    core radius for aug-charge                                                  
   QCUT   =   -5.516; QGAM   =   11.032    optimization parameters                                  
                                                                                                    
   Description                                                                                      
     l     E      TYP  RCUT    TYP  RCUT                                                            
     0   .000     23  1.200                                                                         
     0   .000     23  1.200                                                                         
     1   .000     23  1.500                                                                         
     1  2.500     23  1.500                                                                         
     2   .000      7  1.500                                                                         
  local pseudopotential read in
  atomic valenz-charges read in
  non local Contribution for L=           0  read in
    real space projection operators read in
  non local Contribution for L=           0  read in
    real space projection operators read in
  non local Contribution for L=           1  read in
    real space projection operators read in
  non local Contribution for L=           1  read in
    real space projection operators read in
    PAW grid and wavefunctions read in
 
   number of l-projection  operators is LMAX  =           4
   number of lm-projection operators is LMMAX =           8
 
 POTCAR:   PAW_PBE H 15Jun2001                    
   VRHFIN =H: ultrasoft test                                                                        
   LEXCH  = PE                                                                                      
   EATOM  =    12.4884 eV,     .9179 Ry                                                             
                                                                                                    
   TITEL  = PAW_PBE H 15Jun2001                                                                     
   LULTRA =        F    use ultrasoft PP ?                                                          
   IUNSCR =        0    unscreen: 0-lin 1-nonlin 2-no                                               
   RPACOR =     .000    partial core radius                                                         
   POMASS =    1.000; ZVAL   =    1.000    mass and valenz                                          
   RCORE  =    1.100    outmost cutoff radius                                                       
   RWIGS  =     .700; RWIGS  =     .370    wigner-seitz radius (au A)                               
   ENMAX  =  250.000; ENMIN  =  200.000 eV                                                          
   RCLOC  =     .701    cutoff for local pot                                                        
   LCOR   =        T    correct aug charges                                                         
   LPAW   =        T    paw PP                                                                      
   EAUG   =  400.000                                                                                
   RMAX   =    2.174    core radius for proj-oper                                                   
   RAUG   =    1.200    factor for augmentation sphere                                              
   RDEP   =    1.112    radius for radial grids                                                     
   QCUT   =   -5.749; QGAM   =   11.498    optimization parameters                                  
                                                                                                    
   Description                                                                                      
     l     E      TYP  RCUT    TYP  RCUT                                                            
     0   .000     23  1.100                                                                         
     0   .500     23  1.100                                                                         
     1  -.300     23  1.100                                                                         
  local pseudopotential read in
  atomic valenz-charges read in
  non local Contribution for L=           0  read in
    real space projection operators read in
  non local Contribution for L=           0  read in
    real space projection operators read in
  non local Contribution for L=           1  read in
    real space projection operators read in
    PAW grid and wavefunctions read in
 
   number of l-projection  operators is LMAX  =           3
   number of lm-projection operators is LMMAX =           5
 
 Optimization of the real space projectors (new method)

 maximal supplied QI-value         = 25.13
 optimisation between [QCUT,QGAM] = [ 11.56, 23.12] = [ 37.43,149.72] Ry 
 Optimized for a Real-space Cutoff    1.04 Angstroem

   l    n(q)    QCUT    max X(q) W(low)/X(q) W(high)/X(q)  e(spline) 
   0      7    11.561     5.582    0.47E-04    0.94E-04    0.17E-07
   0      7    11.561    69.432    0.20E-03    0.59E-03    0.21E-06
   1      7    11.561     2.780    0.24E-04    0.70E-04    0.44E-07
   1      7    11.561     4.549    0.18E-03    0.25E-03    0.12E-06
 Optimization of the real space projectors (new method)

 maximal supplied QI-value         = 34.20
 optimisation between [QCUT,QGAM] = [ 11.63, 23.26] = [ 37.87,151.49] Ry 
 Optimized for a Real-space Cutoff    1.21 Angstroem

   l    n(q)    QCUT    max X(q) W(low)/X(q) W(high)/X(q)  e(spline) 
   0      8    11.629     4.436    0.19E-04    0.32E-04    0.47E-07
   0      8    11.629    16.131    0.16E-03    0.33E-03    0.21E-06
   1      8    11.629     4.654    0.18E-03    0.16E-03    0.26E-06
 PAW_PBE C 08Apr2002                    :
 energy of atom  1       EATOM= -147.1560
 kinetic energy error for atom=    0.0071 (will be added to EATOM!!)
 PAW_PBE H 15Jun2001                    :
 energy of atom  2       EATOM=  -12.4884
 kinetic energy error for atom=    0.0014 (will be added to EATOM!!)
 
 
 POSCAR:  C  H
  positions in cartesian coordinates
  No initial velocities read in
 exchange correlation table for  LEXCH =        8
   RHO(1)=    0.500       N(1)  =     2000
   RHO(2)=  100.500       N(2)  =     4000

 VTST: version 4.1, (05/19/21)

 CHAIN: initializing optimizer
 
 OPT: Using VASP Dynamics algorithm
 CHAIN: Read ICHAIN            0
 
 POSCAR:  C  H
  positions in cartesian coordinates
  No initial velocities read in
 


--------------------------------------------------------------------------------------------------------


 ion  position               nearest neighbor table
   1  0.528  0.533  0.400-   5 1.03   6 1.05   2 1.38
   2  0.497  0.459  0.445-   7 1.06   1 1.38   3 1.56
   3  0.494  0.451  0.548-   8 1.07   4 1.39   2 1.56
   4  0.477  0.524  0.603-  10 1.05   9 1.13   3 1.39
   5  0.531  0.545  0.333-   1 1.03
   6  0.550  0.586  0.440-   1 1.05
   7  0.477  0.402  0.409-   2 1.06
   8  0.502  0.387  0.579-   3 1.07
   9  0.466  0.591  0.570-   4 1.13
  10  0.477  0.522  0.673-   4 1.05
 

IMPORTANT INFORMATION: All symmetrisations will be switched off!
NOSYMM: (Re-)initialisation of all symmetry stuff for point group C_1.


----------------------------------------------------------------------------------------

                                     Primitive cell                                     

  volume of cell :    3375.0000

  direct lattice vectors                    reciprocal lattice vectors
    15.000000000  0.000000000  0.000000000     0.066666667  0.000000000  0.000000000
     0.000000000 15.000000000  0.000000000     0.000000000  0.066666667  0.000000000
     0.000000000  0.000000000 15.000000000     0.000000000  0.000000000  0.066666667

  length of vectors
    15.000000000 15.000000000 15.000000000     0.066666667  0.066666667  0.066666667

  position of ions in fractional coordinates (direct lattice)
     0.528333346  0.532999992  0.400466665
     0.496533330  0.459333324  0.444799995
     0.494200007  0.450800006  0.548399989
     0.477399985  0.523933347  0.602866681
     0.531400013  0.544666672  0.332933331
     0.550266647  0.586200015  0.439999994
     0.476933320  0.402266661  0.408533319
     0.502000014  0.386666679  0.578599993
     0.466066678  0.591200002  0.570399984
     0.476866659  0.521866671  0.673000018

  ion indices of the primitive-cell ions
   primitive index   ion index
                 1           1
                 2           2
                 3           3
                 4           4
                 5           5
                 6           6
                 7           7
                 8           8
                 9           9
                10          10

----------------------------------------------------------------------------------------

 
 
 KPOINTS: K-Spacing Value to Generate K-Mesh: 1.00

Automatic generation of k-mesh.
 Grid dimensions read from file:
 generate k-points for:    1    1    1

 Generating k-lattice:

  Cartesian coordinates                     Fractional coordinates (reciprocal lattice)
     0.066666667  0.000000000  0.000000000     1.000000000  0.000000000  0.000000000
     0.000000000  0.066666667  0.000000000     0.000000000  1.000000000  0.000000000
     0.000000000  0.000000000  0.066666667     0.000000000  0.000000000  1.000000000

  Length of vectors
     0.066666667  0.066666667  0.066666667

  Shift w.r.t. Gamma in fractional coordinates (k-lattice)
     0.000000000  0.000000000  0.000000000

 
 Subroutine IBZKPT returns following result:
 ===========================================
 
 Found      1 irreducible k-points:
 
 Following reciprocal coordinates:
            Coordinates               Weight
  0.000000  0.000000  0.000000      1.000000
 
 Following cartesian coordinates:
            Coordinates               Weight
  0.000000  0.000000  0.000000      1.000000
 


--------------------------------------------------------------------------------------------------------




 Dimension of arrays:
   k-points           NKPTS =      1   k-points in BZ     NKDIM =      1   number of bands    NBANDS=     24
   number of dos      NEDOS =    301   number of ions     NIONS =     10
   non local maximal  LDIM  =      4   non local SUM 2l+1 LMDIM =      8
   total plane-waves  NPLWV = ******
   max r-space proj   IRMAX =   3145   max aug-charges    IRDMAX=  39494
   dimension x,y,z NGX =   112 NGY =  112 NGZ =  112
   dimension x,y,z NGXF=   224 NGYF=  224 NGZF=  224
   support grid    NGXF=   448 NGYF=  448 NGZF=  448
   ions per type =               4   6
   NGX,Y,Z   is equivalent  to a cutoff of  12.41, 12.41, 12.41 a.u.
   NGXF,Y,Z  is equivalent  to a cutoff of  24.83, 24.83, 24.83 a.u.

 SYSTEM =  unknown system                          
 POSCAR =   C  H                                   

 Startparameter for this run:
   NWRITE =      2    write-flag & timer
   PREC   = accura    normal or accurate (medium, high low for compatibility)
   ISTART =      0    job   : 0-new  1-cont  2-samecut
   ICHARG =      2    charge: 1-file 2-atom 10-const
   ISPIN  =      1    spin polarized calculation?
   LNONCOLLINEAR =      F non collinear calculations
   LSORBIT =      F    spin-orbit coupling
   INIWAV =      1    electr: 0-lowe 1-rand  2-diag
   LASPH  =      T    aspherical Exc in radial PAW
 Electronic Relaxation 1
   ENCUT  =  520.0 eV  38.22 Ry    6.18 a.u.  27.89 27.89 27.89*2*pi/ulx,y,z
   ENINI  =  520.0     initial cutoff
   ENAUG  =  644.9 eV  augmentation charge cutoff
   NELM   =     60;   NELMIN=  2; NELMDL= -5     # of ELM steps 
   EDIFF  = 0.1E-05   stopping-criterion for ELM
   LREAL  =      T    real-space projection
   NLSPLINE    = F    spline interpolate recip. space projectors
   LCOMPAT=      F    compatible to vasp.4.4
   GGA_COMPAT  = T    GGA compatible to vasp.4.4-vasp.4.6
   LMAXPAW     = -100 max onsite density
   LMAXMIX     =    2 max onsite mixed and CHGCAR
   VOSKOWN=      0    Vosko Wilk Nusair interpolation
   ROPT   =   -0.00025  -0.00025
 Ionic relaxation
   EDIFFG = 0.1E-04   stopping-criterion for IOM
   NSW    =      0    number of steps for IOM
   NBLOCK =      1;   KBLOCK =      1    inner block; outer block 
   IBRION =     -1    ionic relax: 0-MD 1-quasi-New 2-CG
   NFREE  =      0    steps in history (QN), initial steepest desc. (CG)
   ISIF   =      2    stress and relaxation
   IWAVPR =     10    prediction:  0-non 1-charg 2-wave 3-comb
   ISYM   =      0    0-nonsym 1-usesym 2-fastsym
   LCORR  =      T    Harris-Foulkes like correction to forces

   POTIM  = 0.5000    time-step for ionic-motion
   TEIN   =    0.0    initial temperature
   TEBEG  =  300.0;   TEEND  = 700.0 temperature during run
   SMASS  =  -3.00    Nose mass-parameter (am)
   estimated Nose-frequenzy (Omega)   =  0.10E-29 period in steps = 0.13E+47 mass=  -0.514E-26a.u.
   SCALEE = 1.0000    scale energy and forces
   NPACO  =    256;   APACO  = 10.0  distance and # of slots for P.C.
   PSTRESS=    0.0 pullay stress

  Mass of Ions in am
   POMASS =  12.01  1.00
  Ionic Valenz
   ZVAL   =   4.00  1.00
  Atomic Wigner-Seitz radii
   RWIGS  =  -1.00 -1.00
  virtual crystal weights 
   VCA    =   1.00  1.00
   NELECT =      22.0000    total number of electrons
   NUPDOWN=      -1.0000    fix difference up-down

 DOS related values:
   EMIN   =  10.00;   EMAX   =-10.00  energy-range for DOS
   EFERMI =   0.00;   METHOD = LEGACY      
   ISMEAR =     0;   SIGMA  =   0.05  broadening in eV -4-tet -1-fermi 0-gaus

 Electronic relaxation 2 (details)
   IALGO  =     38    algorithm
   LDIAG  =      T    sub-space diagonalisation (order eigenvalues)
   LSUBROT=      F    optimize rotation matrix (better conditioning)
   TURBO    =      0    0=normal 1=particle mesh
   IRESTART =      0    0=no restart 2=restart with 2 vectors
   NREBOOT  =      0    no. of reboots
   NMIN     =      0    reboot dimension
   EREF     =   0.00    reference energy to select bands
   IMIX   =      4    mixing-type and parameters
     AMIX     =   0.40;   BMIX     =  1.00
     AMIX_MAG =   1.60;   BMIX_MAG =  1.00
     AMIN     =   0.10
     WC   =   100.;   INIMIX=   1;  MIXPRE=   1;  MAXMIX= -45

 Intra band minimization:
   WEIMIN = 0.0000     energy-eigenvalue tresh-hold
   EBREAK =  0.10E-07  absolut break condition
   DEPER  =   0.30     relativ break condition  

   TIME   =   0.40     timestep for ELM

  volume/ion in A,a.u.               =     337.50      2277.56
  Fermi-wavevector in a.u.,A,eV,Ry     =   0.305814  0.577905  1.272449  0.093522
  Thomas-Fermi vector in A             =   1.179187
 
 Write flags
   LWAVE        =      F    write WAVECAR
   LDOWNSAMPLE  =      F    k-point downsampling of WAVECAR
   LCHARG       =      F    write CHGCAR
   LVTOT        =      F    write LOCPOT, total local potential
   LVHAR        =      F    write LOCPOT, Hartree potential only
   LELF         =      F    write electronic localiz. function (ELF)
   LORBIT       =      0    0 simple, 1 ext, 2 COOP (PROOUT), +10 PAW based schemes


 Dipole corrections
   LMONO  =      F    monopole corrections only (constant potential shift)
   LDIPOL =      F    correct potential (dipole corrections)
   IDIPOL =      0    1-x, 2-y, 3-z, 4-all directions 
   EPSILON=  1.0000000 bulk dielectric constant

 Exchange correlation treatment:
   GGA     =    --    GGA type
   LEXCH   =     8    internal setting for exchange type
   LIBXC   =     F    Libxc                    
   VOSKOWN =     0    Vosko Wilk Nusair interpolation
   LHFCALC =     F    Hartree Fock is set to
   LHFONE  =     F    Hartree Fock one center treatment
   AEXX    =    0.0000 exact exchange contribution

 Linear response parameters
   LEPSILON=     F    determine dielectric tensor
   LRPA    =     F    only Hartree local field effects (RPA)
   LNABLA  =     F    use nabla operator in PAW spheres
   LVEL    =     F    velocity operator in full k-point grid
   CSHIFT  =0.1000    complex shift for real part using Kramers Kronig
   OMEGAMAX=  -1.0    maximum frequency
   DEG_THRESHOLD= 0.2000000E-02 threshold for treating states as degnerate
   RTIME   =   -0.100 relaxation time in fs
  (WPLASMAI=    0.000 imaginary part of plasma frequency in eV, 0.658/RTIME)
   DFIELD  = 0.0000000 0.0000000 0.0000000 field for delta impulse in time
 
  Optional k-point grid parameters
   LKPOINTS_OPT  =     F    use optional k-point grid
   KPOINTS_OPT_MODE=     1    mode for optional k-point grid
 
 Orbital magnetization related:
   ORBITALMAG=     F  switch on orbital magnetization
   LCHIMAG   =     F  perturbation theory with respect to B field
   DQ        =  0.001000  dq finite difference perturbation B field
   LLRAUG    =     F  two centre corrections for induced B field
   LBONE     =     F  B-component reconstruction in AE one-centre
   LVGVCALC  =     T  calculate vGv susceptibility
   LVGVAPPL  =     F  apply vGv susceptibility instead of pGv for G=0

 Random number generation:
   RANDOM_GENERATOR = DEFAULT
   PCG_SEED         = not used


--------------------------------------------------------------------------------------------------------


 Static calculation
 charge density and potential will be updated during run
 non-spin polarized calculation
 Variant of blocked Davidson
 Davidson routine will perform the subspace rotation
 perform sub-space diagonalisation
    after iterative eigenvector-optimisation
 modified Broyden-mixing scheme, WC =      100.0
 initial mixing is a Kerker type mixing with AMIX =  0.4000 and BMIX =      1.0000
 Hartree-type preconditioning will be used
 using additional bands           13
 real space projection scheme for non local part
 calculate Harris-corrections to forces 
   (improved forces if not selfconsistent)
 use gradient corrections 
 use of overlap-Matrix (Vanderbilt PP)
 Gauss-broadening in eV      SIGMA  =   0.05


--------------------------------------------------------------------------------------------------------


  energy-cutoff  :      520.00
  volume of cell :     3375.00
      direct lattice vectors                 reciprocal lattice vectors
    15.000000000  0.000000000  0.000000000     0.066666667  0.000000000  0.000000000
     0.000000000 15.000000000  0.000000000     0.000000000  0.066666667  0.000000000
     0.000000000  0.000000000 15.000000000     0.000000000  0.000000000  0.066666667

  length of vectors
    15.000000000 15.000000000 15.000000000     0.066666667  0.066666667  0.066666667


 
 k-points in units of 2pi/SCALE and weight: K-Spacing Value to Generate K-Mesh: 1.00
   0.00000000  0.00000000  0.00000000       1.000
 
 k-points in reciprocal lattice and weights: K-Spacing Value to Generate K-Mesh: 1.00
   0.00000000  0.00000000  0.00000000       1.000
 
 position of ions in fractional coordinates (direct lattice) 
   0.52833335  0.53299999  0.40046666
   0.49653333  0.45933332  0.44480000
   0.49420001  0.45080001  0.54839999
   0.47739998  0.52393335  0.60286668
   0.53140001  0.54466667  0.33293333
   0.55026665  0.58620001  0.43999999
   0.47693332  0.40226666  0.40853332
   0.50200001  0.38666668  0.57859999
   0.46606668  0.59120000  0.57039998
   0.47686666  0.52186667  0.67300002
 
 position of ions in cartesian coordinates  (Angst):
   7.92500019  7.99499989  6.00699997
   7.44799995  6.88999987  6.67199993
   7.41300011  6.76200008  8.22599983
   7.16099977  7.85900021  9.04300022
   7.97100019  8.17000008  4.99399996
   8.25399971  8.79300022  6.59999990
   7.15399981  6.03399992  6.12799978
   7.53000021  5.80000019  8.67899990
   6.99100018  8.86800003  8.55599976
   7.15299988  7.82800007 10.09500027
 


--------------------------------------------------------------------------------------------------------


 k-point   1 :   0.0000 0.0000 0.0000  plane waves:   90879

 maximum and minimum number of plane-waves per node :     45467    45412

 maximum number of plane-waves:     90879
 maximum index in each direction: 
   IXMAX=   27   IYMAX=   27   IZMAX=   27
   IXMIN=  -27   IYMIN=  -27   IZMIN=  -27


 real space projection operators:
  total allocation   :       1185.66 KBytes
  max/ min on nodes  :        593.69        591.98


 parallel 3D FFT for wavefunctions:
    minimum data exchange during FFTs selected (reduces bandwidth)
 parallel 3D FFT for charge:
    minimum data exchange during FFTs selected (reduces bandwidth)


 total amount of memory used by VASP MPI-rank0   224784. kBytes
=======================================================================

   base      :      30000. kBytes
   nonlr-proj:       1260. kBytes
   fftplans  :     123538. kBytes
   grid      :      67787. kBytes
   one-center:         15. kBytes
   wavefun   :       2184. kBytes
 
     INWAV:  cpu time      0.0000: real time      0.0000
 Broyden mixing: mesh for mixing (old mesh)
   NGX = 55   NGY = 55   NGZ = 55
  (NGX  =224   NGY  =224   NGZ  =224)
  gives a total of 166375 points

 initial charge density was supplied:
 charge density of overlapping atoms calculated
 number of electron      22.0000000 magnetization 
 keeping initial charge density in first step


--------------------------------------------------------------------------------------------------------


 Maximum index for non-local projection operator         1511
 Maximum index for augmentation-charges         2475 (set IRDMAX)


--------------------------------------------------------------------------------------------------------


 First call to EWALD:  gamma=   0.118
 Maximum number of real-space cells 3x 3x 3
 Maximum number of reciprocal cells 3x 3x 3

    FEWALD:  cpu time      0.0010: real time      0.0011


--------------------------------------- Ionic step        1  -------------------------------------------




--------------------------------------- Iteration      1(   1)  ---------------------------------------


    POTLOK:  cpu time      0.3337: real time      0.3356
    SETDIJ:  cpu time      0.1965: real time      0.1974
     EDDAV:  cpu time      0.4217: real time      0.4240
       DOS:  cpu time      0.0002: real time      0.0002
    --------------------------------------------
      LOOP:  cpu time      0.9522: real time      0.9573

 eigenvalue-minimisations  :    64
 total energy-change (2. order) : 0.1055902E+03  (-0.5257331E+03)
 number of electron      22.0000000 magnetization 
 augmentation part       22.0000000 magnetization 

 Free energy of the ion-electron system (eV)
  ---------------------------------------------------
  alpha Z        PSCENC =         0.62641250
  Ewald energy   TEWEN  =       872.09088332
  -Hartree energ DENC   =     -1297.21547950
  -exchange      EXHF   =         0.00000000
  -V(xc)+E(xc)   XCENC  =        67.06637756
  PAW double counting   =       156.01372664     -160.66969168
  entropy T*S    EENTRO =        -0.00000287
  eigenvalues    EBANDS =      -195.83937821
  atomic energy  EATOM  =       663.51739852
  Solvation  Ediel_sol  =         0.00000000
  ---------------------------------------------------
  free energy    TOTEN  =       105.59024630 eV

  energy without entropy =      105.59024916  energy(sigma->0) =      105.59024773


--------------------------------------------------------------------------------------------------------




--------------------------------------- Iteration      1(   2)  ---------------------------------------


     EDDAV:  cpu time      0.4904: real time      0.4930
       DOS:  cpu time      0.0001: real time      0.0001
    --------------------------------------------
      LOOP:  cpu time      0.4905: real time      0.4932

 eigenvalue-minimisations  :    80
 total energy-change (2. order) :-0.1257373E+03  (-0.1228300E+03)
 number of electron      22.0000000 magnetization 
 augmentation part       22.0000000 magnetization 

 Free energy of the ion-electron system (eV)
  ---------------------------------------------------
  alpha Z        PSCENC =         0.62641250
  Ewald energy   TEWEN  =       872.09088332
  -Hartree energ DENC   =     -1297.21547950
  -exchange      EXHF   =         0.00000000
  -V(xc)+E(xc)   XCENC  =        67.06637756
  PAW double counting   =       156.01372664     -160.66969168
  entropy T*S    EENTRO =        -0.00000000
  eigenvalues    EBANDS =      -321.57673007
  atomic energy  EATOM  =       663.51739852
  Solvation  Ediel_sol  =         0.00000000
  ---------------------------------------------------
  free energy    TOTEN  =       -20.14710270 eV

  energy without entropy =      -20.14710270  energy(sigma->0) =      -20.14710270


--------------------------------------------------------------------------------------------------------




--------------------------------------- Iteration      1(   3)  ---------------------------------------


     EDDAV:  cpu time      0.4087: real time      0.4109
       DOS:  cpu time      0.0001: real time      0.0001
    --------------------------------------------
      LOOP:  cpu time      0.4088: real time      0.4110

 eigenvalue-minimisations  :    64
 total energy-change (2. order) :-0.3941491E+02  (-0.3932281E+02)
 number of electron      22.0000000 magnetization 
 augmentation part       22.0000000 magnetization 

 Free energy of the ion-electron system (eV)
  ---------------------------------------------------
  alpha Z        PSCENC =         0.62641250
  Ewald energy   TEWEN  =       872.09088332
  -Hartree energ DENC   =     -1297.21547950
  -exchange      EXHF   =         0.00000000
  -V(xc)+E(xc)   XCENC  =        67.06637756
  PAW double counting   =       156.01372664     -160.66969168
  entropy T*S    EENTRO =        -0.00000000
  eigenvalues    EBANDS =      -360.99164471
  atomic energy  EATOM  =       663.51739852
  Solvation  Ediel_sol  =         0.00000000
  ---------------------------------------------------
  free energy    TOTEN  =       -59.56201734 eV

  energy without entropy =      -59.56201734  energy(sigma->0) =      -59.56201734


--------------------------------------------------------------------------------------------------------




--------------------------------------- Iteration      1(   4)  ---------------------------------------


     EDDAV:  cpu time      0.4484: real time      0.4508
       DOS:  cpu time      0.0001: real time      0.0001
    --------------------------------------------
      LOOP:  cpu time      0.4485: real time      0.4509

 eigenvalue-minimisations  :    72
 total energy-change (2. order) :-0.3283838E+01  (-0.3275405E+01)
 number of electron      22.0000000 magnetization 
 augmentation part       22.0000000 magnetization 

 Free energy of the ion-electron system (eV)
  ---------------------------------------------------
  alpha Z        PSCENC =         0.62641250
  Ewald energy   TEWEN  =       872.09088332
  -Hartree energ DENC   =     -1297.21547950
  -exchange      EXHF   =         0.00000000
  -V(xc)+E(xc)   XCENC  =        67.06637756
  PAW double counting   =       156.01372664     -160.66969168
  entropy T*S    EENTRO =        -0.00000000
  eigenvalues    EBANDS =      -364.27548224
  atomic energy  EATOM  =       663.51739852
  Solvation  Ediel_sol  =         0.00000000
  ---------------------------------------------------
  free energy    TOTEN  =       -62.84585487 eV

  energy without entropy =      -62.84585487  energy(sigma->0) =      -62.84585487


--------------------------------------------------------------------------------------------------------




--------------------------------------- Iteration      1(   5)  ---------------------------------------


     EDDAV:  cpu time      0.4106: real time      0.4129
       DOS:  cpu time      0.0001: real time      0.0001
    CHARGE:  cpu time      0.1973: real time      0.1981
    MIXING:  cpu time      0.0143: real time      0.0144
    --------------------------------------------
      LOOP:  cpu time      0.6224: real time      0.6255

 eigenvalue-minimisations  :    64
 total energy-change (2. order) :-0.3525068E-01  (-0.3521038E-01)
 number of electron      22.0000000 magnetization 
 augmentation part        0.5775333 magnetization 

 Broyden mixing:
  rms(total) = 0.12038E+01    rms(broyden)= 0.12036E+01
  rms(prec ) = 0.14309E+01
  weight for this iteration     100.00

 Free energy of the ion-electron system (eV)
  ---------------------------------------------------
  alpha Z        PSCENC =         0.62641250
  Ewald energy   TEWEN  =       872.09088332
  -Hartree energ DENC   =     -1297.21547950
  -exchange      EXHF   =         0.00000000
  -V(xc)+E(xc)   XCENC  =        67.06637756
  PAW double counting   =       156.01372664     -160.66969168
  entropy T*S    EENTRO =        -0.00000000
  eigenvalues    EBANDS =      -364.31073292
  atomic energy  EATOM  =       663.51739852
  Solvation  Ediel_sol  =         0.00000000
  ---------------------------------------------------
  free energy    TOTEN  =       -62.88110555 eV

  energy without entropy =      -62.88110555  energy(sigma->0) =      -62.88110555


--------------------------------------------------------------------------------------------------------




--------------------------------------- Iteration      1(   6)  ---------------------------------------


    POTLOK:  cpu time      0.3061: real time      0.3077
    SETDIJ:  cpu time      0.1938: real time      0.1947
     EDDAV:  cpu time      0.4062: real time      0.4084
       DOS:  cpu time      0.0001: real time      0.0001
    CHARGE:  cpu time      0.1922: real time      0.1930
    MIXING:  cpu time      0.0143: real time      0.0144
    --------------------------------------------
      LOOP:  cpu time      1.1127: real time      1.1182

 eigenvalue-minimisations  :    64
 total energy-change (2. order) : 0.5003422E+01  (-0.7584113E+00)
 number of electron      22.0000000 magnetization 
 augmentation part        0.5302264 magnetization 

 Broyden mixing:
  rms(total) = 0.59128E+00    rms(broyden)= 0.59125E+00
  rms(prec ) = 0.69731E+00
  weight for this iteration     100.00

 eigenvalues of (default mixing * dielectric matrix)
  average eigenvalue GAMMA=   1.6096
  1.6096

 Free energy of the ion-electron system (eV)
  ---------------------------------------------------
  alpha Z        PSCENC =         0.62641250
  Ewald energy   TEWEN  =       872.09088332
  -Hartree energ DENC   =     -1342.06813372
  -exchange      EXHF   =         0.00000000
  -V(xc)+E(xc)   XCENC  =        69.50571506
  PAW double counting   =       227.53287733     -232.72423562
  entropy T*S    EENTRO =        -0.00000000
  eigenvalues    EBANDS =      -316.35860120
  atomic energy  EATOM  =       663.51739852
  Solvation  Ediel_sol  =         0.00000000
  ---------------------------------------------------
  free energy    TOTEN  =       -57.87768381 eV

  energy without entropy =      -57.87768381  energy(sigma->0) =      -57.87768381


--------------------------------------------------------------------------------------------------------




--------------------------------------- Iteration      1(   7)  ---------------------------------------


    POTLOK:  cpu time      0.3065: real time      0.3082
    SETDIJ:  cpu time      0.1934: real time      0.1942
     EDDAV:  cpu time      0.3716: real time      0.3736
       DOS:  cpu time      0.0001: real time      0.0001
    CHARGE:  cpu time      0.1953: real time      0.1961
    MIXING:  cpu time      0.0152: real time      0.0152
    --------------------------------------------
      LOOP:  cpu time      1.0821: real time      1.0874

 eigenvalue-minimisations  :    56
 total energy-change (2. order) : 0.1314997E+01  (-0.3853949E+00)
 number of electron      22.0000000 magnetization 
 augmentation part        0.5007812 magnetization 

 Broyden mixing:
  rms(total) = 0.21557E+00    rms(broyden)= 0.21551E+00
  rms(prec ) = 0.25042E+00
  weight for this iteration     100.00

 eigenvalues of (default mixing * dielectric matrix)
  average eigenvalue GAMMA=   1.5057
  1.2016  1.8098

 Free energy of the ion-electron system (eV)
  ---------------------------------------------------
  alpha Z        PSCENC =         0.62641250
  Ewald energy   TEWEN  =       872.09088332
  -Hartree energ DENC   =     -1379.49304548
  -exchange      EXHF   =         0.00000000
  -V(xc)+E(xc)   XCENC  =        71.69617746
  PAW double counting   =       288.25405724     -293.69943067
  entropy T*S    EENTRO =        -0.00000000
  eigenvalues    EBANDS =      -279.55513941
  atomic energy  EATOM  =       663.51739852
  Solvation  Ediel_sol  =         0.00000000
  ---------------------------------------------------
  free energy    TOTEN  =       -56.56268652 eV

  energy without entropy =      -56.56268652  energy(sigma->0) =      -56.56268652


--------------------------------------------------------------------------------------------------------




--------------------------------------- Iteration      1(   8)  ---------------------------------------


    POTLOK:  cpu time      0.3097: real time      0.3114
    SETDIJ:  cpu time      0.1933: real time      0.1941
     EDDAV:  cpu time      0.4096: real time      0.4118
       DOS:  cpu time      0.0001: real time      0.0001
    CHARGE:  cpu time      0.1952: real time      0.1960
    MIXING:  cpu time      0.0144: real time      0.0145
    --------------------------------------------
      LOOP:  cpu time      1.1223: real time      1.1279

 eigenvalue-minimisations  :    64
 total energy-change (2. order) : 0.1313932E+00  (-0.2407137E-01)
 number of electron      22.0000000 magnetization 
 augmentation part        0.4968575 magnetization 

 Broyden mixing:
  rms(total) = 0.10550E+00    rms(broyden)= 0.10549E+00
  rms(prec ) = 0.12957E+00
  weight for this iteration     100.00

 eigenvalues of (default mixing * dielectric matrix)
  average eigenvalue GAMMA=   1.6487
  2.4116  0.8422  1.6923

 Free energy of the ion-electron system (eV)
  ---------------------------------------------------
  alpha Z        PSCENC =         0.62641250
  Ewald energy   TEWEN  =       872.09088332
  -Hartree energ DENC   =     -1386.89754354
  -exchange      EXHF   =         0.00000000
  -V(xc)+E(xc)   XCENC  =        72.20152791
  PAW double counting   =       296.82524192     -302.22047069
  entropy T*S    EENTRO =        -0.00000000
  eigenvalues    EBANDS =      -272.57474329
  atomic energy  EATOM  =       663.51739852
  Solvation  Ediel_sol  =         0.00000000
  ---------------------------------------------------
  free energy    TOTEN  =       -56.43129335 eV

  energy without entropy =      -56.43129335  energy(sigma->0) =      -56.43129335


--------------------------------------------------------------------------------------------------------




--------------------------------------- Iteration      1(   9)  ---------------------------------------


    POTLOK:  cpu time      0.3122: real time      0.3139
    SETDIJ:  cpu time      0.1952: real time      0.1961
     EDDAV:  cpu time      0.3738: real time      0.3760
       DOS:  cpu time      0.0001: real time      0.0001
    CHARGE:  cpu time      0.1947: real time      0.1955
    MIXING:  cpu time      0.0140: real time      0.0140
    --------------------------------------------
      LOOP:  cpu time      1.0901: real time      1.0957

 eigenvalue-minimisations  :    56
 total energy-change (2. order) : 0.5752008E-01  (-0.8812644E-02)
 number of electron      22.0000000 magnetization 
 augmentation part        0.4963767 magnetization 

 Broyden mixing:
  rms(total) = 0.27802E-01    rms(broyden)= 0.27793E-01
  rms(prec ) = 0.50536E-01
  weight for this iteration     100.00

 eigenvalues of (default mixing * dielectric matrix)
  average eigenvalue GAMMA=   1.4232
  2.2450  1.6968  0.8756  0.8756

 Free energy of the ion-electron system (eV)
  ---------------------------------------------------
  alpha Z        PSCENC =         0.62641250
  Ewald energy   TEWEN  =       872.09088332
  -Hartree energ DENC   =     -1393.12386750
  -exchange      EXHF   =         0.00000000
  -V(xc)+E(xc)   XCENC  =        72.57695596
  PAW double counting   =       299.91347142     -305.23238269
  entropy T*S    EENTRO =        -0.00000000
  eigenvalues    EBANDS =      -266.74264479
  atomic energy  EATOM  =       663.51739852
  Solvation  Ediel_sol  =         0.00000000
  ---------------------------------------------------
  free energy    TOTEN  =       -56.37377327 eV

  energy without entropy =      -56.37377327  energy(sigma->0) =      -56.37377327


--------------------------------------------------------------------------------------------------------




--------------------------------------- Iteration      1(  10)  ---------------------------------------


    POTLOK:  cpu time      0.3129: real time      0.3147
    SETDIJ:  cpu time      0.1956: real time      0.1964
     EDDAV:  cpu time      0.4484: real time      0.4510
       DOS:  cpu time      0.0001: real time      0.0001
    CHARGE:  cpu time      0.1948: real time      0.1955
    MIXING:  cpu time      0.0145: real time      0.0146
    --------------------------------------------
      LOOP:  cpu time      1.1664: real time      1.1723

 eigenvalue-minimisations  :    72
 total energy-change (2. order) : 0.4024113E-02  (-0.1277830E-02)
 number of electron      22.0000000 magnetization 
 augmentation part        0.4957928 magnetization 

 Broyden mixing:
  rms(total) = 0.17018E-01    rms(broyden)= 0.17015E-01
  rms(prec ) = 0.37962E-01
  weight for this iteration     100.00

 eigenvalues of (default mixing * dielectric matrix)
  average eigenvalue GAMMA=   1.6252
  2.4249  2.4249  0.9770  0.9770  1.3223

 Free energy of the ion-electron system (eV)
  ---------------------------------------------------
  alpha Z        PSCENC =         0.62641250
  Ewald energy   TEWEN  =       872.09088332
  -Hartree energ DENC   =     -1394.75260360
  -exchange      EXHF   =         0.00000000
  -V(xc)+E(xc)   XCENC  =        72.60245380
  PAW double counting   =       299.85035374     -305.17934934
  entropy T*S    EENTRO =        -0.00000000
  eigenvalues    EBANDS =      -265.12529809
  atomic energy  EATOM  =       663.51739852
  Solvation  Ediel_sol  =         0.00000000
  ---------------------------------------------------
  free energy    TOTEN  =       -56.36974915 eV

  energy without entropy =      -56.36974915  energy(sigma->0) =      -56.36974915


--------------------------------------------------------------------------------------------------------




--------------------------------------- Iteration      1(  11)  ---------------------------------------


    POTLOK:  cpu time      0.3125: real time      0.3142
    SETDIJ:  cpu time      0.1947: real time      0.1956
     EDDAV:  cpu time      0.3679: real time      0.3699
       DOS:  cpu time      0.0001: real time      0.0001
    CHARGE:  cpu time      0.1940: real time      0.1948
    MIXING:  cpu time      0.0167: real time      0.0168
    --------------------------------------------
      LOOP:  cpu time      1.0861: real time      1.0914

 eigenvalue-minimisations  :    56
 total energy-change (2. order) : 0.1302842E-01  (-0.1403411E-02)
 number of electron      22.0000000 magnetization 
 augmentation part        0.4950038 magnetization 

 Broyden mixing:
  rms(total) = 0.85842E-02    rms(broyden)= 0.85818E-02
  rms(prec ) = 0.18354E-01
  weight for this iteration     100.00

 eigenvalues of (default mixing * dielectric matrix)
  average eigenvalue GAMMA=   1.6651
  3.1743  2.4199  1.4819  0.8839  1.0152  1.0152

 Free energy of the ion-electron system (eV)
  ---------------------------------------------------
  alpha Z        PSCENC =         0.62641250
  Ewald energy   TEWEN  =       872.09088332
  -Hartree energ DENC   =     -1400.09688218
  -exchange      EXHF   =         0.00000000
  -V(xc)+E(xc)   XCENC  =        72.73600733
  PAW double counting   =       298.47426404     -303.79281279
  entropy T*S    EENTRO =        -0.00000000
  eigenvalues    EBANDS =      -259.91199148
  atomic energy  EATOM  =       663.51739852
  Solvation  Ediel_sol  =         0.00000000
  ---------------------------------------------------
  free energy    TOTEN  =       -56.35672073 eV

  energy without entropy =      -56.35672073  energy(sigma->0) =      -56.35672073


--------------------------------------------------------------------------------------------------------




--------------------------------------- Iteration      1(  12)  ---------------------------------------


    POTLOK:  cpu time      0.3141: real time      0.3158
    SETDIJ:  cpu time      0.1916: real time      0.1924
     EDDAV:  cpu time      0.4489: real time      0.4514
       DOS:  cpu time      0.0001: real time      0.0001
    CHARGE:  cpu time      0.1939: real time      0.1947
    MIXING:  cpu time      0.0166: real time      0.0167
    --------------------------------------------
      LOOP:  cpu time      1.1652: real time      1.1710

 eigenvalue-minimisations  :    72
 total energy-change (2. order) :-0.4751476E-03  (-0.1493046E-03)
 number of electron      22.0000000 magnetization 
 augmentation part        0.4947123 magnetization 

 Broyden mixing:
  rms(total) = 0.68690E-02    rms(broyden)= 0.68688E-02
  rms(prec ) = 0.13425E-01
  weight for this iteration     100.00

 eigenvalues of (default mixing * dielectric matrix)
  average eigenvalue GAMMA=   1.9116
  4.2776  2.5745  2.1195  1.4792  0.8948  1.0178  1.0178

 Free energy of the ion-electron system (eV)
  ---------------------------------------------------
  alpha Z        PSCENC =         0.62641250
  Ewald energy   TEWEN  =       872.09088332
  -Hartree energ DENC   =     -1401.56362963
  -exchange      EXHF   =         0.00000000
  -V(xc)+E(xc)   XCENC  =        72.76252603
  PAW double counting   =       298.15223759     -303.47168544
  entropy T*S    EENTRO =        -0.00000000
  eigenvalues    EBANDS =      -258.47133876
  atomic energy  EATOM  =       663.51739852
  Solvation  Ediel_sol  =         0.00000000
  ---------------------------------------------------
  free energy    TOTEN  =       -56.35719588 eV

  energy without entropy =      -56.35719588  energy(sigma->0) =      -56.35719588


--------------------------------------------------------------------------------------------------------




--------------------------------------- Iteration      1(  13)  ---------------------------------------


    POTLOK:  cpu time      0.3070: real time      0.3086
    SETDIJ:  cpu time      0.1928: real time      0.1937
     EDDAV:  cpu time      0.3251: real time      0.3269
       DOS:  cpu time      0.0001: real time      0.0001
    CHARGE:  cpu time      0.1950: real time      0.1958
    MIXING:  cpu time      0.0112: real time      0.0112
    --------------------------------------------
      LOOP:  cpu time      1.0312: real time      1.0362

 eigenvalue-minimisations  :    48
 total energy-change (2. order) :-0.1091716E-01  (-0.2284479E-03)
 number of electron      22.0000000 magnetization 
 augmentation part        0.4947132 magnetization 

 Broyden mixing:
  rms(total) = 0.32824E-02    rms(broyden)= 0.32820E-02
  rms(prec ) = 0.64778E-02
  weight for this iteration     100.00

 eigenvalues of (default mixing * dielectric matrix)
  average eigenvalue GAMMA=   1.9059
  4.8849  2.6280  2.1752  1.4143  0.9362  1.0283  1.0903  1.0903

 Free energy of the ion-electron system (eV)
  ---------------------------------------------------
  alpha Z        PSCENC =         0.62641250
  Ewald energy   TEWEN  =       872.09088332
  -Hartree energ DENC   =     -1402.76645130
  -exchange      EXHF   =         0.00000000
  -V(xc)+E(xc)   XCENC  =        72.76681270
  PAW double counting   =       297.90181920     -303.22098064
  entropy T*S    EENTRO =        -0.00000000
  eigenvalues    EBANDS =      -257.28400734
  atomic energy  EATOM  =       663.51739852
  Solvation  Ediel_sol  =         0.00000000
  ---------------------------------------------------
  free energy    TOTEN  =       -56.36811303 eV

  energy without entropy =      -56.36811303  energy(sigma->0) =      -56.36811303


--------------------------------------------------------------------------------------------------------




--------------------------------------- Iteration      1(  14)  ---------------------------------------


    POTLOK:  cpu time      0.3095: real time      0.3112
    SETDIJ:  cpu time      0.1907: real time      0.1916
     EDDAV:  cpu time      0.4083: real time      0.4105
       DOS:  cpu time      0.0001: real time      0.0001
    CHARGE:  cpu time      0.1948: real time      0.1956
    MIXING:  cpu time      0.0175: real time      0.0175
    --------------------------------------------
      LOOP:  cpu time      1.1209: real time      1.1266

 eigenvalue-minimisations  :    64
 total energy-change (2. order) :-0.4830481E-02  (-0.6136759E-04)
 number of electron      22.0000000 magnetization 
 augmentation part        0.4945897 magnetization 

 Broyden mixing:
  rms(total) = 0.21304E-02    rms(broyden)= 0.21302E-02
  rms(prec ) = 0.43438E-02
  weight for this iteration     100.00

 eigenvalues of (default mixing * dielectric matrix)
  average eigenvalue GAMMA=   2.1683
  6.3316  3.3696  2.2850  2.0419  1.3362  1.3362  0.9638  0.9638  0.8868

 Free energy of the ion-electron system (eV)
  ---------------------------------------------------
  alpha Z        PSCENC =         0.62641250
  Ewald energy   TEWEN  =       872.09088332
  -Hartree energ DENC   =     -1402.98289664
  -exchange      EXHF   =         0.00000000
  -V(xc)+E(xc)   XCENC  =        72.76194804
  PAW double counting   =       298.00168938     -303.32123151
  entropy T*S    EENTRO =        -0.00000000
  eigenvalues    EBANDS =      -257.06714713
  atomic energy  EATOM  =       663.51739852
  Solvation  Ediel_sol  =         0.00000000
  ---------------------------------------------------
  free energy    TOTEN  =       -56.37294352 eV

  energy without entropy =      -56.37294352  energy(sigma->0) =      -56.37294352


--------------------------------------------------------------------------------------------------------




--------------------------------------- Iteration      1(  15)  ---------------------------------------


    POTLOK:  cpu time      0.3020: real time      0.3037
    SETDIJ:  cpu time      0.1914: real time      0.1923
     EDDAV:  cpu time      0.4080: real time      0.4102
       DOS:  cpu time      0.0001: real time      0.0001
    CHARGE:  cpu time      0.1938: real time      0.1946
    MIXING:  cpu time      0.0170: real time      0.0170
    --------------------------------------------
      LOOP:  cpu time      1.1122: real time      1.1178

 eigenvalue-minimisations  :    64
 total energy-change (2. order) :-0.5446228E-02  (-0.9518957E-04)
 number of electron      22.0000000 magnetization 
 augmentation part        0.4946089 magnetization 

 Broyden mixing:
  rms(total) = 0.11351E-02    rms(broyden)= 0.11350E-02
  rms(prec ) = 0.19649E-02
  weight for this iteration     100.00

 eigenvalues of (default mixing * dielectric matrix)
  average eigenvalue GAMMA=   2.1760
  6.6435  3.8775  2.4157  1.9722  1.5570  1.2387  1.2387  0.8844  0.9661  0.9661

 Free energy of the ion-electron system (eV)
  ---------------------------------------------------
  alpha Z        PSCENC =         0.62641250
  Ewald energy   TEWEN  =       872.09088332
  -Hartree energ DENC   =     -1403.04120109
  -exchange      EXHF   =         0.00000000
  -V(xc)+E(xc)   XCENC  =        72.74859603
  PAW double counting   =       297.99495995     -303.31358220
  entropy T*S    EENTRO =        -0.00000000
  eigenvalues    EBANDS =      -257.00185677
  atomic energy  EATOM  =       663.51739852
  Solvation  Ediel_sol  =         0.00000000
  ---------------------------------------------------
  free energy    TOTEN  =       -56.37838974 eV

  energy without entropy =      -56.37838974  energy(sigma->0) =      -56.37838974


--------------------------------------------------------------------------------------------------------




--------------------------------------- Iteration      1(  16)  ---------------------------------------


    POTLOK:  cpu time      0.3002: real time      0.3019
    SETDIJ:  cpu time      0.1929: real time      0.1938
     EDDAV:  cpu time      0.4874: real time      0.4902
       DOS:  cpu time      0.0001: real time      0.0001
    CHARGE:  cpu time      0.2009: real time      0.2018
    MIXING:  cpu time      0.0095: real time      0.0096
    --------------------------------------------
      LOOP:  cpu time      1.1911: real time      1.1973

 eigenvalue-minimisations  :    80
 total energy-change (2. order) :-0.1170010E-02  (-0.1448473E-04)
 number of electron      22.0000000 magnetization 
 augmentation part        0.4944870 magnetization 

 Broyden mixing:
  rms(total) = 0.77391E-03    rms(broyden)= 0.77377E-03
  rms(prec ) = 0.12727E-02
  weight for this iteration     100.00

 eigenvalues of (default mixing * dielectric matrix)
  average eigenvalue GAMMA=   2.3017
  7.7312  4.4211  2.4520  2.4520  1.8386  1.3458  1.3458  0.9701  0.9701  0.9385
  0.8529

 Free energy of the ion-electron system (eV)
  ---------------------------------------------------
  alpha Z        PSCENC =         0.62641250
  Ewald energy   TEWEN  =       872.09088332
  -Hartree energ DENC   =     -1403.14385993
  -exchange      EXHF   =         0.00000000
  -V(xc)+E(xc)   XCENC  =        72.75080798
  PAW double counting   =       298.08783481     -303.40698894
  entropy T*S    EENTRO =        -0.00000000
  eigenvalues    EBANDS =      -256.90204802
  atomic energy  EATOM  =       663.51739852
  Solvation  Ediel_sol  =         0.00000000
  ---------------------------------------------------
  free energy    TOTEN  =       -56.37955975 eV

  energy without entropy =      -56.37955975  energy(sigma->0) =      -56.37955975


--------------------------------------------------------------------------------------------------------




--------------------------------------- Iteration      1(  17)  ---------------------------------------


    POTLOK:  cpu time      0.2976: real time      0.2993
    SETDIJ:  cpu time      0.1919: real time      0.1927
     EDDAV:  cpu time      0.4087: real time      0.4109
       DOS:  cpu time      0.0001: real time      0.0001
    CHARGE:  cpu time      0.2003: real time      0.2011
    MIXING:  cpu time      0.0094: real time      0.0095
    --------------------------------------------
      LOOP:  cpu time      1.1079: real time      1.1137

 eigenvalue-minimisations  :    64
 total energy-change (2. order) :-0.7972088E-03  (-0.7454383E-05)
 number of electron      22.0000000 magnetization 
 augmentation part        0.4945187 magnetization 

 Broyden mixing:
  rms(total) = 0.30306E-03    rms(broyden)= 0.30301E-03
  rms(prec ) = 0.57048E-03
  weight for this iteration     100.00

 eigenvalues of (default mixing * dielectric matrix)
  average eigenvalue GAMMA=   2.2794
  7.9294  4.8357  2.7713  2.3320  1.7985  1.4157  1.4157  1.0525  1.0525  0.8757
  0.9370  0.9370

 Free energy of the ion-electron system (eV)
  ---------------------------------------------------
  alpha Z        PSCENC =         0.62641250
  Ewald energy   TEWEN  =       872.09088332
  -Hartree energ DENC   =     -1403.10181970
  -exchange      EXHF   =         0.00000000
  -V(xc)+E(xc)   XCENC  =        72.74723868
  PAW double counting   =       298.01307066     -303.33180804
  entropy T*S    EENTRO =        -0.00000000
  eigenvalues    EBANDS =      -256.94173290
  atomic energy  EATOM  =       663.51739852
  Solvation  Ediel_sol  =         0.00000000
  ---------------------------------------------------
  free energy    TOTEN  =       -56.38035696 eV

  energy without entropy =      -56.38035696  energy(sigma->0) =      -56.38035696


--------------------------------------------------------------------------------------------------------




--------------------------------------- Iteration      1(  18)  ---------------------------------------


    POTLOK:  cpu time      0.2953: real time      0.2969
    SETDIJ:  cpu time      0.1897: real time      0.1905
     EDDAV:  cpu time      0.4077: real time      0.4100
       DOS:  cpu time      0.0001: real time      0.0001
    CHARGE:  cpu time      0.2007: real time      0.2016
    MIXING:  cpu time      0.0097: real time      0.0097
    --------------------------------------------
      LOOP:  cpu time      1.1032: real time      1.1088

 eigenvalue-minimisations  :    64
 total energy-change (2. order) :-0.1672047E-03  (-0.8271629E-06)
 number of electron      22.0000000 magnetization 
 augmentation part        0.4945100 magnetization 

 Broyden mixing:
  rms(total) = 0.20237E-03    rms(broyden)= 0.20230E-03
  rms(prec ) = 0.38749E-03
  weight for this iteration     100.00

 eigenvalues of (default mixing * dielectric matrix)
  average eigenvalue GAMMA=   2.3524
  8.4811  5.1689  3.1134  2.4498  2.1164  1.6145  1.6145  1.1841  1.1841  0.9576
  0.9576  0.9023  0.8372

 Free energy of the ion-electron system (eV)
  ---------------------------------------------------
  alpha Z        PSCENC =         0.62641250
  Ewald energy   TEWEN  =       872.09088332
  -Hartree energ DENC   =     -1403.12753297
  -exchange      EXHF   =         0.00000000
  -V(xc)+E(xc)   XCENC  =        72.74801844
  PAW double counting   =       298.01861167     -303.33732353
  entropy T*S    EENTRO =        -0.00000000
  eigenvalues    EBANDS =      -256.91699212
  atomic energy  EATOM  =       663.51739852
  Solvation  Ediel_sol  =         0.00000000
  ---------------------------------------------------
  free energy    TOTEN  =       -56.38052417 eV

  energy without entropy =      -56.38052417  energy(sigma->0) =      -56.38052417


--------------------------------------------------------------------------------------------------------




--------------------------------------- Iteration      1(  19)  ---------------------------------------


    POTLOK:  cpu time      0.2959: real time      0.2975
    SETDIJ:  cpu time      0.1903: real time      0.1910
     EDDAV:  cpu time      0.3658: real time      0.3679
       DOS:  cpu time      0.0001: real time      0.0001
    CHARGE:  cpu time      0.2009: real time      0.2017
    MIXING:  cpu time      0.0105: real time      0.0105
    --------------------------------------------
      LOOP:  cpu time      1.0635: real time      1.0688

 eigenvalue-minimisations  :    56
 total energy-change (2. order) :-0.1696272E-03  (-0.7060641E-06)
 number of electron      22.0000000 magnetization 
 augmentation part        0.4945085 magnetization 

 Broyden mixing:
  rms(total) = 0.14003E-03    rms(broyden)= 0.13995E-03
  rms(prec ) = 0.22090E-03
  weight for this iteration     100.00

 eigenvalues of (default mixing * dielectric matrix)
  average eigenvalue GAMMA=   2.3027
  8.5910  5.2701  3.2951  2.3724  2.1699  1.7740  1.3603  1.3603  1.1711  1.1711
  0.9657  0.9657  0.8547  0.9170

 Free energy of the ion-electron system (eV)
  ---------------------------------------------------
  alpha Z        PSCENC =         0.62641250
  Ewald energy   TEWEN  =       872.09088332
  -Hartree energ DENC   =     -1403.12853734
  -exchange      EXHF   =         0.00000000
  -V(xc)+E(xc)   XCENC  =        72.74758591
  PAW double counting   =       298.01349362     -303.33236419
  entropy T*S    EENTRO =        -0.00000000
  eigenvalues    EBANDS =      -256.91556614
  atomic energy  EATOM  =       663.51739852
  Solvation  Ediel_sol  =         0.00000000
  ---------------------------------------------------
  free energy    TOTEN  =       -56.38069379 eV

  energy without entropy =      -56.38069379  energy(sigma->0) =      -56.38069379


--------------------------------------------------------------------------------------------------------




--------------------------------------- Iteration      1(  20)  ---------------------------------------


    POTLOK:  cpu time      0.2981: real time      0.2998
    SETDIJ:  cpu time      0.1922: real time      0.1930
     EDDAV:  cpu time      0.3733: real time      0.3753
       DOS:  cpu time      0.0001: real time      0.0001
    CHARGE:  cpu time      0.2001: real time      0.2009
    MIXING:  cpu time      0.0108: real time      0.0109
    --------------------------------------------
      LOOP:  cpu time      1.0747: real time      1.0801

 eigenvalue-minimisations  :    56
 total energy-change (2. order) :-0.3540365E-04  (-0.1006567E-06)
 number of electron      22.0000000 magnetization 
 augmentation part        0.4945162 magnetization 

 Broyden mixing:
  rms(total) = 0.10013E-03    rms(broyden)= 0.10002E-03
  rms(prec ) = 0.15298E-03
  weight for this iteration     100.00

 eigenvalues of (default mixing * dielectric matrix)
  average eigenvalue GAMMA=   2.3497
  8.8040  5.6800  3.7717  2.6309  2.4308  1.7881  1.4454  1.4454  1.3012  1.3012
  0.9712  0.9712  0.9256  0.9256  0.8527

 Free energy of the ion-electron system (eV)
  ---------------------------------------------------
  alpha Z        PSCENC =         0.62641250
  Ewald energy   TEWEN  =       872.09088332
  -Hartree energ DENC   =     -1403.12564279
  -exchange      EXHF   =         0.00000000
  -V(xc)+E(xc)   XCENC  =        72.74738794
  PAW double counting   =       298.00526645     -303.32400354
  entropy T*S    EENTRO =        -0.00000000
  eigenvalues    EBANDS =      -256.91843161
  atomic energy  EATOM  =       663.51739852
  Solvation  Ediel_sol  =         0.00000000
  ---------------------------------------------------
  free energy    TOTEN  =       -56.38072920 eV

  energy without entropy =      -56.38072920  energy(sigma->0) =      -56.38072920


--------------------------------------------------------------------------------------------------------




--------------------------------------- Iteration      1(  21)  ---------------------------------------


    POTLOK:  cpu time      0.3051: real time      0.3067
    SETDIJ:  cpu time      0.1921: real time      0.1930
     EDDAV:  cpu time      0.3668: real time      0.3689
       DOS:  cpu time      0.0001: real time      0.0001
    CHARGE:  cpu time      0.2007: real time      0.2015
    MIXING:  cpu time      0.0106: real time      0.0107
    --------------------------------------------
      LOOP:  cpu time      1.0754: real time      1.0808

 eigenvalue-minimisations  :    56
 total energy-change (2. order) :-0.2545883E-04  (-0.4289830E-07)
 number of electron      22.0000000 magnetization 
 augmentation part        0.4945144 magnetization 

 Broyden mixing:
  rms(total) = 0.52989E-04    rms(broyden)= 0.52803E-04
  rms(prec ) = 0.81296E-04
  weight for this iteration     100.00

 eigenvalues of (default mixing * dielectric matrix)
  average eigenvalue GAMMA=   2.3313
  8.9543  5.8635  4.1408  2.7701  2.3612  1.7167  1.7167  1.3949  1.2790  1.2790
  1.0933  1.0933  0.9441  0.9441  0.8969  0.8523

 Free energy of the ion-electron system (eV)
  ---------------------------------------------------
  alpha Z        PSCENC =         0.62641250
  Ewald energy   TEWEN  =       872.09088332
  -Hartree energ DENC   =     -1403.12872910
  -exchange      EXHF   =         0.00000000
  -V(xc)+E(xc)   XCENC  =        72.74738741
  PAW double counting   =       298.01154718     -303.33035561
  entropy T*S    EENTRO =        -0.00000000
  eigenvalues    EBANDS =      -256.91529888
  atomic energy  EATOM  =       663.51739852
  Solvation  Ediel_sol  =         0.00000000
  ---------------------------------------------------
  free energy    TOTEN  =       -56.38075466 eV

  energy without entropy =      -56.38075466  energy(sigma->0) =      -56.38075466


--------------------------------------------------------------------------------------------------------




--------------------------------------- Iteration      1(  22)  ---------------------------------------


    POTLOK:  cpu time      0.3069: real time      0.3085
    SETDIJ:  cpu time      0.1929: real time      0.1938
     EDDAV:  cpu time      0.4119: real time      0.4142
       DOS:  cpu time      0.0001: real time      0.0001
    CHARGE:  cpu time      0.2004: real time      0.2012
    MIXING:  cpu time      0.0115: real time      0.0115
    --------------------------------------------
      LOOP:  cpu time      1.1236: real time      1.1293

 eigenvalue-minimisations  :    64
 total energy-change (2. order) :-0.7848887E-05  (-0.9725721E-08)
 number of electron      22.0000000 magnetization 
 augmentation part        0.4945125 magnetization 

 Broyden mixing:
  rms(total) = 0.26290E-04    rms(broyden)= 0.25917E-04
  rms(prec ) = 0.44554E-04
  weight for this iteration     100.00

 eigenvalues of (default mixing * dielectric matrix)
  average eigenvalue GAMMA=   2.4132
  9.0241  6.3289  4.5273  3.2540  2.5563  2.3063  1.6606  1.6606  1.3880  1.3880
  1.1271  1.1271  0.9669  0.9669  0.9426  0.9426  0.8570

 Free energy of the ion-electron system (eV)
  ---------------------------------------------------
  alpha Z        PSCENC =         0.62641250
  Ewald energy   TEWEN  =       872.09088332
  -Hartree energ DENC   =     -1403.13148806
  -exchange      EXHF   =         0.00000000
  -V(xc)+E(xc)   XCENC  =        72.74742774
  PAW double counting   =       298.01323538     -303.33207383
  entropy T*S    EENTRO =        -0.00000000
  eigenvalues    EBANDS =      -256.91255808
  atomic energy  EATOM  =       663.51739852
  Solvation  Ediel_sol  =         0.00000000
  ---------------------------------------------------
  free energy    TOTEN  =       -56.38076251 eV

  energy without entropy =      -56.38076251  energy(sigma->0) =      -56.38076251


--------------------------------------------------------------------------------------------------------




--------------------------------------- Iteration      1(  23)  ---------------------------------------


    POTLOK:  cpu time      0.3074: real time      0.3091
    SETDIJ:  cpu time      0.1926: real time      0.1934
     EDDAV:  cpu time      0.3683: real time      0.3704
       DOS:  cpu time      0.0001: real time      0.0001
    CHARGE:  cpu time      0.2049: real time      0.2057
    MIXING:  cpu time      0.0120: real time      0.0121
    --------------------------------------------
      LOOP:  cpu time      1.0853: real time      1.0908

 eigenvalue-minimisations  :    56
 total energy-change (2. order) :-0.6670972E-05  (-0.1425621E-07)
 number of electron      22.0000000 magnetization 
 augmentation part        0.4945127 magnetization 

 Broyden mixing:
  rms(total) = 0.20327E-04    rms(broyden)= 0.19843E-04
  rms(prec ) = 0.27687E-04
  weight for this iteration     100.00

 eigenvalues of (default mixing * dielectric matrix)
  average eigenvalue GAMMA=   2.3725
  9.0520  6.5256  4.8049  3.2866  2.4984  2.3904  1.7203  1.3490  1.3490  1.4668
  1.4668  1.0782  1.0782  0.9681  0.9681  0.8536  0.9242  0.9242

 Free energy of the ion-electron system (eV)
  ---------------------------------------------------
  alpha Z        PSCENC =         0.62641250
  Ewald energy   TEWEN  =       872.09088332
  -Hartree energ DENC   =     -1403.13218127
  -exchange      EXHF   =         0.00000000
  -V(xc)+E(xc)   XCENC  =        72.74742102
  PAW double counting   =       298.01326259     -303.33207944
  entropy T*S    EENTRO =        -0.00000000
  eigenvalues    EBANDS =      -256.91188641
  atomic energy  EATOM  =       663.51739852
  Solvation  Ediel_sol  =         0.00000000
  ---------------------------------------------------
  free energy    TOTEN  =       -56.38076918 eV

  energy without entropy =      -56.38076918  energy(sigma->0) =      -56.38076918


--------------------------------------------------------------------------------------------------------




--------------------------------------- Iteration      1(  24)  ---------------------------------------


    POTLOK:  cpu time      0.3083: real time      0.3100
    SETDIJ:  cpu time      0.1904: real time      0.1912
     EDDAV:  cpu time      0.4069: real time      0.4092
       DOS:  cpu time      0.0001: real time      0.0001
    --------------------------------------------
      LOOP:  cpu time      0.9057: real time      0.9105

 eigenvalue-minimisations  :    64
 total energy-change (2. order) :-0.7152346E-06  (-0.1607079E-08)
 number of electron      22.0000000 magnetization 
 augmentation part        0.4945127 magnetization 

 Free energy of the ion-electron system (eV)
  ---------------------------------------------------
  alpha Z        PSCENC =         0.62641250
  Ewald energy   TEWEN  =       872.09088332
  -Hartree energ DENC   =     -1403.13279359
  -exchange      EXHF   =         0.00000000
  -V(xc)+E(xc)   XCENC  =        72.74743624
  PAW double counting   =       298.01283138     -303.33164570
  entropy T*S    EENTRO =        -0.00000000
  eigenvalues    EBANDS =      -256.91129257
  atomic energy  EATOM  =       663.51739852
  Solvation  Ediel_sol  =         0.00000000
  ---------------------------------------------------
  free energy    TOTEN  =       -56.38076989 eV

  energy without entropy =      -56.38076989  energy(sigma->0) =      -56.38076989


--------------------------------------------------------------------------------------------------------




 average (electrostatic) potential at core
  the test charge radii are     0.6991  0.5201
  (the norm of the test charge is              1.0000)
       1 -58.4458       2 -58.8969       3 -58.9374       4 -58.6026       5 -42.6449
       6 -42.2064       7 -42.3391       8 -42.3255       9 -41.6100      10 -42.3978
 
 
 
 E-fermi :  -5.4709     XC(G=0):  -0.4405     alpha+bet : -0.1681

 Fermi energy:        -5.4709327166

 k-point     1 :       0.0000    0.0000    0.0000
  band No.  band energies     occupation 
      1     -19.4630      2.00000
      2     -17.7828      2.00000
      3     -15.1311      2.00000
      4     -13.2289      2.00000
      5     -11.8854      2.00000
      6     -10.4220      2.00000
      7     -10.2480      2.00000
      8      -8.8204      2.00000
      9      -8.3915      2.00000
     10      -7.3414      2.00000
     11      -5.7409      2.00000
     12      -1.9785      0.00000
     13      -0.3632      0.00000
     14      -0.0471      0.00000
     15       0.1235      0.00000
     16       0.2535      0.00000
     17       0.4031      0.00000
     18       0.4655      0.00000
     19       0.5586      0.00000
     20       0.6840      0.00000
     21       0.8829      0.00000
     22       0.9496      0.00000
     23       1.0241      0.00000
     24       1.1167      0.00000


--------------------------------------------------------------------------------------------------------


 soft charge-density along one line, spin component           1
         0         1         2         3         4         5         6         7         8         9
 total charge-density along one line
 
 pseudopotential strength for first ion, spin component:           1
 10.249   0.020   0.001   0.000  -0.001  -0.001   0.000   0.000
  0.020  -0.001  -0.000   0.000   0.000  -0.000   0.000  -0.000
  0.001  -0.000  -4.357   0.003  -0.008  -0.019   0.001  -0.002
  0.000   0.000   0.003  -4.362   0.001   0.001  -0.020   0.000
 -0.001   0.000  -0.008   0.001  -4.341  -0.002   0.000  -0.015
 -0.001  -0.000  -0.019   0.001  -0.002  -0.773   0.000  -0.000
  0.000   0.000   0.001  -0.020   0.000   0.000  -0.773   0.000
  0.000  -0.000  -0.002   0.000  -0.015  -0.000   0.000  -0.772
 total augmentation occupancy for first ion, spin component:           1
  1.498  -1.140   0.001  -0.010   0.007  -0.005   0.006  -0.005
 -1.140   0.943   0.024  -0.036   0.032   0.021  -0.019   0.012
  0.001   0.024   1.192  -0.012   0.131   0.200  -0.015   0.049
 -0.010  -0.036  -0.012   1.256   0.005  -0.015   0.218  -0.005
  0.007   0.032   0.131   0.005   0.948   0.048  -0.005   0.107
 -0.005   0.021   0.200  -0.015   0.048   0.037  -0.005   0.012
  0.006  -0.019  -0.015   0.218  -0.005  -0.005   0.039  -0.002
 -0.005   0.012   0.049  -0.005   0.107   0.012  -0.002   0.014


------------------------ aborting loop because EDIFF is reached ----------------------------------------


    CHARGE:  cpu time      0.2013: real time      0.2021
    FORLOC:  cpu time      0.0290: real time      0.0291
    FORNL :  cpu time      1.0681: real time      1.0733
    STRESS:  cpu time      3.3772: real time      3.3933
    FORHAR:  cpu time      0.1086: real time      0.1091
    MIXING:  cpu time      0.0119: real time      0.0119
    OFIELD:  cpu time      0.0001: real time      0.0001

  FORCE on cell =-STRESS in cart. coord.  units (eV):
  Direction    XX          YY          ZZ          XY          YZ          ZX
  --------------------------------------------------------------------------------------
  Alpha Z     0.62641     0.62641     0.62641
  Ewald    -151.54443   369.70433   653.93066    61.45110   -13.67814  -105.83344
  Hartree   223.70831   471.96599   707.45856    29.74244   -10.11930   -76.12919
  E(xc)     -77.71185   -75.86447   -75.66983     0.19610    -0.04067    -0.12635
  Local    -293.50817 -1029.10951 -1547.23238   -86.92561    23.55247   181.89329
  n-local   -28.93392   -31.88680   -31.27553    -0.37945    -0.27026    -0.15957
  augment    -0.46610    -0.63393    -0.65013    -0.02666    -0.00058    -0.00656
  Kinetic   327.62900   293.37421   291.42302    -3.32646     2.05834     1.78143
  Fock        0.00000     0.00000     0.00000     0.00000     0.00000     0.00000
  -------------------------------------------------------------------------------------
  Total      -0.20074    -1.82376    -1.38921     0.73146     1.50185     1.41961
  in kB      -0.09530    -0.86577    -0.65949     0.34724     0.71295     0.67392
  external pressure =       -0.54 kB  Pullay stress =        0.00 kB


 VOLUME and BASIS-vectors are now :
 -----------------------------------------------------------------------------
  energy-cutoff  :      520.00
  volume of cell :     3375.00
      direct lattice vectors                 reciprocal lattice vectors
    15.000000000  0.000000000  0.000000000     0.066666667  0.000000000  0.000000000
     0.000000000 15.000000000  0.000000000     0.000000000  0.066666667  0.000000000
     0.000000000  0.000000000 15.000000000     0.000000000  0.000000000  0.066666667

  length of vectors
    15.000000000 15.000000000 15.000000000     0.066666667  0.066666667  0.066666667


 FORCES acting on ions
    electron-ion (+dipol)            ewald-force                    non-local-force                 convergence-correction
 -----------------------------------------------------------------------------------------------
   -.435E+02 -.796E+02 0.999E+02   0.435E+02 0.782E+02 -.988E+02   -.110E+01 -.902E+00 0.178E+01   -.586E-04 -.134E-03 0.463E-04
   0.288E+02 0.825E+02 0.489E+02   -.288E+02 -.814E+02 -.486E+02   0.110E+01 0.689E+00 0.136E+01   -.133E-04 -.490E-04 0.125E-03
   -.916E+01 0.949E+02 -.384E+02   0.935E+01 -.934E+02 0.384E+02   -.884E+00 0.160E+01 -.929E+00   -.217E-04 0.738E-06 -.673E-04
   0.289E+02 -.794E+02 -.107E+03   -.292E+02 0.793E+02 0.105E+03   0.720E+00 -.385E+00 -.180E+01   0.249E-04 -.145E-03 -.811E-04
   -.669E+01 -.175E+02 0.676E+02   0.695E+01 0.186E+02 -.767E+02   -.353E+00 -.128E+01 0.663E+01   -.437E-05 -.715E-05 -.429E-05
   -.272E+02 -.579E+02 -.151E+02   0.299E+02 0.641E+02 0.197E+02   -.202E+01 -.486E+01 -.367E+01   0.265E-05 0.112E-04 0.161E-04
   0.197E+02 0.577E+02 0.390E+02   -.219E+02 -.639E+02 -.430E+02   0.174E+01 0.510E+01 0.331E+01   0.569E-05 0.970E-05 0.236E-04
   -.741E+01 0.638E+02 -.313E+02   0.820E+01 -.700E+02 0.341E+02   -.662E+00 0.544E+01 -.268E+01   -.613E-05 0.244E-04 -.234E-04
   0.142E+02 -.601E+02 0.438E+01   -.148E+02 0.636E+02 -.603E+01   0.782E+00 -.454E+01 0.223E+01   0.119E-05 -.821E-05 -.361E-05
   0.306E+01 -.538E+01 -.682E+02   -.313E+01 0.500E+01 0.759E+02   0.510E-01 0.144E+00 -.637E+01   0.199E-05 -.116E-04 -.227E-04
 -----------------------------------------------------------------------------------------------
   0.605E+00 -.990E+00 0.111E+00   -.888E-15 -.178E-14 -.142E-13   -.621E+00 0.101E+01 -.119E+00   -.676E-04 -.309E-03 0.880E-05
 
 
 POSITION                                       TOTAL-FORCE (eV/Angst)
 -----------------------------------------------------------------------------------
      7.92500      7.99500      6.00700        -1.160085     -2.378832      2.883403
      7.44800      6.89000      6.67200         1.120181      1.818025      1.618085
      7.41300      6.76200      8.22600        -0.683561      3.119660     -0.956992
      7.16100      7.85900      9.04300         0.387456     -0.535107     -3.439854
      7.97100      8.17000      4.99400        -0.091840     -0.159146     -2.440043
      8.25400      8.79300      6.60000         0.643749      1.338891      0.941766
      7.15400      6.03400      6.12800        -0.443769     -1.113959     -0.645043
      7.53000      5.80000      8.67900         0.126757     -0.791018      0.108010
      6.99100      8.86800      8.55600         0.116629     -1.061299      0.586743
      7.15300      7.82800     10.09500        -0.015518     -0.237215      1.343925
 -----------------------------------------------------------------------------------
    total drift:                               -0.015782      0.016174     -0.007611


--------------------------------------------------------------------------------------------------------



  FREE ENERGIE OF THE ION-ELECTRON SYSTEM (eV)
  ---------------------------------------------------
  free  energy   TOTEN  =       -56.38076989 eV

  energy  without entropy=      -56.38076989  energy(sigma->0) =      -56.38076989
 


--------------------------------------------------------------------------------------------------------


    POTLOK:  cpu time      0.5039: real time      0.5064


--------------------------------------------------------------------------------------------------------


 stress matrix after NEB project (eV)
     -0.20074      0.73146      1.41961
      0.73146     -1.82376      1.50185
      1.41961      1.50185     -1.38921
  FORCES: max atom, RMS     3.913905    2.466112
  FORCE total and by dimension    7.798530    3.439854
  Stress total and by dimension    3.861094    1.823758
     LOOP+:  cpu time     29.2362: real time     29.3831
    4ORBIT:  cpu time      0.0000: real time      0.0000

 total amount of memory used by VASP MPI-rank0   224784. kBytes
=======================================================================

   base      :      30000. kBytes
   nonlr-proj:       1260. kBytes
   fftplans  :     123538. kBytes
   grid      :      67787. kBytes
   one-center:         15. kBytes
   wavefun   :       2184. kBytes
 
  
  
 General timing and accounting informations for this job:
 ========================================================
  
                  Total CPU time used (sec):       35.863
                            User time (sec):       32.778
                          System time (sec):        3.085
                         Elapsed time (sec):       37.330
  
                   Maximum memory used (kb):      558932.
                   Average memory used (kb):          N/A
  
                          Minor page faults:       140776
                          Major page faults:         5438
                 Voluntary context switches:         3123
