 vasp.6.4.2 20Jul23 (build Apr 10 2024 13:39:58) complex                        
  
 executed on             LinuxIFC date 2024.05.17  05:24:11
 running   16 mpi-ranks, on    1 nodes
 distrk:  each k-point on   16 cores,    1 groups
 distr:  one band on NCORE=   2 cores,    8 groups


--------------------------------------------------------------------------------------------------------


 INCAR:
   ISTART = 0
   ISPIN = 1
   LREAL = Auto
   ENCUT = 520
   NPAR = 8
   LPLANE = .TRUE.
   LSCALU = .FALSE.
   NSIM = 4
   LWAVE = .FALSE.
   LCHARG = .FALSE.
   ADDGRID = .TRUE.
   LASPH = .TRUE.
   PREC = Accurate
   ISMEAR = 0
   SIGMA = 0.05
   EDIFF = 1E-06
   NSW = 0
   TEBEG = 300
   TEEND = 700     	
   ISYM = 0
   NWRITE = 2

 POTCAR:   PAW_PBE C 08Apr2002                    
 POTCAR:   PAW_PBE H 15Jun2001                    
 POTCAR:   PAW_PBE C 08Apr2002                    
   VRHFIN =C: s2p2                                                                                  
   LEXCH  = PE                                                                                      
   EATOM  =   147.1560 eV,   10.8157 Ry                                                             
                                                                                                    
   TITEL  = PAW_PBE C 08Apr2002                                                                     
   LULTRA =        F    use ultrasoft PP ?                                                          
   IUNSCR =        0    unscreen: 0-lin 1-nonlin 2-no                                               
   RPACOR =     .000    partial core radius                                                         
   POMASS =   12.011; ZVAL   =    4.000    mass and valenz                                          
   RCORE  =    1.500    outmost cutoff radius                                                       
   RWIGS  =    1.630; RWIGS  =     .863    wigner-seitz radius (au A)                               
   ENMAX  =  400.000; ENMIN  =  300.000 eV                                                          
   ICORE  =        2    local potential                                                             
   LCOR   =        T    correct aug charges                                                         
   LPAW   =        T    paw PP                                                                      
   EAUG   =  644.873                                                                                
   DEXC   =     .000                                                                                
   RMAX   =    2.266    core radius for proj-oper                                                   
   RAUG   =    1.300    factor for augmentation sphere                                              
   RDEP   =    1.501    radius for radial grids                                                     
   RDEPT  =    1.300    core radius for aug-charge                                                  
   QCUT   =   -5.516; QGAM   =   11.032    optimization parameters                                  
                                                                                                    
   Description                                                                                      
     l     E      TYP  RCUT    TYP  RCUT                                                            
     0   .000     23  1.200                                                                         
     0   .000     23  1.200                                                                         
     1   .000     23  1.500                                                                         
     1  2.500     23  1.500                                                                         
     2   .000      7  1.500                                                                         
  local pseudopotential read in
  atomic valenz-charges read in
  non local Contribution for L=           0  read in
    real space projection operators read in
  non local Contribution for L=           0  read in
    real space projection operators read in
  non local Contribution for L=           1  read in
    real space projection operators read in
  non local Contribution for L=           1  read in
    real space projection operators read in
    PAW grid and wavefunctions read in
 
   number of l-projection  operators is LMAX  =           4
   number of lm-projection operators is LMMAX =           8
 
 POTCAR:   PAW_PBE H 15Jun2001                    
   VRHFIN =H: ultrasoft test                                                                        
   LEXCH  = PE                                                                                      
   EATOM  =    12.4884 eV,     .9179 Ry                                                             
                                                                                                    
   TITEL  = PAW_PBE H 15Jun2001                                                                     
   LULTRA =        F    use ultrasoft PP ?                                                          
   IUNSCR =        0    unscreen: 0-lin 1-nonlin 2-no                                               
   RPACOR =     .000    partial core radius                                                         
   POMASS =    1.000; ZVAL   =    1.000    mass and valenz                                          
   RCORE  =    1.100    outmost cutoff radius                                                       
   RWIGS  =     .700; RWIGS  =     .370    wigner-seitz radius (au A)                               
   ENMAX  =  250.000; ENMIN  =  200.000 eV                                                          
   RCLOC  =     .701    cutoff for local pot                                                        
   LCOR   =        T    correct aug charges                                                         
   LPAW   =        T    paw PP                                                                      
   EAUG   =  400.000                                                                                
   RMAX   =    2.174    core radius for proj-oper                                                   
   RAUG   =    1.200    factor for augmentation sphere                                              
   RDEP   =    1.112    radius for radial grids                                                     
   QCUT   =   -5.749; QGAM   =   11.498    optimization parameters                                  
                                                                                                    
   Description                                                                                      
     l     E      TYP  RCUT    TYP  RCUT                                                            
     0   .000     23  1.100                                                                         
     0   .500     23  1.100                                                                         
     1  -.300     23  1.100                                                                         
  local pseudopotential read in
  atomic valenz-charges read in
  non local Contribution for L=           0  read in
    real space projection operators read in
  non local Contribution for L=           0  read in
    real space projection operators read in
  non local Contribution for L=           1  read in
    real space projection operators read in
    PAW grid and wavefunctions read in
 
   number of l-projection  operators is LMAX  =           3
   number of lm-projection operators is LMMAX =           5
 
 Optimization of the real space projectors (new method)

 maximal supplied QI-value         = 25.13
 optimisation between [QCUT,QGAM] = [ 11.56, 23.12] = [ 37.43,149.72] Ry 
 Optimized for a Real-space Cutoff    1.04 Angstroem

   l    n(q)    QCUT    max X(q) W(low)/X(q) W(high)/X(q)  e(spline) 
   0      7    11.561     5.582    0.47E-04    0.94E-04    0.17E-07
   0      7    11.561    69.432    0.20E-03    0.59E-03    0.21E-06
   1      7    11.561     2.780    0.24E-04    0.70E-04    0.44E-07
   1      7    11.561     4.549    0.18E-03    0.25E-03    0.12E-06
 Optimization of the real space projectors (new method)

 maximal supplied QI-value         = 34.20
 optimisation between [QCUT,QGAM] = [ 11.63, 23.26] = [ 37.87,151.49] Ry 
 Optimized for a Real-space Cutoff    1.21 Angstroem

   l    n(q)    QCUT    max X(q) W(low)/X(q) W(high)/X(q)  e(spline) 
   0      8    11.629     4.436    0.19E-04    0.32E-04    0.47E-07
   0      8    11.629    16.131    0.16E-03    0.33E-03    0.21E-06
   1      8    11.629     4.654    0.18E-03    0.16E-03    0.26E-06
 PAW_PBE C 08Apr2002                    :
 energy of atom  1       EATOM= -147.1560
 kinetic energy error for atom=    0.0071 (will be added to EATOM!!)
 PAW_PBE H 15Jun2001                    :
 energy of atom  2       EATOM=  -12.4884
 kinetic energy error for atom=    0.0014 (will be added to EATOM!!)
 
 
 POSCAR:  C  H
  positions in cartesian coordinates
  No initial velocities read in
 exchange correlation table for  LEXCH =        8
   RHO(1)=    0.500       N(1)  =     2000
   RHO(2)=  100.500       N(2)  =     4000

 VTST: version 4.1, (05/19/21)

 CHAIN: initializing optimizer
 
 OPT: Using VASP Dynamics algorithm
 CHAIN: Read ICHAIN            0
 
 POSCAR:  C  H
  positions in cartesian coordinates
  No initial velocities read in
 


--------------------------------------------------------------------------------------------------------


 ion  position               nearest neighbor table
   1  0.549  0.507  0.402-   5 1.11   6 1.13   2 1.30
   2  0.472  0.493  0.439-   7 1.13   1 1.30   3 1.56
   3  0.447  0.493  0.540-   8 1.10   4 1.36   2 1.56
   4  0.506  0.495  0.609-   9 1.13  10 1.20   3 1.36
   5  0.566  0.515  0.330-   1 1.11
   6  0.604  0.524  0.451-   1 1.13
   7  0.412  0.475  0.396-   2 1.13
   8  0.377  0.493  0.560-   3 1.10
   9  0.578  0.494  0.587-   4 1.13
  10  0.490  0.510  0.686-   4 1.20
 

IMPORTANT INFORMATION: All symmetrisations will be switched off!
NOSYMM: (Re-)initialisation of all symmetry stuff for point group C_1.


----------------------------------------------------------------------------------------

                                     Primitive cell                                     

  volume of cell :    3375.0000

  direct lattice vectors                    reciprocal lattice vectors
    15.000000000  0.000000000  0.000000000     0.066666667  0.000000000  0.000000000
     0.000000000 15.000000000  0.000000000     0.000000000  0.066666667  0.000000000
     0.000000000  0.000000000 15.000000000     0.000000000  0.000000000  0.066666667

  length of vectors
    15.000000000 15.000000000 15.000000000     0.066666667  0.066666667  0.066666667

  position of ions in fractional coordinates (direct lattice)
     0.549066671  0.507333342  0.401799997
     0.472333336  0.492866675  0.438866679
     0.446800009  0.492800013  0.539866638
     0.505600007  0.494933319  0.608933322
     0.566400019  0.515333335  0.330266666
     0.603733317  0.524333318  0.450666682
     0.412333330  0.475333341  0.396266651
     0.376666673  0.493266678  0.560133362
     0.577533340  0.493999990  0.587133344
     0.489666653  0.509799989  0.686066691

  ion indices of the primitive-cell ions
   primitive index   ion index
                 1           1
                 2           2
                 3           3
                 4           4
                 5           5
                 6           6
                 7           7
                 8           8
                 9           9
                10          10

----------------------------------------------------------------------------------------

 
 
 KPOINTS: K-Spacing Value to Generate K-Mesh: 1.00

Automatic generation of k-mesh.
 Grid dimensions read from file:
 generate k-points for:    1    1    1

 Generating k-lattice:

  Cartesian coordinates                     Fractional coordinates (reciprocal lattice)
     0.066666667  0.000000000  0.000000000     1.000000000  0.000000000  0.000000000
     0.000000000  0.066666667  0.000000000     0.000000000  1.000000000  0.000000000
     0.000000000  0.000000000  0.066666667     0.000000000  0.000000000  1.000000000

  Length of vectors
     0.066666667  0.066666667  0.066666667

  Shift w.r.t. Gamma in fractional coordinates (k-lattice)
     0.000000000  0.000000000  0.000000000

 
 Subroutine IBZKPT returns following result:
 ===========================================
 
 Found      1 irreducible k-points:
 
 Following reciprocal coordinates:
            Coordinates               Weight
  0.000000  0.000000  0.000000      1.000000
 
 Following cartesian coordinates:
            Coordinates               Weight
  0.000000  0.000000  0.000000      1.000000
 


--------------------------------------------------------------------------------------------------------




 Dimension of arrays:
   k-points           NKPTS =      1   k-points in BZ     NKDIM =      1   number of bands    NBANDS=     24
   number of dos      NEDOS =    301   number of ions     NIONS =     10
   non local maximal  LDIM  =      4   non local SUM 2l+1 LMDIM =      8
   total plane-waves  NPLWV = ******
   max r-space proj   IRMAX =   3145   max aug-charges    IRDMAX=  39494
   dimension x,y,z NGX =   112 NGY =  112 NGZ =  112
   dimension x,y,z NGXF=   224 NGYF=  224 NGZF=  224
   support grid    NGXF=   448 NGYF=  448 NGZF=  448
   ions per type =               4   6
   NGX,Y,Z   is equivalent  to a cutoff of  12.41, 12.41, 12.41 a.u.
   NGXF,Y,Z  is equivalent  to a cutoff of  24.83, 24.83, 24.83 a.u.

 SYSTEM =  unknown system                          
 POSCAR =   C  H                                   

 Startparameter for this run:
   NWRITE =      2    write-flag & timer
   PREC   = accura    normal or accurate (medium, high low for compatibility)
   ISTART =      0    job   : 0-new  1-cont  2-samecut
   ICHARG =      2    charge: 1-file 2-atom 10-const
   ISPIN  =      1    spin polarized calculation?
   LNONCOLLINEAR =      F non collinear calculations
   LSORBIT =      F    spin-orbit coupling
   INIWAV =      1    electr: 0-lowe 1-rand  2-diag
   LASPH  =      T    aspherical Exc in radial PAW
 Electronic Relaxation 1
   ENCUT  =  520.0 eV  38.22 Ry    6.18 a.u.  27.89 27.89 27.89*2*pi/ulx,y,z
   ENINI  =  520.0     initial cutoff
   ENAUG  =  644.9 eV  augmentation charge cutoff
   NELM   =     60;   NELMIN=  2; NELMDL= -5     # of ELM steps 
   EDIFF  = 0.1E-05   stopping-criterion for ELM
   LREAL  =      T    real-space projection
   NLSPLINE    = F    spline interpolate recip. space projectors
   LCOMPAT=      F    compatible to vasp.4.4
   GGA_COMPAT  = T    GGA compatible to vasp.4.4-vasp.4.6
   LMAXPAW     = -100 max onsite density
   LMAXMIX     =    2 max onsite mixed and CHGCAR
   VOSKOWN=      0    Vosko Wilk Nusair interpolation
   ROPT   =   -0.00025  -0.00025
 Ionic relaxation
   EDIFFG = 0.1E-04   stopping-criterion for IOM
   NSW    =      0    number of steps for IOM
   NBLOCK =      1;   KBLOCK =      1    inner block; outer block 
   IBRION =     -1    ionic relax: 0-MD 1-quasi-New 2-CG
   NFREE  =      0    steps in history (QN), initial steepest desc. (CG)
   ISIF   =      2    stress and relaxation
   IWAVPR =     10    prediction:  0-non 1-charg 2-wave 3-comb
   ISYM   =      0    0-nonsym 1-usesym 2-fastsym
   LCORR  =      T    Harris-Foulkes like correction to forces

   POTIM  = 0.5000    time-step for ionic-motion
   TEIN   =    0.0    initial temperature
   TEBEG  =  300.0;   TEEND  = 700.0 temperature during run
   SMASS  =  -3.00    Nose mass-parameter (am)
   estimated Nose-frequenzy (Omega)   =  0.10E-29 period in steps = 0.13E+47 mass=  -0.514E-26a.u.
   SCALEE = 1.0000    scale energy and forces
   NPACO  =    256;   APACO  = 10.0  distance and # of slots for P.C.
   PSTRESS=    0.0 pullay stress

  Mass of Ions in am
   POMASS =  12.01  1.00
  Ionic Valenz
   ZVAL   =   4.00  1.00
  Atomic Wigner-Seitz radii
   RWIGS  =  -1.00 -1.00
  virtual crystal weights 
   VCA    =   1.00  1.00
   NELECT =      22.0000    total number of electrons
   NUPDOWN=      -1.0000    fix difference up-down

 DOS related values:
   EMIN   =  10.00;   EMAX   =-10.00  energy-range for DOS
   EFERMI =   0.00;   METHOD = LEGACY      
   ISMEAR =     0;   SIGMA  =   0.05  broadening in eV -4-tet -1-fermi 0-gaus

 Electronic relaxation 2 (details)
   IALGO  =     38    algorithm
   LDIAG  =      T    sub-space diagonalisation (order eigenvalues)
   LSUBROT=      F    optimize rotation matrix (better conditioning)
   TURBO    =      0    0=normal 1=particle mesh
   IRESTART =      0    0=no restart 2=restart with 2 vectors
   NREBOOT  =      0    no. of reboots
   NMIN     =      0    reboot dimension
   EREF     =   0.00    reference energy to select bands
   IMIX   =      4    mixing-type and parameters
     AMIX     =   0.40;   BMIX     =  1.00
     AMIX_MAG =   1.60;   BMIX_MAG =  1.00
     AMIN     =   0.10
     WC   =   100.;   INIMIX=   1;  MIXPRE=   1;  MAXMIX= -45

 Intra band minimization:
   WEIMIN = 0.0000     energy-eigenvalue tresh-hold
   EBREAK =  0.10E-07  absolut break condition
   DEPER  =   0.30     relativ break condition  

   TIME   =   0.40     timestep for ELM

  volume/ion in A,a.u.               =     337.50      2277.56
  Fermi-wavevector in a.u.,A,eV,Ry     =   0.305814  0.577905  1.272449  0.093522
  Thomas-Fermi vector in A             =   1.179187
 
 Write flags
   LWAVE        =      F    write WAVECAR
   LDOWNSAMPLE  =      F    k-point downsampling of WAVECAR
   LCHARG       =      F    write CHGCAR
   LVTOT        =      F    write LOCPOT, total local potential
   LVHAR        =      F    write LOCPOT, Hartree potential only
   LELF         =      F    write electronic localiz. function (ELF)
   LORBIT       =      0    0 simple, 1 ext, 2 COOP (PROOUT), +10 PAW based schemes


 Dipole corrections
   LMONO  =      F    monopole corrections only (constant potential shift)
   LDIPOL =      F    correct potential (dipole corrections)
   IDIPOL =      0    1-x, 2-y, 3-z, 4-all directions 
   EPSILON=  1.0000000 bulk dielectric constant

 Exchange correlation treatment:
   GGA     =    --    GGA type
   LEXCH   =     8    internal setting for exchange type
   LIBXC   =     F    Libxc                    
   VOSKOWN =     0    Vosko Wilk Nusair interpolation
   LHFCALC =     F    Hartree Fock is set to
   LHFONE  =     F    Hartree Fock one center treatment
   AEXX    =    0.0000 exact exchange contribution

 Linear response parameters
   LEPSILON=     F    determine dielectric tensor
   LRPA    =     F    only Hartree local field effects (RPA)
   LNABLA  =     F    use nabla operator in PAW spheres
   LVEL    =     F    velocity operator in full k-point grid
   CSHIFT  =0.1000    complex shift for real part using Kramers Kronig
   OMEGAMAX=  -1.0    maximum frequency
   DEG_THRESHOLD= 0.2000000E-02 threshold for treating states as degnerate
   RTIME   =   -0.100 relaxation time in fs
  (WPLASMAI=    0.000 imaginary part of plasma frequency in eV, 0.658/RTIME)
   DFIELD  = 0.0000000 0.0000000 0.0000000 field for delta impulse in time
 
  Optional k-point grid parameters
   LKPOINTS_OPT  =     F    use optional k-point grid
   KPOINTS_OPT_MODE=     1    mode for optional k-point grid
 
 Orbital magnetization related:
   ORBITALMAG=     F  switch on orbital magnetization
   LCHIMAG   =     F  perturbation theory with respect to B field
   DQ        =  0.001000  dq finite difference perturbation B field
   LLRAUG    =     F  two centre corrections for induced B field
   LBONE     =     F  B-component reconstruction in AE one-centre
   LVGVCALC  =     T  calculate vGv susceptibility
   LVGVAPPL  =     F  apply vGv susceptibility instead of pGv for G=0

 Random number generation:
   RANDOM_GENERATOR = DEFAULT
   PCG_SEED         = not used


--------------------------------------------------------------------------------------------------------


 Static calculation
 charge density and potential will be updated during run
 non-spin polarized calculation
 Variant of blocked Davidson
 Davidson routine will perform the subspace rotation
 perform sub-space diagonalisation
    after iterative eigenvector-optimisation
 modified Broyden-mixing scheme, WC =      100.0
 initial mixing is a Kerker type mixing with AMIX =  0.4000 and BMIX =      1.0000
 Hartree-type preconditioning will be used
 using additional bands           13
 real space projection scheme for non local part
 calculate Harris-corrections to forces 
   (improved forces if not selfconsistent)
 use gradient corrections 
 use of overlap-Matrix (Vanderbilt PP)
 Gauss-broadening in eV      SIGMA  =   0.05


--------------------------------------------------------------------------------------------------------


  energy-cutoff  :      520.00
  volume of cell :     3375.00
      direct lattice vectors                 reciprocal lattice vectors
    15.000000000  0.000000000  0.000000000     0.066666667  0.000000000  0.000000000
     0.000000000 15.000000000  0.000000000     0.000000000  0.066666667  0.000000000
     0.000000000  0.000000000 15.000000000     0.000000000  0.000000000  0.066666667

  length of vectors
    15.000000000 15.000000000 15.000000000     0.066666667  0.066666667  0.066666667


 
 k-points in units of 2pi/SCALE and weight: K-Spacing Value to Generate K-Mesh: 1.00
   0.00000000  0.00000000  0.00000000       1.000
 
 k-points in reciprocal lattice and weights: K-Spacing Value to Generate K-Mesh: 1.00
   0.00000000  0.00000000  0.00000000       1.000
 
 position of ions in fractional coordinates (direct lattice) 
   0.54906667  0.50733334  0.40180000
   0.47233334  0.49286668  0.43886668
   0.44680001  0.49280001  0.53986664
   0.50560001  0.49493332  0.60893332
   0.56640002  0.51533333  0.33026667
   0.60373332  0.52433332  0.45066668
   0.41233333  0.47533334  0.39626665
   0.37666667  0.49326668  0.56013336
   0.57753334  0.49399999  0.58713334
   0.48966665  0.50979999  0.68606669
 
 position of ions in cartesian coordinates  (Angst):
   8.23600006  7.61000013  6.02699995
   7.08500004  7.39300013  6.58300018
   6.70200014  7.39200020  8.09799957
   7.58400011  7.42399979  9.13399982
   8.49600029  7.73000002  4.95400000
   9.05599976  7.86499977  6.76000023
   6.18499994  7.13000011  5.94399977
   5.65000010  7.39900017  8.40200043
   8.66300011  7.40999985  8.80700016
   7.34499979  7.64699984 10.29100037
 


--------------------------------------------------------------------------------------------------------


 k-point   1 :   0.0000 0.0000 0.0000  plane waves:   90879

 maximum and minimum number of plane-waves per node :     45467    45412

 maximum number of plane-waves:     90879
 maximum index in each direction: 
   IXMAX=   27   IYMAX=   27   IZMAX=   27
   IXMIN=  -27   IYMIN=  -27   IZMIN=  -27


 real space projection operators:
  total allocation   :       1186.27 KBytes
  max/ min on nodes  :        593.49        592.78


 parallel 3D FFT for wavefunctions:
    minimum data exchange during FFTs selected (reduces bandwidth)
 parallel 3D FFT for charge:
    minimum data exchange during FFTs selected (reduces bandwidth)


 total amount of memory used by VASP MPI-rank0   224783. kBytes
=======================================================================

   base      :      30000. kBytes
   nonlr-proj:       1259. kBytes
   fftplans  :     123538. kBytes
   grid      :      67787. kBytes
   one-center:         15. kBytes
   wavefun   :       2184. kBytes
 
     INWAV:  cpu time      0.0000: real time      0.0000
 Broyden mixing: mesh for mixing (old mesh)
   NGX = 55   NGY = 55   NGZ = 55
  (NGX  =224   NGY  =224   NGZ  =224)
  gives a total of 166375 points

 initial charge density was supplied:
 charge density of overlapping atoms calculated
 number of electron      22.0000000 magnetization 
 keeping initial charge density in first step


--------------------------------------------------------------------------------------------------------


 Maximum index for non-local projection operator         1514
 Maximum index for augmentation-charges         2434 (set IRDMAX)


--------------------------------------------------------------------------------------------------------


 First call to EWALD:  gamma=   0.118
 Maximum number of real-space cells 3x 3x 3
 Maximum number of reciprocal cells 3x 3x 3

    FEWALD:  cpu time      0.0011: real time      0.0011


--------------------------------------- Ionic step        1  -------------------------------------------




--------------------------------------- Iteration      1(   1)  ---------------------------------------


    POTLOK:  cpu time      0.3341: real time      0.3364
    SETDIJ:  cpu time      0.1948: real time      0.1957
     EDDAV:  cpu time      0.4202: real time      0.4224
       DOS:  cpu time      0.0003: real time      0.0003
    --------------------------------------------
      LOOP:  cpu time      0.9494: real time      0.9548

 eigenvalue-minimisations  :    64
 total energy-change (2. order) : 0.9877780E+02  (-0.5278968E+03)
 number of electron      22.0000000 magnetization 
 augmentation part       22.0000000 magnetization 

 Free energy of the ion-electron system (eV)
  ---------------------------------------------------
  alpha Z        PSCENC =         0.62641250
  Ewald energy   TEWEN  =       861.58860695
  -Hartree energ DENC   =     -1292.26466278
  -exchange      EXHF   =         0.00000000
  -V(xc)+E(xc)   XCENC  =        66.84467092
  PAW double counting   =       156.01372664     -160.66969168
  entropy T*S    EENTRO =        -0.03808440
  eigenvalues    EBANDS =      -196.84057748
  atomic energy  EATOM  =       663.51739852
  Solvation  Ediel_sol  =         0.00000000
  ---------------------------------------------------
  free energy    TOTEN  =        98.77779920 eV

  energy without entropy =       98.81588360  energy(sigma->0) =       98.79684140


--------------------------------------------------------------------------------------------------------




--------------------------------------- Iteration      1(   2)  ---------------------------------------


     EDDAV:  cpu time      0.4473: real time      0.4502
       DOS:  cpu time      0.0001: real time      0.0001
    --------------------------------------------
      LOOP:  cpu time      0.4474: real time      0.4503

 eigenvalue-minimisations  :    72
 total energy-change (2. order) :-0.1169587E+03  (-0.1126928E+03)
 number of electron      22.0000000 magnetization 
 augmentation part       22.0000000 magnetization 

 Free energy of the ion-electron system (eV)
  ---------------------------------------------------
  alpha Z        PSCENC =         0.62641250
  Ewald energy   TEWEN  =       861.58860695
  -Hartree energ DENC   =     -1292.26466278
  -exchange      EXHF   =         0.00000000
  -V(xc)+E(xc)   XCENC  =        66.84467092
  PAW double counting   =       156.01372664     -160.66969168
  entropy T*S    EENTRO =        -0.00000000
  eigenvalues    EBANDS =      -313.83738275
  atomic energy  EATOM  =       663.51739852
  Solvation  Ediel_sol  =         0.00000000
  ---------------------------------------------------
  free energy    TOTEN  =       -18.18092167 eV

  energy without entropy =      -18.18092167  energy(sigma->0) =      -18.18092167


--------------------------------------------------------------------------------------------------------




--------------------------------------- Iteration      1(   3)  ---------------------------------------


     EDDAV:  cpu time      0.4462: real time      0.4491
       DOS:  cpu time      0.0001: real time      0.0001
    --------------------------------------------
      LOOP:  cpu time      0.4463: real time      0.4492

 eigenvalue-minimisations  :    72
 total energy-change (2. order) :-0.4206653E+02  (-0.4195737E+02)
 number of electron      22.0000000 magnetization 
 augmentation part       22.0000000 magnetization 

 Free energy of the ion-electron system (eV)
  ---------------------------------------------------
  alpha Z        PSCENC =         0.62641250
  Ewald energy   TEWEN  =       861.58860695
  -Hartree energ DENC   =     -1292.26466278
  -exchange      EXHF   =         0.00000000
  -V(xc)+E(xc)   XCENC  =        66.84467092
  PAW double counting   =       156.01372664     -160.66969168
  entropy T*S    EENTRO =        -0.00000000
  eigenvalues    EBANDS =      -355.90391385
  atomic energy  EATOM  =       663.51739852
  Solvation  Ediel_sol  =         0.00000000
  ---------------------------------------------------
  free energy    TOTEN  =       -60.24745276 eV

  energy without entropy =      -60.24745276  energy(sigma->0) =      -60.24745276


--------------------------------------------------------------------------------------------------------




--------------------------------------- Iteration      1(   4)  ---------------------------------------


     EDDAV:  cpu time      0.4051: real time      0.4077
       DOS:  cpu time      0.0001: real time      0.0001
    --------------------------------------------
      LOOP:  cpu time      0.4052: real time      0.4078

 eigenvalue-minimisations  :    64
 total energy-change (2. order) :-0.2065875E+01  (-0.2061088E+01)
 number of electron      22.0000000 magnetization 
 augmentation part       22.0000000 magnetization 

 Free energy of the ion-electron system (eV)
  ---------------------------------------------------
  alpha Z        PSCENC =         0.62641250
  Ewald energy   TEWEN  =       861.58860695
  -Hartree energ DENC   =     -1292.26466278
  -exchange      EXHF   =         0.00000000
  -V(xc)+E(xc)   XCENC  =        66.84467092
  PAW double counting   =       156.01372664     -160.66969168
  entropy T*S    EENTRO =        -0.00000000
  eigenvalues    EBANDS =      -357.96978922
  atomic energy  EATOM  =       663.51739852
  Solvation  Ediel_sol  =         0.00000000
  ---------------------------------------------------
  free energy    TOTEN  =       -62.31332814 eV

  energy without entropy =      -62.31332814  energy(sigma->0) =      -62.31332814


--------------------------------------------------------------------------------------------------------




--------------------------------------- Iteration      1(   5)  ---------------------------------------


     EDDAV:  cpu time      0.4084: real time      0.4110
       DOS:  cpu time      0.0001: real time      0.0001
    CHARGE:  cpu time      0.1995: real time      0.2004
    MIXING:  cpu time      0.0129: real time      0.0130
    --------------------------------------------
      LOOP:  cpu time      0.6209: real time      0.6245

 eigenvalue-minimisations  :    64
 total energy-change (2. order) :-0.3582452E-01  (-0.3580226E-01)
 number of electron      22.0000000 magnetization 
 augmentation part        0.5644999 magnetization 

 Broyden mixing:
  rms(total) = 0.11443E+01    rms(broyden)= 0.11441E+01
  rms(prec ) = 0.13770E+01
  weight for this iteration     100.00

 Free energy of the ion-electron system (eV)
  ---------------------------------------------------
  alpha Z        PSCENC =         0.62641250
  Ewald energy   TEWEN  =       861.58860695
  -Hartree energ DENC   =     -1292.26466278
  -exchange      EXHF   =         0.00000000
  -V(xc)+E(xc)   XCENC  =        66.84467092
  PAW double counting   =       156.01372664     -160.66969168
  entropy T*S    EENTRO =        -0.00000000
  eigenvalues    EBANDS =      -358.00561374
  atomic energy  EATOM  =       663.51739852
  Solvation  Ediel_sol  =         0.00000000
  ---------------------------------------------------
  free energy    TOTEN  =       -62.34915265 eV

  energy without entropy =      -62.34915265  energy(sigma->0) =      -62.34915265


--------------------------------------------------------------------------------------------------------




--------------------------------------- Iteration      1(   6)  ---------------------------------------


    POTLOK:  cpu time      0.3069: real time      0.3087
    SETDIJ:  cpu time      0.1953: real time      0.1961
     EDDAV:  cpu time      0.4057: real time      0.4080
       DOS:  cpu time      0.0001: real time      0.0001
    CHARGE:  cpu time      0.2012: real time      0.2020
    MIXING:  cpu time      0.0082: real time      0.0082
    --------------------------------------------
      LOOP:  cpu time      1.1174: real time      1.1230

 eigenvalue-minimisations  :    64
 total energy-change (2. order) : 0.4892509E+01  (-0.7346380E+00)
 number of electron      22.0000000 magnetization 
 augmentation part        0.5164625 magnetization 

 Broyden mixing:
  rms(total) = 0.54905E+00    rms(broyden)= 0.54902E+00
  rms(prec ) = 0.64991E+00
  weight for this iteration     100.00

 eigenvalues of (default mixing * dielectric matrix)
  average eigenvalue GAMMA=   1.5792
  1.5792

 Free energy of the ion-electron system (eV)
  ---------------------------------------------------
  alpha Z        PSCENC =         0.62641250
  Ewald energy   TEWEN  =       861.58860695
  -Hartree energ DENC   =     -1337.18148609
  -exchange      EXHF   =         0.00000000
  -V(xc)+E(xc)   XCENC  =        69.17051857
  PAW double counting   =       225.29517464     -230.47544088
  entropy T*S    EENTRO =        -0.00000000
  eigenvalues    EBANDS =      -309.99782769
  atomic energy  EATOM  =       663.51739852
  Solvation  Ediel_sol  =         0.00000000
  ---------------------------------------------------
  free energy    TOTEN  =       -57.45664347 eV

  energy without entropy =      -57.45664347  energy(sigma->0) =      -57.45664347


--------------------------------------------------------------------------------------------------------




--------------------------------------- Iteration      1(   7)  ---------------------------------------


    POTLOK:  cpu time      0.3088: real time      0.3106
    SETDIJ:  cpu time      0.1941: real time      0.1949
     EDDAV:  cpu time      0.4495: real time      0.4519
       DOS:  cpu time      0.0001: real time      0.0001
    CHARGE:  cpu time      0.2009: real time      0.2018
    MIXING:  cpu time      0.0092: real time      0.0092
    --------------------------------------------
      LOOP:  cpu time      1.1627: real time      1.1686

 eigenvalue-minimisations  :    72
 total energy-change (2. order) : 0.1098659E+01  (-0.3616858E+00)
 number of electron      22.0000000 magnetization 
 augmentation part        0.4863504 magnetization 

 Broyden mixing:
  rms(total) = 0.21968E+00    rms(broyden)= 0.21962E+00
  rms(prec ) = 0.25216E+00
  weight for this iteration     100.00

 eigenvalues of (default mixing * dielectric matrix)
  average eigenvalue GAMMA=   1.7192
  1.7192  1.7192

 Free energy of the ion-electron system (eV)
  ---------------------------------------------------
  alpha Z        PSCENC =         0.62641250
  Ewald energy   TEWEN  =       861.58860695
  -Hartree energ DENC   =     -1371.75403066
  -exchange      EXHF   =         0.00000000
  -V(xc)+E(xc)   XCENC  =        71.15651983
  PAW double counting   =       280.22197283     -285.62889362
  entropy T*S    EENTRO =        -0.00000000
  eigenvalues    EBANDS =      -276.08597084
  atomic energy  EATOM  =       663.51739852
  Solvation  Ediel_sol  =         0.00000000
  ---------------------------------------------------
  free energy    TOTEN  =       -56.35798448 eV

  energy without entropy =      -56.35798448  energy(sigma->0) =      -56.35798448


--------------------------------------------------------------------------------------------------------




--------------------------------------- Iteration      1(   8)  ---------------------------------------


    POTLOK:  cpu time      0.3124: real time      0.3141
    SETDIJ:  cpu time      0.1951: real time      0.1959
     EDDAV:  cpu time      0.4472: real time      0.4497
       DOS:  cpu time      0.0001: real time      0.0001
    CHARGE:  cpu time      0.1993: real time      0.2001
    MIXING:  cpu time      0.0090: real time      0.0090
    --------------------------------------------
      LOOP:  cpu time      1.1631: real time      1.1689

 eigenvalue-minimisations  :    72
 total energy-change (2. order) : 0.1491610E+00  (-0.2093055E-01)
 number of electron      22.0000000 magnetization 
 augmentation part        0.4854220 magnetization 

 Broyden mixing:
  rms(total) = 0.61177E-01    rms(broyden)= 0.61172E-01
  rms(prec ) = 0.86167E-01
  weight for this iteration     100.00

 eigenvalues of (default mixing * dielectric matrix)
  average eigenvalue GAMMA=   1.6284
  2.4028  0.9129  1.5694

 Free energy of the ion-electron system (eV)
  ---------------------------------------------------
  alpha Z        PSCENC =         0.62641250
  Ewald energy   TEWEN  =       861.58860695
  -Hartree energ DENC   =     -1378.87295210
  -exchange      EXHF   =         0.00000000
  -V(xc)+E(xc)   XCENC  =        71.68488149
  PAW double counting   =       287.25788702     -292.56538546
  entropy T*S    EENTRO =        -0.00000000
  eigenvalues    EBANDS =      -269.44567237
  atomic energy  EATOM  =       663.51739852
  Solvation  Ediel_sol  =         0.00000000
  ---------------------------------------------------
  free energy    TOTEN  =       -56.20882345 eV

  energy without entropy =      -56.20882345  energy(sigma->0) =      -56.20882345


--------------------------------------------------------------------------------------------------------




--------------------------------------- Iteration      1(   9)  ---------------------------------------


    POTLOK:  cpu time      0.3127: real time      0.3144
    SETDIJ:  cpu time      0.1950: real time      0.1958
     EDDAV:  cpu time      0.4071: real time      0.4093
       DOS:  cpu time      0.0001: real time      0.0001
    CHARGE:  cpu time      0.2009: real time      0.2016
    MIXING:  cpu time      0.0081: real time      0.0081
    --------------------------------------------
      LOOP:  cpu time      1.1238: real time      1.1294

 eigenvalue-minimisations  :    64
 total energy-change (2. order) : 0.3258131E-01  (-0.4098759E-02)
 number of electron      22.0000000 magnetization 
 augmentation part        0.4838274 magnetization 

 Broyden mixing:
  rms(total) = 0.22603E-01    rms(broyden)= 0.22599E-01
  rms(prec ) = 0.45341E-01
  weight for this iteration     100.00

 eigenvalues of (default mixing * dielectric matrix)
  average eigenvalue GAMMA=   1.4699
  2.2765  1.5762  1.0135  1.0135

 Free energy of the ion-electron system (eV)
  ---------------------------------------------------
  alpha Z        PSCENC =         0.62641250
  Ewald energy   TEWEN  =       861.58860695
  -Hartree energ DENC   =     -1384.30145194
  -exchange      EXHF   =         0.00000000
  -V(xc)+E(xc)   XCENC  =        71.98902604
  PAW double counting   =       291.20772733     -296.48858961
  entropy T*S    EENTRO =        -0.00000000
  eigenvalues    EBANDS =      -264.31537194
  atomic energy  EATOM  =       663.51739852
  Solvation  Ediel_sol  =         0.00000000
  ---------------------------------------------------
  free energy    TOTEN  =       -56.17624214 eV

  energy without entropy =      -56.17624214  energy(sigma->0) =      -56.17624214


--------------------------------------------------------------------------------------------------------




--------------------------------------- Iteration      1(  10)  ---------------------------------------


    POTLOK:  cpu time      0.3139: real time      0.3155
    SETDIJ:  cpu time      0.1931: real time      0.1939
     EDDAV:  cpu time      0.3254: real time      0.3271
       DOS:  cpu time      0.0001: real time      0.0001
    CHARGE:  cpu time      0.1914: real time      0.1921
    MIXING:  cpu time      0.0119: real time      0.0119
    --------------------------------------------
      LOOP:  cpu time      1.0357: real time      1.0407

 eigenvalue-minimisations  :    48
 total energy-change (2. order) : 0.5435224E-02  (-0.1452800E-02)
 number of electron      22.0000000 magnetization 
 augmentation part        0.4823721 magnetization 

 Broyden mixing:
  rms(total) = 0.16958E-01    rms(broyden)= 0.16956E-01
  rms(prec ) = 0.33184E-01
  weight for this iteration     100.00

 eigenvalues of (default mixing * dielectric matrix)
  average eigenvalue GAMMA=   1.6974
  2.8075  2.3266  1.0521  1.0521  1.2487

 Free energy of the ion-electron system (eV)
  ---------------------------------------------------
  alpha Z        PSCENC =         0.62641250
  Ewald energy   TEWEN  =       861.58860695
  -Hartree energ DENC   =     -1387.14681613
  -exchange      EXHF   =         0.00000000
  -V(xc)+E(xc)   XCENC  =        72.04870983
  PAW double counting   =       290.78593279     -296.07630257
  entropy T*S    EENTRO =        -0.00000000
  eigenvalues    EBANDS =      -261.51474880
  atomic energy  EATOM  =       663.51739852
  Solvation  Ediel_sol  =         0.00000000
  ---------------------------------------------------
  free energy    TOTEN  =       -56.17080691 eV

  energy without entropy =      -56.17080691  energy(sigma->0) =      -56.17080691


--------------------------------------------------------------------------------------------------------




--------------------------------------- Iteration      1(  11)  ---------------------------------------


    POTLOK:  cpu time      0.3126: real time      0.3143
    SETDIJ:  cpu time      0.1949: real time      0.1957
     EDDAV:  cpu time      0.3273: real time      0.3291
       DOS:  cpu time      0.0001: real time      0.0001
    CHARGE:  cpu time      0.1933: real time      0.1941
    MIXING:  cpu time      0.0149: real time      0.0150
    --------------------------------------------
      LOOP:  cpu time      1.0432: real time      1.0483

 eigenvalue-minimisations  :    48
 total energy-change (2. order) : 0.1021164E-01  (-0.5817478E-03)
 number of electron      22.0000000 magnetization 
 augmentation part        0.4821992 magnetization 

 Broyden mixing:
  rms(total) = 0.72217E-02    rms(broyden)= 0.72214E-02
  rms(prec ) = 0.16578E-01
  weight for this iteration     100.00

 eigenvalues of (default mixing * dielectric matrix)
  average eigenvalue GAMMA=   1.7215
  3.2064  2.5015  1.3907  1.0380  1.0964  1.0964

 Free energy of the ion-electron system (eV)
  ---------------------------------------------------
  alpha Z        PSCENC =         0.62641250
  Ewald energy   TEWEN  =       861.58860695
  -Hartree energ DENC   =     -1390.97872566
  -exchange      EXHF   =         0.00000000
  -V(xc)+E(xc)   XCENC  =        72.15482567
  PAW double counting   =       289.41087271     -294.68555381
  entropy T*S    EENTRO =        -0.00000000
  eigenvalues    EBANDS =      -257.79443216
  atomic energy  EATOM  =       663.51739852
  Solvation  Ediel_sol  =         0.00000000
  ---------------------------------------------------
  free energy    TOTEN  =       -56.16059527 eV

  energy without entropy =      -56.16059527  energy(sigma->0) =      -56.16059527


--------------------------------------------------------------------------------------------------------




--------------------------------------- Iteration      1(  12)  ---------------------------------------


    POTLOK:  cpu time      0.3130: real time      0.3147
    SETDIJ:  cpu time      0.1940: real time      0.1948
     EDDAV:  cpu time      0.4451: real time      0.4476
       DOS:  cpu time      0.0001: real time      0.0001
    CHARGE:  cpu time      0.1987: real time      0.1995
    MIXING:  cpu time      0.0092: real time      0.0093
    --------------------------------------------
      LOOP:  cpu time      1.1603: real time      1.1661

 eigenvalue-minimisations  :    72
 total energy-change (2. order) :-0.2521417E-02  (-0.1563194E-03)
 number of electron      22.0000000 magnetization 
 augmentation part        0.4818909 magnetization 

 Broyden mixing:
  rms(total) = 0.52590E-02    rms(broyden)= 0.52587E-02
  rms(prec ) = 0.10962E-01
  weight for this iteration     100.00

 eigenvalues of (default mixing * dielectric matrix)
  average eigenvalue GAMMA=   1.8932
  4.2523  2.4382  2.1722  1.4327  0.9403  1.0086  1.0086

 Free energy of the ion-electron system (eV)
  ---------------------------------------------------
  alpha Z        PSCENC =         0.62641250
  Ewald energy   TEWEN  =       861.58860695
  -Hartree energ DENC   =     -1392.58909805
  -exchange      EXHF   =         0.00000000
  -V(xc)+E(xc)   XCENC  =        72.17824392
  PAW double counting   =       289.05547411     -294.33197885
  entropy T*S    EENTRO =        -0.00000000
  eigenvalues    EBANDS =      -256.20817580
  atomic energy  EATOM  =       663.51739852
  Solvation  Ediel_sol  =         0.00000000
  ---------------------------------------------------
  free energy    TOTEN  =       -56.16311669 eV

  energy without entropy =      -56.16311669  energy(sigma->0) =      -56.16311669


--------------------------------------------------------------------------------------------------------




--------------------------------------- Iteration      1(  13)  ---------------------------------------


    POTLOK:  cpu time      0.3079: real time      0.3095
    SETDIJ:  cpu time      0.1934: real time      0.1942
     EDDAV:  cpu time      0.3234: real time      0.3252
       DOS:  cpu time      0.0001: real time      0.0001
    CHARGE:  cpu time      0.1918: real time      0.1926
    MIXING:  cpu time      0.0150: real time      0.0151
    --------------------------------------------
      LOOP:  cpu time      1.0316: real time      1.0366

 eigenvalue-minimisations  :    48
 total energy-change (2. order) :-0.8975547E-02  (-0.1275326E-03)
 number of electron      22.0000000 magnetization 
 augmentation part        0.4818582 magnetization 

 Broyden mixing:
  rms(total) = 0.27341E-02    rms(broyden)= 0.27337E-02
  rms(prec ) = 0.60583E-02
  weight for this iteration     100.00

 eigenvalues of (default mixing * dielectric matrix)
  average eigenvalue GAMMA=   1.9563
  4.9699  2.7405  2.2634  1.3503  1.3503  0.9335  1.0213  1.0213

 Free energy of the ion-electron system (eV)
  ---------------------------------------------------
  alpha Z        PSCENC =         0.62641250
  Ewald energy   TEWEN  =       861.58860695
  -Hartree energ DENC   =     -1393.39239618
  -exchange      EXHF   =         0.00000000
  -V(xc)+E(xc)   XCENC  =        72.17868426
  PAW double counting   =       289.06368336     -294.34018423
  entropy T*S    EENTRO =        -0.00000000
  eigenvalues    EBANDS =      -255.41429742
  atomic energy  EATOM  =       663.51739852
  Solvation  Ediel_sol  =         0.00000000
  ---------------------------------------------------
  free energy    TOTEN  =       -56.17209224 eV

  energy without entropy =      -56.17209224  energy(sigma->0) =      -56.17209224


--------------------------------------------------------------------------------------------------------




--------------------------------------- Iteration      1(  14)  ---------------------------------------


    POTLOK:  cpu time      0.3095: real time      0.3112
    SETDIJ:  cpu time      0.1937: real time      0.1945
     EDDAV:  cpu time      0.4084: real time      0.4106
       DOS:  cpu time      0.0001: real time      0.0001
    CHARGE:  cpu time      0.1982: real time      0.1989
    MIXING:  cpu time      0.0096: real time      0.0097
    --------------------------------------------
      LOOP:  cpu time      1.1195: real time      1.1249

 eigenvalue-minimisations  :    64
 total energy-change (2. order) :-0.5200906E-02  (-0.5940049E-04)
 number of electron      22.0000000 magnetization 
 augmentation part        0.4817906 magnetization 

 Broyden mixing:
  rms(total) = 0.18349E-02    rms(broyden)= 0.18348E-02
  rms(prec ) = 0.38041E-02
  weight for this iteration     100.00

 eigenvalues of (default mixing * dielectric matrix)
  average eigenvalue GAMMA=   2.0731
  5.9278  3.1133  2.1134  2.1134  1.4029  1.0120  1.0120  1.0814  0.8817

 Free energy of the ion-electron system (eV)
  ---------------------------------------------------
  alpha Z        PSCENC =         0.62641250
  Ewald energy   TEWEN  =       861.58860695
  -Hartree energ DENC   =     -1393.67274651
  -exchange      EXHF   =         0.00000000
  -V(xc)+E(xc)   XCENC  =        72.17324841
  PAW double counting   =       289.10750015     -294.38427287
  entropy T*S    EENTRO =        -0.00000000
  eigenvalues    EBANDS =      -255.13344029
  atomic energy  EATOM  =       663.51739852
  Solvation  Ediel_sol  =         0.00000000
  ---------------------------------------------------
  free energy    TOTEN  =       -56.17729314 eV

  energy without entropy =      -56.17729314  energy(sigma->0) =      -56.17729314


--------------------------------------------------------------------------------------------------------




--------------------------------------- Iteration      1(  15)  ---------------------------------------


    POTLOK:  cpu time      0.3041: real time      0.3057
    SETDIJ:  cpu time      0.1938: real time      0.1945
     EDDAV:  cpu time      0.4087: real time      0.4109
       DOS:  cpu time      0.0001: real time      0.0001
    CHARGE:  cpu time      0.1982: real time      0.1990
    MIXING:  cpu time      0.0104: real time      0.0104
    --------------------------------------------
      LOOP:  cpu time      1.1152: real time      1.1207

 eigenvalue-minimisations  :    64
 total energy-change (2. order) :-0.4122555E-02  (-0.5289043E-04)
 number of electron      22.0000000 magnetization 
 augmentation part        0.4817767 magnetization 

 Broyden mixing:
  rms(total) = 0.98754E-03    rms(broyden)= 0.98746E-03
  rms(prec ) = 0.19286E-02
  weight for this iteration     100.00

 eigenvalues of (default mixing * dielectric matrix)
  average eigenvalue GAMMA=   2.2221
  6.9142  4.0424  2.4657  2.0280  1.4447  1.4447  1.0129  1.0129  0.9617  0.8934

 Free energy of the ion-electron system (eV)
  ---------------------------------------------------
  alpha Z        PSCENC =         0.62641250
  Ewald energy   TEWEN  =       861.58860695
  -Hartree energ DENC   =     -1393.72202552
  -exchange      EXHF   =         0.00000000
  -V(xc)+E(xc)   XCENC  =        72.16368124
  PAW double counting   =       289.10874182     -294.38510713
  entropy T*S    EENTRO =        -0.00000000
  eigenvalues    EBANDS =      -255.07912408
  atomic energy  EATOM  =       663.51739852
  Solvation  Ediel_sol  =         0.00000000
  ---------------------------------------------------
  free energy    TOTEN  =       -56.18141570 eV

  energy without entropy =      -56.18141570  energy(sigma->0) =      -56.18141570


--------------------------------------------------------------------------------------------------------




--------------------------------------- Iteration      1(  16)  ---------------------------------------


    POTLOK:  cpu time      0.3013: real time      0.3029
    SETDIJ:  cpu time      0.1918: real time      0.1925
     EDDAV:  cpu time      0.3667: real time      0.3686
       DOS:  cpu time      0.0001: real time      0.0001
    CHARGE:  cpu time      0.1966: real time      0.1973
    MIXING:  cpu time      0.0115: real time      0.0115
    --------------------------------------------
      LOOP:  cpu time      1.0679: real time      1.0730

 eigenvalue-minimisations  :    56
 total energy-change (2. order) :-0.1608370E-02  (-0.1779838E-04)
 number of electron      22.0000000 magnetization 
 augmentation part        0.4817639 magnetization 

 Broyden mixing:
  rms(total) = 0.73078E-03    rms(broyden)= 0.73068E-03
  rms(prec ) = 0.11636E-02
  weight for this iteration     100.00

 eigenvalues of (default mixing * dielectric matrix)
  average eigenvalue GAMMA=   2.2806
  7.6257  4.3267  2.4282  2.4282  1.8126  1.2980  1.2980  1.0154  1.0154  0.9191
  0.9191

 Free energy of the ion-electron system (eV)
  ---------------------------------------------------
  alpha Z        PSCENC =         0.62641250
  Ewald energy   TEWEN  =       861.58860695
  -Hartree energ DENC   =     -1393.73774996
  -exchange      EXHF   =         0.00000000
  -V(xc)+E(xc)   XCENC  =        72.16153275
  PAW double counting   =       289.14487163     -294.42077419
  entropy T*S    EENTRO =        -0.00000000
  eigenvalues    EBANDS =      -255.06332228
  atomic energy  EATOM  =       663.51739852
  Solvation  Ediel_sol  =         0.00000000
  ---------------------------------------------------
  free energy    TOTEN  =       -56.18302407 eV

  energy without entropy =      -56.18302407  energy(sigma->0) =      -56.18302407


--------------------------------------------------------------------------------------------------------




--------------------------------------- Iteration      1(  17)  ---------------------------------------


    POTLOK:  cpu time      0.2983: real time      0.2999
    SETDIJ:  cpu time      0.1937: real time      0.1945
     EDDAV:  cpu time      0.4090: real time      0.4112
       DOS:  cpu time      0.0001: real time      0.0001
    CHARGE:  cpu time      0.1967: real time      0.1974
    MIXING:  cpu time      0.0110: real time      0.0110
    --------------------------------------------
      LOOP:  cpu time      1.1087: real time      1.1142

 eigenvalue-minimisations  :    64
 total energy-change (2. order) :-0.6536116E-03  (-0.4377603E-05)
 number of electron      22.0000000 magnetization 
 augmentation part        0.4817299 magnetization 

 Broyden mixing:
  rms(total) = 0.32014E-03    rms(broyden)= 0.32006E-03
  rms(prec ) = 0.56797E-03
  weight for this iteration     100.00

 eigenvalues of (default mixing * dielectric matrix)
  average eigenvalue GAMMA=   2.3325
  8.1748  4.8256  2.7486  2.4341  1.7156  1.7156  1.3985  1.0104  1.0104  1.0443
  0.9562  0.9562

 Free energy of the ion-electron system (eV)
  ---------------------------------------------------
  alpha Z        PSCENC =         0.62641250
  Ewald energy   TEWEN  =       861.58860695
  -Hartree energ DENC   =     -1393.77026553
  -exchange      EXHF   =         0.00000000
  -V(xc)+E(xc)   XCENC  =        72.16119283
  PAW double counting   =       289.11876415     -294.39500194
  entropy T*S    EENTRO =        -0.00000000
  eigenvalues    EBANDS =      -255.03078516
  atomic energy  EATOM  =       663.51739852
  Solvation  Ediel_sol  =         0.00000000
  ---------------------------------------------------
  free energy    TOTEN  =       -56.18367768 eV

  energy without entropy =      -56.18367768  energy(sigma->0) =      -56.18367768


--------------------------------------------------------------------------------------------------------




--------------------------------------- Iteration      1(  18)  ---------------------------------------


    POTLOK:  cpu time      0.2964: real time      0.2980
    SETDIJ:  cpu time      0.1924: real time      0.1932
     EDDAV:  cpu time      0.4050: real time      0.4072
       DOS:  cpu time      0.0001: real time      0.0001
    CHARGE:  cpu time      0.1978: real time      0.1986
    MIXING:  cpu time      0.0106: real time      0.0106
    --------------------------------------------
      LOOP:  cpu time      1.1023: real time      1.1076

 eigenvalue-minimisations  :    64
 total energy-change (2. order) :-0.2285601E-03  (-0.1053274E-05)
 number of electron      22.0000000 magnetization 
 augmentation part        0.4817303 magnetization 

 Broyden mixing:
  rms(total) = 0.16792E-03    rms(broyden)= 0.16786E-03
  rms(prec ) = 0.31352E-03
  weight for this iteration     100.00

 eigenvalues of (default mixing * dielectric matrix)
  average eigenvalue GAMMA=   2.3630
  8.6016  5.1229  3.1100  2.4359  2.2269  1.5840  1.3542  1.3542  1.0090  1.0090
  0.9428  0.9844  0.9844

 Free energy of the ion-electron system (eV)
  ---------------------------------------------------
  alpha Z        PSCENC =         0.62641250
  Ewald energy   TEWEN  =       861.58860695
  -Hartree energ DENC   =     -1393.76741355
  -exchange      EXHF   =         0.00000000
  -V(xc)+E(xc)   XCENC  =        72.16074864
  PAW double counting   =       289.11143955     -294.38760970
  entropy T*S    EENTRO =        -0.00000000
  eigenvalues    EBANDS =      -255.03348915
  atomic energy  EATOM  =       663.51739852
  Solvation  Ediel_sol  =         0.00000000
  ---------------------------------------------------
  free energy    TOTEN  =       -56.18390624 eV

  energy without entropy =      -56.18390624  energy(sigma->0) =      -56.18390624


--------------------------------------------------------------------------------------------------------




--------------------------------------- Iteration      1(  19)  ---------------------------------------


    POTLOK:  cpu time      0.2967: real time      0.2983
    SETDIJ:  cpu time      0.1947: real time      0.1955
     EDDAV:  cpu time      0.4056: real time      0.4078
       DOS:  cpu time      0.0001: real time      0.0001
    CHARGE:  cpu time      0.1951: real time      0.1958
    MIXING:  cpu time      0.0127: real time      0.0127
    --------------------------------------------
      LOOP:  cpu time      1.1049: real time      1.1103

 eigenvalue-minimisations  :    64
 total energy-change (2. order) :-0.1051467E-03  (-0.3107082E-06)
 number of electron      22.0000000 magnetization 
 augmentation part        0.4817308 magnetization 

 Broyden mixing:
  rms(total) = 0.98337E-04    rms(broyden)= 0.98255E-04
  rms(prec ) = 0.17800E-03
  weight for this iteration     100.00

 eigenvalues of (default mixing * dielectric matrix)
  average eigenvalue GAMMA=   2.3542
  8.6341  5.4011  3.3461  2.4525  2.1851  1.7603  1.7603  1.3068  1.2262  1.0088
  1.0088  0.9365  0.9664  0.9664

 Free energy of the ion-electron system (eV)
  ---------------------------------------------------
  alpha Z        PSCENC =         0.62641250
  Ewald energy   TEWEN  =       861.58860695
  -Hartree energ DENC   =     -1393.77069439
  -exchange      EXHF   =         0.00000000
  -V(xc)+E(xc)   XCENC  =        72.16060440
  PAW double counting   =       289.10820077     -294.38435392
  entropy T*S    EENTRO =        -0.00000000
  eigenvalues    EBANDS =      -255.03018622
  atomic energy  EATOM  =       663.51739852
  Solvation  Ediel_sol  =         0.00000000
  ---------------------------------------------------
  free energy    TOTEN  =       -56.18401139 eV

  energy without entropy =      -56.18401139  energy(sigma->0) =      -56.18401139


--------------------------------------------------------------------------------------------------------




--------------------------------------- Iteration      1(  20)  ---------------------------------------


    POTLOK:  cpu time      0.2990: real time      0.3006
    SETDIJ:  cpu time      0.1925: real time      0.1933
     EDDAV:  cpu time      0.3662: real time      0.3682
       DOS:  cpu time      0.0001: real time      0.0001
    CHARGE:  cpu time      0.1980: real time      0.1987
    MIXING:  cpu time      0.0140: real time      0.0141
    --------------------------------------------
      LOOP:  cpu time      1.0698: real time      1.0751

 eigenvalue-minimisations  :    56
 total energy-change (2. order) :-0.3834693E-04  (-0.5625217E-07)
 number of electron      22.0000000 magnetization 
 augmentation part        0.4817302 magnetization 

 Broyden mixing:
  rms(total) = 0.53662E-04    rms(broyden)= 0.53534E-04
  rms(prec ) = 0.10256E-03
  weight for this iteration     100.00

 eigenvalues of (default mixing * dielectric matrix)
  average eigenvalue GAMMA=   2.3825
  8.8367  5.7572  3.8963  2.6888  2.4091  2.0329  1.4071  1.3163  1.3163  1.0099
  1.0099  1.1510  0.9487  0.9790  0.9790

 Free energy of the ion-electron system (eV)
  ---------------------------------------------------
  alpha Z        PSCENC =         0.62641250
  Ewald energy   TEWEN  =       861.58860695
  -Hartree energ DENC   =     -1393.77578554
  -exchange      EXHF   =         0.00000000
  -V(xc)+E(xc)   XCENC  =        72.16064895
  PAW double counting   =       289.11141824     -294.38758710
  entropy T*S    EENTRO =        -0.00000000
  eigenvalues    EBANDS =      -255.02516225
  atomic energy  EATOM  =       663.51739852
  Solvation  Ediel_sol  =         0.00000000
  ---------------------------------------------------
  free energy    TOTEN  =       -56.18404973 eV

  energy without entropy =      -56.18404973  energy(sigma->0) =      -56.18404973


--------------------------------------------------------------------------------------------------------




--------------------------------------- Iteration      1(  21)  ---------------------------------------


    POTLOK:  cpu time      0.3062: real time      0.3078
    SETDIJ:  cpu time      0.1939: real time      0.1947
     EDDAV:  cpu time      0.3670: real time      0.3690
       DOS:  cpu time      0.0001: real time      0.0001
    CHARGE:  cpu time      0.1952: real time      0.1960
    MIXING:  cpu time      0.0142: real time      0.0143
    --------------------------------------------
      LOOP:  cpu time      1.0768: real time      1.0820

 eigenvalue-minimisations  :    56
 total energy-change (2. order) :-0.1806342E-04  (-0.1970956E-07)
 number of electron      22.0000000 magnetization 
 augmentation part        0.4817315 magnetization 

 Broyden mixing:
  rms(total) = 0.34445E-04    rms(broyden)= 0.34249E-04
  rms(prec ) = 0.59282E-04
  weight for this iteration     100.00

 eigenvalues of (default mixing * dielectric matrix)
  average eigenvalue GAMMA=   2.4019
  8.9070  5.9907  4.2050  2.7652  2.4252  1.8869  1.7712  1.7712  1.3709  1.3709
  1.0115  1.0115  0.9517  0.9517  1.0202  1.0202

 Free energy of the ion-electron system (eV)
  ---------------------------------------------------
  alpha Z        PSCENC =         0.62641250
  Ewald energy   TEWEN  =       861.58860695
  -Hartree energ DENC   =     -1393.77586201
  -exchange      EXHF   =         0.00000000
  -V(xc)+E(xc)   XCENC  =        72.16054098
  PAW double counting   =       289.11200809     -294.38816754
  entropy T*S    EENTRO =        -0.00000000
  eigenvalues    EBANDS =      -255.02500530
  atomic energy  EATOM  =       663.51739852
  Solvation  Ediel_sol  =         0.00000000
  ---------------------------------------------------
  free energy    TOTEN  =       -56.18406780 eV

  energy without entropy =      -56.18406780  energy(sigma->0) =      -56.18406780


--------------------------------------------------------------------------------------------------------




--------------------------------------- Iteration      1(  22)  ---------------------------------------


    POTLOK:  cpu time      0.3086: real time      0.3102
    SETDIJ:  cpu time      0.1922: real time      0.1930
     EDDAV:  cpu time      0.3701: real time      0.3720
       DOS:  cpu time      0.0001: real time      0.0001
    CHARGE:  cpu time      0.1968: real time      0.1976
    MIXING:  cpu time      0.0132: real time      0.0132
    --------------------------------------------
      LOOP:  cpu time      1.0810: real time      1.0861

 eigenvalue-minimisations  :    56
 total energy-change (2. order) :-0.9028859E-05  (-0.1323281E-07)
 number of electron      22.0000000 magnetization 
 augmentation part        0.4817323 magnetization 

 Broyden mixing:
  rms(total) = 0.31348E-04    rms(broyden)= 0.31136E-04
  rms(prec ) = 0.43801E-04
  weight for this iteration     100.00

 eigenvalues of (default mixing * dielectric matrix)
  average eigenvalue GAMMA=   2.4274
  9.0198  6.4039  4.6447  3.2176  2.4393  2.3927  1.9880  1.3003  1.3003  1.3372
  1.2919  1.0083  1.0083  0.9990  0.9990  0.9575  0.9575

 Free energy of the ion-electron system (eV)
  ---------------------------------------------------
  alpha Z        PSCENC =         0.62641250
  Ewald energy   TEWEN  =       861.58860695
  -Hartree energ DENC   =     -1393.77693355
  -exchange      EXHF   =         0.00000000
  -V(xc)+E(xc)   XCENC  =        72.16053977
  PAW double counting   =       289.11113423     -294.38728096
  entropy T*S    EENTRO =        -0.00000000
  eigenvalues    EBANDS =      -255.02395429
  atomic energy  EATOM  =       663.51739852
  Solvation  Ediel_sol  =         0.00000000
  ---------------------------------------------------
  free energy    TOTEN  =       -56.18407683 eV

  energy without entropy =      -56.18407683  energy(sigma->0) =      -56.18407683


--------------------------------------------------------------------------------------------------------




--------------------------------------- Iteration      1(  23)  ---------------------------------------


    POTLOK:  cpu time      0.3076: real time      0.3092
    SETDIJ:  cpu time      0.1922: real time      0.1930
     EDDAV:  cpu time      0.3657: real time      0.3676
       DOS:  cpu time      0.0001: real time      0.0001
    CHARGE:  cpu time      0.1969: real time      0.1977
    MIXING:  cpu time      0.0126: real time      0.0127
    --------------------------------------------
      LOOP:  cpu time      1.0751: real time      1.0803

 eigenvalue-minimisations  :    56
 total energy-change (2. order) :-0.2535643E-05  (-0.4483830E-08)
 number of electron      22.0000000 magnetization 
 augmentation part        0.4817317 magnetization 

 Broyden mixing:
  rms(total) = 0.11764E-04    rms(broyden)= 0.11193E-04
  rms(prec ) = 0.18732E-04
  weight for this iteration     100.00

 eigenvalues of (default mixing * dielectric matrix)
  average eigenvalue GAMMA=   2.4076
  9.1300  6.5108  4.8815  3.2504  2.4993  2.4101  1.9337  1.3864  1.3864  1.5805
  1.3282  1.0093  1.0093  1.1629  0.9897  0.9897  0.9389  0.9389

 Free energy of the ion-electron system (eV)
  ---------------------------------------------------
  alpha Z        PSCENC =         0.62641250
  Ewald energy   TEWEN  =       861.58860695
  -Hartree energ DENC   =     -1393.77782340
  -exchange      EXHF   =         0.00000000
  -V(xc)+E(xc)   XCENC  =        72.16055259
  PAW double counting   =       289.11224513     -294.38840443
  entropy T*S    EENTRO =        -0.00000000
  eigenvalues    EBANDS =      -255.02306723
  atomic energy  EATOM  =       663.51739852
  Solvation  Ediel_sol  =         0.00000000
  ---------------------------------------------------
  free energy    TOTEN  =       -56.18407936 eV

  energy without entropy =      -56.18407936  energy(sigma->0) =      -56.18407936


--------------------------------------------------------------------------------------------------------




--------------------------------------- Iteration      1(  24)  ---------------------------------------


    POTLOK:  cpu time      0.3098: real time      0.3114
    SETDIJ:  cpu time      0.1926: real time      0.1934
     EDDAV:  cpu time      0.3654: real time      0.3673
       DOS:  cpu time      0.0001: real time      0.0001
    CHARGE:  cpu time      0.1990: real time      0.1998
    MIXING:  cpu time      0.0132: real time      0.0132
    --------------------------------------------
      LOOP:  cpu time      1.0800: real time      1.0852

 eigenvalue-minimisations  :    56
 total energy-change (2. order) :-0.1215027E-05  (-0.2749355E-08)
 number of electron      22.0000000 magnetization 
 augmentation part        0.4817317 magnetization 

 Broyden mixing:
  rms(total) = 0.10818E-04    rms(broyden)= 0.10195E-04
  rms(prec ) = 0.15276E-04
  weight for this iteration     100.00

 eigenvalues of (default mixing * dielectric matrix)
  average eigenvalue GAMMA=   2.4404
  9.1414  6.8447  5.1358  3.7276  2.7721  2.3173  2.3173  1.9287  1.2910  1.2910
  1.3406  1.3406  1.0080  1.0080  1.0211  1.0211  0.9377  0.9377  0.9858

 Free energy of the ion-electron system (eV)
  ---------------------------------------------------
  alpha Z        PSCENC =         0.62641250
  Ewald energy   TEWEN  =       861.58860695
  -Hartree energ DENC   =     -1393.77807477
  -exchange      EXHF   =         0.00000000
  -V(xc)+E(xc)   XCENC  =        72.16055787
  PAW double counting   =       289.11188636     -294.38804471
  entropy T*S    EENTRO =        -0.00000000
  eigenvalues    EBANDS =      -255.02282330
  atomic energy  EATOM  =       663.51739852
  Solvation  Ediel_sol  =         0.00000000
  ---------------------------------------------------
  free energy    TOTEN  =       -56.18408058 eV

  energy without entropy =      -56.18408058  energy(sigma->0) =      -56.18408058


--------------------------------------------------------------------------------------------------------




--------------------------------------- Iteration      1(  25)  ---------------------------------------


    POTLOK:  cpu time      0.3143: real time      0.3160
    SETDIJ:  cpu time      0.1937: real time      0.1946
     EDDAV:  cpu time      0.3668: real time      0.3687
       DOS:  cpu time      0.0001: real time      0.0001
    --------------------------------------------
      LOOP:  cpu time      0.8749: real time      0.8794

 eigenvalue-minimisations  :    56
 total energy-change (2. order) :-0.7419264E-06  (-0.1746811E-08)
 number of electron      22.0000000 magnetization 
 augmentation part        0.4817317 magnetization 

 Free energy of the ion-electron system (eV)
  ---------------------------------------------------
  alpha Z        PSCENC =         0.62641250
  Ewald energy   TEWEN  =       861.58860695
  -Hartree energ DENC   =     -1393.77815011
  -exchange      EXHF   =         0.00000000
  -V(xc)+E(xc)   XCENC  =        72.16056104
  PAW double counting   =       289.11171826     -294.38787430
  entropy T*S    EENTRO =        -0.00000000
  eigenvalues    EBANDS =      -255.02275419
  atomic energy  EATOM  =       663.51739852
  Solvation  Ediel_sol  =         0.00000000
  ---------------------------------------------------
  free energy    TOTEN  =       -56.18408132 eV

  energy without entropy =      -56.18408132  energy(sigma->0) =      -56.18408132


--------------------------------------------------------------------------------------------------------




 average (electrostatic) potential at core
  the test charge radii are     0.6991  0.5201
  (the norm of the test charge is              1.0000)
       1 -58.6332       2 -58.9605       3 -58.9280       4 -58.7552       5 -42.0883
       6 -41.6519       7 -41.6020       8 -42.0024       9 -41.6673      10 -41.5544
 
 
 
 E-fermi :  -5.6659     XC(G=0):  -0.4451     alpha+bet : -0.1681

 Fermi energy:        -5.6659498505

 k-point     1 :       0.0000    0.0000    0.0000
  band No.  band energies     occupation 
      1     -19.6697      2.00000
      2     -17.9883      2.00000
      3     -14.7294      2.00000
      4     -12.7211      2.00000
      5     -11.7373      2.00000
      6     -10.5407      2.00000
      7     -10.0731      2.00000
      8      -8.3659      2.00000
      9      -8.1036      2.00000
     10      -7.6667      2.00000
     11      -5.9154      2.00000
     12      -1.9468      0.00000
     13      -0.4171      0.00000
     14       0.0195      0.00000
     15       0.1643      0.00000
     16       0.3508      0.00000
     17       0.4763      0.00000
     18       0.5172      0.00000
     19       0.5314      0.00000
     20       0.6536      0.00000
     21       0.8674      0.00000
     22       0.9109      0.00000
     23       0.9871      0.00000
     24       1.1518      0.00000


--------------------------------------------------------------------------------------------------------


 soft charge-density along one line, spin component           1
         0         1         2         3         4         5         6         7         8         9
 total charge-density along one line
 
 pseudopotential strength for first ion, spin component:           1
 10.259   0.020   0.001  -0.000   0.003   0.000  -0.002   0.004
  0.020  -0.001  -0.000   0.000  -0.000   0.000  -0.000   0.000
  0.001  -0.000  -4.351   0.001  -0.005  -0.014   0.000  -0.001
 -0.000   0.000   0.001  -4.367   0.007   0.000  -0.018   0.001
  0.003  -0.000  -0.005   0.007  -4.374  -0.001   0.001  -0.019
  0.000   0.000  -0.014   0.000  -0.001  -0.772   0.000  -0.000
 -0.002  -0.000   0.000  -0.018   0.001   0.000  -0.773   0.000
  0.004   0.000  -0.001   0.001  -0.019  -0.000   0.000  -0.773
 total augmentation occupancy for first ion, spin component:           1
  1.489  -1.116  -0.016   0.022  -0.082  -0.001   0.020  -0.038
 -1.116   0.931  -0.006  -0.095   0.154   0.003  -0.035   0.060
 -0.016  -0.006   0.945  -0.006   0.082   0.100  -0.006   0.029
  0.022  -0.095  -0.006   1.164  -0.066  -0.006   0.201  -0.027
 -0.082   0.154   0.082  -0.066   1.260   0.030  -0.026   0.219
 -0.001   0.003   0.100  -0.006   0.030   0.011  -0.002   0.007
  0.020  -0.035  -0.006   0.201  -0.026  -0.002   0.036  -0.008
 -0.038   0.060   0.029  -0.027   0.219   0.007  -0.008   0.042


------------------------ aborting loop because EDIFF is reached ----------------------------------------


    CHARGE:  cpu time      0.1974: real time      0.1981
    FORLOC:  cpu time      0.0310: real time      0.0311
    FORNL :  cpu time      1.0799: real time      1.0849
    STRESS:  cpu time      3.4031: real time      3.4187
    FORHAR:  cpu time      0.1086: real time      0.1091
    MIXING:  cpu time      0.0117: real time      0.0118
    OFIELD:  cpu time      0.0001: real time      0.0001

  FORCE on cell =-STRESS in cart. coord.  units (eV):
  Direction    XX          YY          ZZ          XY          YZ          ZX
  --------------------------------------------------------------------------------------
  Alpha Z     0.62641     0.62641     0.62641
  Ewald     395.94301  -203.99233   669.63759    76.79978    -3.16567   -69.92805
  Hartree   481.64634   190.99035   721.14177    37.59013    -7.41609   -49.54407
  E(xc)     -75.11133   -77.21339   -74.93053     0.26083     0.07744    -0.09332
  Local   -1061.74224  -210.31454 -1580.35068  -109.65162    11.67747   116.84730
  n-local   -30.80195   -27.59261   -28.74822    -0.34389    -0.14684    -0.53252
  augment    -0.70279    -0.51389    -0.65480    -0.02435    -0.00311     0.02260
  Kinetic   290.74270   327.68417   283.11903    -4.35984    -2.02122     3.85085
  Fock        0.00000     0.00000     0.00000     0.00000     0.00000     0.00000
  -------------------------------------------------------------------------------------
  Total       0.60016    -0.32583   -10.15943     0.27104    -0.99803     0.62280
  in kB       0.28491    -0.15468    -4.82288     0.12867    -0.47378     0.29566
  external pressure =       -1.56 kB  Pullay stress =        0.00 kB


 VOLUME and BASIS-vectors are now :
 -----------------------------------------------------------------------------
  energy-cutoff  :      520.00
  volume of cell :     3375.00
      direct lattice vectors                 reciprocal lattice vectors
    15.000000000  0.000000000  0.000000000     0.066666667  0.000000000  0.000000000
     0.000000000 15.000000000  0.000000000     0.000000000  0.066666667  0.000000000
     0.000000000  0.000000000 15.000000000     0.000000000  0.000000000  0.066666667

  length of vectors
    15.000000000 15.000000000 15.000000000     0.066666667  0.066666667  0.066666667


 FORCES acting on ions
    electron-ion (+dipol)            ewald-force                    non-local-force                 convergence-correction
 -----------------------------------------------------------------------------------------------
   -.115E+03 -.150E+02 0.102E+03   0.117E+03 0.155E+02 -.103E+03   0.439E+00 0.889E+00 0.143E+01   0.203E-04 0.715E-05 0.275E-04
   0.856E+02 0.179E+02 0.508E+02   -.885E+02 -.183E+02 -.505E+02   -.150E+01 -.941E+00 0.143E+01   -.600E-04 -.151E-04 0.414E-04
   0.984E+02 0.833E+01 -.138E+02   -.984E+02 -.776E+01 0.138E+02   0.102E+01 -.393E+00 -.378E-01   -.580E-05 0.237E-05 0.287E-04
   -.566E+02 0.549E+01 -.139E+03   0.569E+02 -.555E+01 0.141E+03   0.207E+00 0.844E+00 -.557E+00   0.484E-05 0.906E-06 -.290E-04
   -.216E+02 -.757E+01 0.619E+02   0.225E+02 0.782E+01 -.665E+02   -.135E+01 -.666E+00 0.523E+01   0.736E-05 0.362E-05 -.114E-04
   -.571E+02 -.162E+02 -.186E+02   0.604E+02 0.172E+02 0.210E+02   -.365E+01 -.117E+01 -.338E+01   0.130E-04 0.409E-05 0.139E-04
   0.527E+02 0.154E+02 0.414E+02   -.559E+02 -.162E+02 -.437E+02   0.402E+01 0.122E+01 0.289E+01   -.806E-05 -.167E-05 0.225E-05
   0.674E+02 0.319E+00 -.200E+02   -.729E+02 -.241E+00 0.211E+02   0.540E+01 -.284E-01 -.178E+01   0.595E-05 0.733E-06 -.255E-05
   -.608E+02 0.191E+01 -.729E+01   0.649E+02 -.199E+01 0.655E+01   -.490E+01 0.889E-01 0.160E+01   -.600E-05 0.907E-06 0.746E-06
   0.597E+01 -.947E+01 -.595E+02   -.642E+01 0.951E+01 0.608E+02   0.797E+00 -.853E+00 -.414E+01   0.222E-05 0.199E-06 -.944E-05
 -----------------------------------------------------------------------------------------------
   -.497E+00 0.102E+01 -.269E+01   -.391E-13 0.000E+00 0.711E-14   0.492E+00 -.101E+01 0.269E+01   -.262E-04 0.323E-05 0.621E-04
 
 
 POSITION                                       TOTAL-FORCE (eV/Angst)
 -----------------------------------------------------------------------------------
      8.23600      7.61000      6.02700         3.311155      1.312422      0.194596
      7.08500      7.39300      6.58300        -4.427112     -1.311252      1.720044
      6.70200      7.39200      8.09800         1.077781      0.170353     -0.062237
      7.58400      7.42400      9.13400         0.476744      0.778065      0.472367
      8.49600      7.73000      4.95400        -0.464699     -0.411147      0.634679
      9.05600      7.86500      6.76000        -0.323951     -0.177720     -0.939289
      6.18500      7.13000      5.94400         0.853543      0.394797      0.535160
      5.65000      7.39900      8.40200        -0.130066      0.048930     -0.657270
      8.66300      7.41000      8.80700        -0.720415      0.000452      0.856500
      7.34500      7.64700     10.29100         0.347019     -0.804901     -2.754548
 -----------------------------------------------------------------------------------
    total drift:                               -0.005286      0.006627      0.004233


--------------------------------------------------------------------------------------------------------



  FREE ENERGIE OF THE ION-ELECTRON SYSTEM (eV)
  ---------------------------------------------------
  free  energy   TOTEN  =       -56.18408132 eV

  energy  without entropy=      -56.18408132  energy(sigma->0) =      -56.18408132
 


--------------------------------------------------------------------------------------------------------


    POTLOK:  cpu time      0.5066: real time      0.5091


--------------------------------------------------------------------------------------------------------


 stress matrix after NEB project (eV)
      0.60016      0.27105      0.62280
      0.27104     -0.32583     -0.99803
      0.62280     -0.99803    -10.15943
  FORCES: max atom, RMS     4.927196    2.286673
  FORCE total and by dimension    7.231096    4.427112
  Stress total and by dimension   10.324498   10.159434
     LOOP+:  cpu time     30.1153: real time     30.2659
    4ORBIT:  cpu time      0.0000: real time      0.0000

 total amount of memory used by VASP MPI-rank0   224783. kBytes
=======================================================================

   base      :      30000. kBytes
   nonlr-proj:       1259. kBytes
   fftplans  :     123538. kBytes
   grid      :      67787. kBytes
   one-center:         15. kBytes
   wavefun   :       2184. kBytes
 
  
  
 General timing and accounting informations for this job:
 ========================================================
  
                  Total CPU time used (sec):       36.710
                            User time (sec):       33.546
                          System time (sec):        3.164
                         Elapsed time (sec):       38.145
  
                   Maximum memory used (kb):      558656.
                   Average memory used (kb):          N/A
  
                          Minor page faults:       151981
                          Major page faults:         5447
                 Voluntary context switches:         3134
