 vasp.6.4.2 20Jul23 (build Apr 10 2024 13:39:58) complex                        
  
 executed on             LinuxIFC date 2024.05.18  22:24:47
 running   16 mpi-ranks, on    1 nodes
 distrk:  each k-point on   16 cores,    1 groups
 distr:  one band on NCORE=   2 cores,    8 groups


--------------------------------------------------------------------------------------------------------


 INCAR:
   ISTART = 0
   ISPIN = 1
   LREAL = Auto
   ENCUT = 520
   NPAR = 8
   LPLANE = .TRUE.
   LSCALU = .FALSE.
   NSIM = 4
   LWAVE = .FALSE.
   LCHARG = .FALSE.
   ADDGRID = .TRUE.
   LASPH = .TRUE.
   PREC = Accurate
   ISMEAR = 0
   SIGMA = 0.05
   EDIFF = 1E-06
   NSW = 0
   TEBEG = 300
   TEEND = 700     	
   ISYM = 0
   NWRITE = 2

 POTCAR:   PAW_PBE C 08Apr2002                    
 POTCAR:   PAW_PBE H 15Jun2001                    
 POTCAR:   PAW_PBE C 08Apr2002                    
   VRHFIN =C: s2p2                                                                                  
   LEXCH  = PE                                                                                      
   EATOM  =   147.1560 eV,   10.8157 Ry                                                             
                                                                                                    
   TITEL  = PAW_PBE C 08Apr2002                                                                     
   LULTRA =        F    use ultrasoft PP ?                                                          
   IUNSCR =        0    unscreen: 0-lin 1-nonlin 2-no                                               
   RPACOR =     .000    partial core radius                                                         
   POMASS =   12.011; ZVAL   =    4.000    mass and valenz                                          
   RCORE  =    1.500    outmost cutoff radius                                                       
   RWIGS  =    1.630; RWIGS  =     .863    wigner-seitz radius (au A)                               
   ENMAX  =  400.000; ENMIN  =  300.000 eV                                                          
   ICORE  =        2    local potential                                                             
   LCOR   =        T    correct aug charges                                                         
   LPAW   =        T    paw PP                                                                      
   EAUG   =  644.873                                                                                
   DEXC   =     .000                                                                                
   RMAX   =    2.266    core radius for proj-oper                                                   
   RAUG   =    1.300    factor for augmentation sphere                                              
   RDEP   =    1.501    radius for radial grids                                                     
   RDEPT  =    1.300    core radius for aug-charge                                                  
   QCUT   =   -5.516; QGAM   =   11.032    optimization parameters                                  
                                                                                                    
   Description                                                                                      
     l     E      TYP  RCUT    TYP  RCUT                                                            
     0   .000     23  1.200                                                                         
     0   .000     23  1.200                                                                         
     1   .000     23  1.500                                                                         
     1  2.500     23  1.500                                                                         
     2   .000      7  1.500                                                                         
  local pseudopotential read in
  atomic valenz-charges read in
  non local Contribution for L=           0  read in
    real space projection operators read in
  non local Contribution for L=           0  read in
    real space projection operators read in
  non local Contribution for L=           1  read in
    real space projection operators read in
  non local Contribution for L=           1  read in
    real space projection operators read in
    PAW grid and wavefunctions read in
 
   number of l-projection  operators is LMAX  =           4
   number of lm-projection operators is LMMAX =           8
 
 POTCAR:   PAW_PBE H 15Jun2001                    
   VRHFIN =H: ultrasoft test                                                                        
   LEXCH  = PE                                                                                      
   EATOM  =    12.4884 eV,     .9179 Ry                                                             
                                                                                                    
   TITEL  = PAW_PBE H 15Jun2001                                                                     
   LULTRA =        F    use ultrasoft PP ?                                                          
   IUNSCR =        0    unscreen: 0-lin 1-nonlin 2-no                                               
   RPACOR =     .000    partial core radius                                                         
   POMASS =    1.000; ZVAL   =    1.000    mass and valenz                                          
   RCORE  =    1.100    outmost cutoff radius                                                       
   RWIGS  =     .700; RWIGS  =     .370    wigner-seitz radius (au A)                               
   ENMAX  =  250.000; ENMIN  =  200.000 eV                                                          
   RCLOC  =     .701    cutoff for local pot                                                        
   LCOR   =        T    correct aug charges                                                         
   LPAW   =        T    paw PP                                                                      
   EAUG   =  400.000                                                                                
   RMAX   =    2.174    core radius for proj-oper                                                   
   RAUG   =    1.200    factor for augmentation sphere                                              
   RDEP   =    1.112    radius for radial grids                                                     
   QCUT   =   -5.749; QGAM   =   11.498    optimization parameters                                  
                                                                                                    
   Description                                                                                      
     l     E      TYP  RCUT    TYP  RCUT                                                            
     0   .000     23  1.100                                                                         
     0   .500     23  1.100                                                                         
     1  -.300     23  1.100                                                                         
  local pseudopotential read in
  atomic valenz-charges read in
  non local Contribution for L=           0  read in
    real space projection operators read in
  non local Contribution for L=           0  read in
    real space projection operators read in
  non local Contribution for L=           1  read in
    real space projection operators read in
    PAW grid and wavefunctions read in
 
   number of l-projection  operators is LMAX  =           3
   number of lm-projection operators is LMMAX =           5
 
 Optimization of the real space projectors (new method)

 maximal supplied QI-value         = 25.13
 optimisation between [QCUT,QGAM] = [ 11.56, 23.12] = [ 37.43,149.72] Ry 
 Optimized for a Real-space Cutoff    1.04 Angstroem

   l    n(q)    QCUT    max X(q) W(low)/X(q) W(high)/X(q)  e(spline) 
   0      7    11.561     5.582    0.47E-04    0.94E-04    0.17E-07
   0      7    11.561    69.432    0.20E-03    0.59E-03    0.21E-06
   1      7    11.561     2.780    0.24E-04    0.70E-04    0.44E-07
   1      7    11.561     4.549    0.18E-03    0.25E-03    0.12E-06
 Optimization of the real space projectors (new method)

 maximal supplied QI-value         = 34.20
 optimisation between [QCUT,QGAM] = [ 11.63, 23.26] = [ 37.87,151.49] Ry 
 Optimized for a Real-space Cutoff    1.21 Angstroem

   l    n(q)    QCUT    max X(q) W(low)/X(q) W(high)/X(q)  e(spline) 
   0      8    11.629     4.436    0.19E-04    0.32E-04    0.47E-07
   0      8    11.629    16.131    0.16E-03    0.33E-03    0.21E-06
   1      8    11.629     4.654    0.18E-03    0.16E-03    0.26E-06
 PAW_PBE C 08Apr2002                    :
 energy of atom  1       EATOM= -147.1560
 kinetic energy error for atom=    0.0071 (will be added to EATOM!!)
 PAW_PBE H 15Jun2001                    :
 energy of atom  2       EATOM=  -12.4884
 kinetic energy error for atom=    0.0014 (will be added to EATOM!!)
 
 
 POSCAR:  C  H
  positions in cartesian coordinates
  No initial velocities read in
 exchange correlation table for  LEXCH =        8
   RHO(1)=    0.500       N(1)  =     2000
   RHO(2)=  100.500       N(2)  =     4000

 VTST: version 4.1, (05/19/21)

 CHAIN: initializing optimizer
 
 OPT: Using VASP Dynamics algorithm
 CHAIN: Read ICHAIN            0
 
 POSCAR:  C  H
  positions in cartesian coordinates
  No initial velocities read in
 


--------------------------------------------------------------------------------------------------------


 ion  position               nearest neighbor table
   1  0.517  0.542  0.455-   6 1.16   5 1.16   4 1.50   2 1.54
   2  0.493  0.442  0.446-   7 1.17   3 1.38   1 1.54
   3  0.476  0.434  0.537-   8 1.09   2 1.38   4 1.65
   4  0.503  0.539  0.554-  10 1.11   9 1.12   1 1.50   3 1.65
   5  0.590  0.562  0.438-   1 1.16
   6  0.467  0.590  0.422-   1 1.16
   7  0.489  0.388  0.390-   2 1.17
   8  0.457  0.380  0.581-   3 1.09
   9  0.563  0.545  0.597-   4 1.12
  10  0.446  0.578  0.580-   4 1.11
 

IMPORTANT INFORMATION: All symmetrisations will be switched off!
NOSYMM: (Re-)initialisation of all symmetry stuff for point group C_1.


----------------------------------------------------------------------------------------

                                     Primitive cell                                     

  volume of cell :    3375.0000

  direct lattice vectors                    reciprocal lattice vectors
    15.000000000  0.000000000  0.000000000     0.066666667  0.000000000  0.000000000
     0.000000000 15.000000000  0.000000000     0.000000000  0.066666667  0.000000000
     0.000000000  0.000000000 15.000000000     0.000000000  0.000000000  0.066666667

  length of vectors
    15.000000000 15.000000000 15.000000000     0.066666667  0.066666667  0.066666667

  position of ions in fractional coordinates (direct lattice)
     0.516933346  0.541933314  0.454933325
     0.492733320  0.442466672  0.446333345
     0.476266670  0.433666674  0.536666679
     0.503066667  0.539000003  0.553666687
     0.589533361  0.561733309  0.437866656
     0.467000008  0.590199979  0.421666654
     0.488533338  0.388266659  0.390133349
     0.456733322  0.379599984  0.581266658
     0.563133303  0.545399984  0.597066689
     0.446199989  0.577733358  0.580400022

  ion indices of the primitive-cell ions
   primitive index   ion index
                 1           1
                 2           2
                 3           3
                 4           4
                 5           5
                 6           6
                 7           7
                 8           8
                 9           9
                10          10

----------------------------------------------------------------------------------------

 
 
 KPOINTS: K-Spacing Value to Generate K-Mesh: 1.00

Automatic generation of k-mesh.
 Grid dimensions read from file:
 generate k-points for:    1    1    1

 Generating k-lattice:

  Cartesian coordinates                     Fractional coordinates (reciprocal lattice)
     0.066666667  0.000000000  0.000000000     1.000000000  0.000000000  0.000000000
     0.000000000  0.066666667  0.000000000     0.000000000  1.000000000  0.000000000
     0.000000000  0.000000000  0.066666667     0.000000000  0.000000000  1.000000000

  Length of vectors
     0.066666667  0.066666667  0.066666667

  Shift w.r.t. Gamma in fractional coordinates (k-lattice)
     0.000000000  0.000000000  0.000000000

 
 Subroutine IBZKPT returns following result:
 ===========================================
 
 Found      1 irreducible k-points:
 
 Following reciprocal coordinates:
            Coordinates               Weight
  0.000000  0.000000  0.000000      1.000000
 
 Following cartesian coordinates:
            Coordinates               Weight
  0.000000  0.000000  0.000000      1.000000
 


--------------------------------------------------------------------------------------------------------




 Dimension of arrays:
   k-points           NKPTS =      1   k-points in BZ     NKDIM =      1   number of bands    NBANDS=     24
   number of dos      NEDOS =    301   number of ions     NIONS =     10
   non local maximal  LDIM  =      4   non local SUM 2l+1 LMDIM =      8
   total plane-waves  NPLWV = ******
   max r-space proj   IRMAX =   3145   max aug-charges    IRDMAX=  39494
   dimension x,y,z NGX =   112 NGY =  112 NGZ =  112
   dimension x,y,z NGXF=   224 NGYF=  224 NGZF=  224
   support grid    NGXF=   448 NGYF=  448 NGZF=  448
   ions per type =               4   6
   NGX,Y,Z   is equivalent  to a cutoff of  12.41, 12.41, 12.41 a.u.
   NGXF,Y,Z  is equivalent  to a cutoff of  24.83, 24.83, 24.83 a.u.

 SYSTEM =  unknown system                          
 POSCAR =   C  H                                   

 Startparameter for this run:
   NWRITE =      2    write-flag & timer
   PREC   = accura    normal or accurate (medium, high low for compatibility)
   ISTART =      0    job   : 0-new  1-cont  2-samecut
   ICHARG =      2    charge: 1-file 2-atom 10-const
   ISPIN  =      1    spin polarized calculation?
   LNONCOLLINEAR =      F non collinear calculations
   LSORBIT =      F    spin-orbit coupling
   INIWAV =      1    electr: 0-lowe 1-rand  2-diag
   LASPH  =      T    aspherical Exc in radial PAW
 Electronic Relaxation 1
   ENCUT  =  520.0 eV  38.22 Ry    6.18 a.u.  27.89 27.89 27.89*2*pi/ulx,y,z
   ENINI  =  520.0     initial cutoff
   ENAUG  =  644.9 eV  augmentation charge cutoff
   NELM   =     60;   NELMIN=  2; NELMDL= -5     # of ELM steps 
   EDIFF  = 0.1E-05   stopping-criterion for ELM
   LREAL  =      T    real-space projection
   NLSPLINE    = F    spline interpolate recip. space projectors
   LCOMPAT=      F    compatible to vasp.4.4
   GGA_COMPAT  = T    GGA compatible to vasp.4.4-vasp.4.6
   LMAXPAW     = -100 max onsite density
   LMAXMIX     =    2 max onsite mixed and CHGCAR
   VOSKOWN=      0    Vosko Wilk Nusair interpolation
   ROPT   =   -0.00025  -0.00025
 Ionic relaxation
   EDIFFG = 0.1E-04   stopping-criterion for IOM
   NSW    =      0    number of steps for IOM
   NBLOCK =      1;   KBLOCK =      1    inner block; outer block 
   IBRION =     -1    ionic relax: 0-MD 1-quasi-New 2-CG
   NFREE  =      0    steps in history (QN), initial steepest desc. (CG)
   ISIF   =      2    stress and relaxation
   IWAVPR =     10    prediction:  0-non 1-charg 2-wave 3-comb
   ISYM   =      0    0-nonsym 1-usesym 2-fastsym
   LCORR  =      T    Harris-Foulkes like correction to forces

   POTIM  = 0.5000    time-step for ionic-motion
   TEIN   =    0.0    initial temperature
   TEBEG  =  300.0;   TEEND  = 700.0 temperature during run
   SMASS  =  -3.00    Nose mass-parameter (am)
   estimated Nose-frequenzy (Omega)   =  0.10E-29 period in steps = 0.13E+47 mass=  -0.514E-26a.u.
   SCALEE = 1.0000    scale energy and forces
   NPACO  =    256;   APACO  = 10.0  distance and # of slots for P.C.
   PSTRESS=    0.0 pullay stress

  Mass of Ions in am
   POMASS =  12.01  1.00
  Ionic Valenz
   ZVAL   =   4.00  1.00
  Atomic Wigner-Seitz radii
   RWIGS  =  -1.00 -1.00
  virtual crystal weights 
   VCA    =   1.00  1.00
   NELECT =      22.0000    total number of electrons
   NUPDOWN=      -1.0000    fix difference up-down

 DOS related values:
   EMIN   =  10.00;   EMAX   =-10.00  energy-range for DOS
   EFERMI =   0.00;   METHOD = LEGACY      
   ISMEAR =     0;   SIGMA  =   0.05  broadening in eV -4-tet -1-fermi 0-gaus

 Electronic relaxation 2 (details)
   IALGO  =     38    algorithm
   LDIAG  =      T    sub-space diagonalisation (order eigenvalues)
   LSUBROT=      F    optimize rotation matrix (better conditioning)
   TURBO    =      0    0=normal 1=particle mesh
   IRESTART =      0    0=no restart 2=restart with 2 vectors
   NREBOOT  =      0    no. of reboots
   NMIN     =      0    reboot dimension
   EREF     =   0.00    reference energy to select bands
   IMIX   =      4    mixing-type and parameters
     AMIX     =   0.40;   BMIX     =  1.00
     AMIX_MAG =   1.60;   BMIX_MAG =  1.00
     AMIN     =   0.10
     WC   =   100.;   INIMIX=   1;  MIXPRE=   1;  MAXMIX= -45

 Intra band minimization:
   WEIMIN = 0.0000     energy-eigenvalue tresh-hold
   EBREAK =  0.10E-07  absolut break condition
   DEPER  =   0.30     relativ break condition  

   TIME   =   0.40     timestep for ELM

  volume/ion in A,a.u.               =     337.50      2277.56
  Fermi-wavevector in a.u.,A,eV,Ry     =   0.305814  0.577905  1.272449  0.093522
  Thomas-Fermi vector in A             =   1.179187
 
 Write flags
   LWAVE        =      F    write WAVECAR
   LDOWNSAMPLE  =      F    k-point downsampling of WAVECAR
   LCHARG       =      F    write CHGCAR
   LVTOT        =      F    write LOCPOT, total local potential
   LVHAR        =      F    write LOCPOT, Hartree potential only
   LELF         =      F    write electronic localiz. function (ELF)
   LORBIT       =      0    0 simple, 1 ext, 2 COOP (PROOUT), +10 PAW based schemes


 Dipole corrections
   LMONO  =      F    monopole corrections only (constant potential shift)
   LDIPOL =      F    correct potential (dipole corrections)
   IDIPOL =      0    1-x, 2-y, 3-z, 4-all directions 
   EPSILON=  1.0000000 bulk dielectric constant

 Exchange correlation treatment:
   GGA     =    --    GGA type
   LEXCH   =     8    internal setting for exchange type
   LIBXC   =     F    Libxc                    
   VOSKOWN =     0    Vosko Wilk Nusair interpolation
   LHFCALC =     F    Hartree Fock is set to
   LHFONE  =     F    Hartree Fock one center treatment
   AEXX    =    0.0000 exact exchange contribution

 Linear response parameters
   LEPSILON=     F    determine dielectric tensor
   LRPA    =     F    only Hartree local field effects (RPA)
   LNABLA  =     F    use nabla operator in PAW spheres
   LVEL    =     F    velocity operator in full k-point grid
   CSHIFT  =0.1000    complex shift for real part using Kramers Kronig
   OMEGAMAX=  -1.0    maximum frequency
   DEG_THRESHOLD= 0.2000000E-02 threshold for treating states as degnerate
   RTIME   =   -0.100 relaxation time in fs
  (WPLASMAI=    0.000 imaginary part of plasma frequency in eV, 0.658/RTIME)
   DFIELD  = 0.0000000 0.0000000 0.0000000 field for delta impulse in time
 
  Optional k-point grid parameters
   LKPOINTS_OPT  =     F    use optional k-point grid
   KPOINTS_OPT_MODE=     1    mode for optional k-point grid
 
 Orbital magnetization related:
   ORBITALMAG=     F  switch on orbital magnetization
   LCHIMAG   =     F  perturbation theory with respect to B field
   DQ        =  0.001000  dq finite difference perturbation B field
   LLRAUG    =     F  two centre corrections for induced B field
   LBONE     =     F  B-component reconstruction in AE one-centre
   LVGVCALC  =     T  calculate vGv susceptibility
   LVGVAPPL  =     F  apply vGv susceptibility instead of pGv for G=0

 Random number generation:
   RANDOM_GENERATOR = DEFAULT
   PCG_SEED         = not used


--------------------------------------------------------------------------------------------------------


 Static calculation
 charge density and potential will be updated during run
 non-spin polarized calculation
 Variant of blocked Davidson
 Davidson routine will perform the subspace rotation
 perform sub-space diagonalisation
    after iterative eigenvector-optimisation
 modified Broyden-mixing scheme, WC =      100.0
 initial mixing is a Kerker type mixing with AMIX =  0.4000 and BMIX =      1.0000
 Hartree-type preconditioning will be used
 using additional bands           13
 real space projection scheme for non local part
 calculate Harris-corrections to forces 
   (improved forces if not selfconsistent)
 use gradient corrections 
 use of overlap-Matrix (Vanderbilt PP)
 Gauss-broadening in eV      SIGMA  =   0.05


--------------------------------------------------------------------------------------------------------


  energy-cutoff  :      520.00
  volume of cell :     3375.00
      direct lattice vectors                 reciprocal lattice vectors
    15.000000000  0.000000000  0.000000000     0.066666667  0.000000000  0.000000000
     0.000000000 15.000000000  0.000000000     0.000000000  0.066666667  0.000000000
     0.000000000  0.000000000 15.000000000     0.000000000  0.000000000  0.066666667

  length of vectors
    15.000000000 15.000000000 15.000000000     0.066666667  0.066666667  0.066666667


 
 k-points in units of 2pi/SCALE and weight: K-Spacing Value to Generate K-Mesh: 1.00
   0.00000000  0.00000000  0.00000000       1.000
 
 k-points in reciprocal lattice and weights: K-Spacing Value to Generate K-Mesh: 1.00
   0.00000000  0.00000000  0.00000000       1.000
 
 position of ions in fractional coordinates (direct lattice) 
   0.51693335  0.54193331  0.45493333
   0.49273332  0.44246667  0.44633334
   0.47626667  0.43366667  0.53666668
   0.50306667  0.53900000  0.55366669
   0.58953336  0.56173331  0.43786666
   0.46700001  0.59019998  0.42166665
   0.48853334  0.38826666  0.39013335
   0.45673332  0.37959998  0.58126666
   0.56313330  0.54539998  0.59706669
   0.44619999  0.57773336  0.58040002
 
 position of ions in cartesian coordinates  (Angst):
   7.75400019  8.12899971  6.82399988
   7.39099979  6.63700008  6.69500017
   7.14400005  6.50500011  8.05000019
   7.54600000  8.08500004  8.30500031
   8.84300041  8.42599964  6.56799984
   7.00500011  8.85299969  6.32499981
   7.32800007  5.82399988  5.85200024
   6.85099983  5.69399977  8.71899986
   8.44699955  8.18099976  8.95600033
   6.69299984  8.66600037  8.70600033
 


--------------------------------------------------------------------------------------------------------


 k-point   1 :   0.0000 0.0000 0.0000  plane waves:   90879

 maximum and minimum number of plane-waves per node :     45467    45412

 maximum number of plane-waves:     90879
 maximum index in each direction: 
   IXMAX=   27   IYMAX=   27   IZMAX=   27
   IXMIN=  -27   IYMIN=  -27   IZMIN=  -27


 real space projection operators:
  total allocation   :       1185.16 KBytes
  max/ min on nodes  :        592.71        592.45


 parallel 3D FFT for wavefunctions:
    minimum data exchange during FFTs selected (reduces bandwidth)
 parallel 3D FFT for charge:
    minimum data exchange during FFTs selected (reduces bandwidth)


 total amount of memory used by VASP MPI-rank0   224782. kBytes
=======================================================================

   base      :      30000. kBytes
   nonlr-proj:       1258. kBytes
   fftplans  :     123538. kBytes
   grid      :      67787. kBytes
   one-center:         15. kBytes
   wavefun   :       2184. kBytes
 
     INWAV:  cpu time      0.0000: real time      0.0000
 Broyden mixing: mesh for mixing (old mesh)
   NGX = 55   NGY = 55   NGZ = 55
  (NGX  =224   NGY  =224   NGZ  =224)
  gives a total of 166375 points

 initial charge density was supplied:
 charge density of overlapping atoms calculated
 number of electron      22.0000000 magnetization 
 keeping initial charge density in first step


--------------------------------------------------------------------------------------------------------


 Maximum index for non-local projection operator         1507
 Maximum index for augmentation-charges         2476 (set IRDMAX)


--------------------------------------------------------------------------------------------------------


 First call to EWALD:  gamma=   0.118
 Maximum number of real-space cells 3x 3x 3
 Maximum number of reciprocal cells 3x 3x 3

    FEWALD:  cpu time      0.0012: real time      0.0012


--------------------------------------- Ionic step        1  -------------------------------------------




--------------------------------------- Iteration      1(   1)  ---------------------------------------


    POTLOK:  cpu time      0.3349: real time      0.3368
    SETDIJ:  cpu time      0.1937: real time      0.1945
     EDDAV:  cpu time      0.4179: real time      0.4207
       DOS:  cpu time      0.0002: real time      0.0002
    --------------------------------------------
      LOOP:  cpu time      0.9467: real time      0.9522

 eigenvalue-minimisations  :    64
 total energy-change (2. order) : 0.9819184E+02  (-0.5281432E+03)
 number of electron      22.0000000 magnetization 
 augmentation part       22.0000000 magnetization 

 Free energy of the ion-electron system (eV)
  ---------------------------------------------------
  alpha Z        PSCENC =         0.62641250
  Ewald energy   TEWEN  =       967.12071517
  -Hartree energ DENC   =     -1398.29117090
  -exchange      EXHF   =         0.00000000
  -V(xc)+E(xc)   XCENC  =        67.40252152
  PAW double counting   =       156.01372664     -160.66969168
  entropy T*S    EENTRO =        -0.00124145
  eigenvalues    EBANDS =      -197.52683473
  atomic energy  EATOM  =       663.51739852
  Solvation  Ediel_sol  =         0.00000000
  ---------------------------------------------------
  free energy    TOTEN  =        98.19183559 eV

  energy without entropy =       98.19307704  energy(sigma->0) =       98.19245632


--------------------------------------------------------------------------------------------------------




--------------------------------------- Iteration      1(   2)  ---------------------------------------


     EDDAV:  cpu time      0.4855: real time      0.4882
       DOS:  cpu time      0.0001: real time      0.0001
    --------------------------------------------
      LOOP:  cpu time      0.4856: real time      0.4883

 eigenvalue-minimisations  :    80
 total energy-change (2. order) :-0.1162554E+03  (-0.1128460E+03)
 number of electron      22.0000000 magnetization 
 augmentation part       22.0000000 magnetization 

 Free energy of the ion-electron system (eV)
  ---------------------------------------------------
  alpha Z        PSCENC =         0.62641250
  Ewald energy   TEWEN  =       967.12071517
  -Hartree energ DENC   =     -1398.29117090
  -exchange      EXHF   =         0.00000000
  -V(xc)+E(xc)   XCENC  =        67.40252152
  PAW double counting   =       156.01372664     -160.66969168
  entropy T*S    EENTRO =        -0.00000000
  eigenvalues    EBANDS =      -313.78349861
  atomic energy  EATOM  =       663.51739852
  Solvation  Ediel_sol  =         0.00000000
  ---------------------------------------------------
  free energy    TOTEN  =       -18.06358683 eV

  energy without entropy =      -18.06358683  energy(sigma->0) =      -18.06358683


--------------------------------------------------------------------------------------------------------




--------------------------------------- Iteration      1(   3)  ---------------------------------------


     EDDAV:  cpu time      0.4047: real time      0.4070
       DOS:  cpu time      0.0001: real time      0.0001
    --------------------------------------------
      LOOP:  cpu time      0.4048: real time      0.4071

 eigenvalue-minimisations  :    64
 total energy-change (2. order) :-0.3900662E+02  (-0.3891418E+02)
 number of electron      22.0000000 magnetization 
 augmentation part       22.0000000 magnetization 

 Free energy of the ion-electron system (eV)
  ---------------------------------------------------
  alpha Z        PSCENC =         0.62641250
  Ewald energy   TEWEN  =       967.12071517
  -Hartree energ DENC   =     -1398.29117090
  -exchange      EXHF   =         0.00000000
  -V(xc)+E(xc)   XCENC  =        67.40252152
  PAW double counting   =       156.01372664     -160.66969168
  entropy T*S    EENTRO =        -0.00000000
  eigenvalues    EBANDS =      -352.79011571
  atomic energy  EATOM  =       663.51739852
  Solvation  Ediel_sol  =         0.00000000
  ---------------------------------------------------
  free energy    TOTEN  =       -57.07020394 eV

  energy without entropy =      -57.07020394  energy(sigma->0) =      -57.07020394


--------------------------------------------------------------------------------------------------------




--------------------------------------- Iteration      1(   4)  ---------------------------------------


     EDDAV:  cpu time      0.4034: real time      0.4057
       DOS:  cpu time      0.0001: real time      0.0001
    --------------------------------------------
      LOOP:  cpu time      0.4035: real time      0.4058

 eigenvalue-minimisations  :    64
 total energy-change (2. order) :-0.4611441E+01  (-0.4599277E+01)
 number of electron      22.0000000 magnetization 
 augmentation part       22.0000000 magnetization 

 Free energy of the ion-electron system (eV)
  ---------------------------------------------------
  alpha Z        PSCENC =         0.62641250
  Ewald energy   TEWEN  =       967.12071517
  -Hartree energ DENC   =     -1398.29117090
  -exchange      EXHF   =         0.00000000
  -V(xc)+E(xc)   XCENC  =        67.40252152
  PAW double counting   =       156.01372664     -160.66969168
  entropy T*S    EENTRO =        -0.00000000
  eigenvalues    EBANDS =      -357.40155692
  atomic energy  EATOM  =       663.51739852
  Solvation  Ediel_sol  =         0.00000000
  ---------------------------------------------------
  free energy    TOTEN  =       -61.68164514 eV

  energy without entropy =      -61.68164514  energy(sigma->0) =      -61.68164514


--------------------------------------------------------------------------------------------------------




--------------------------------------- Iteration      1(   5)  ---------------------------------------


     EDDAV:  cpu time      0.3640: real time      0.3660
       DOS:  cpu time      0.0001: real time      0.0001
    CHARGE:  cpu time      0.2039: real time      0.2047
    MIXING:  cpu time      0.0084: real time      0.0084
    --------------------------------------------
      LOOP:  cpu time      0.5764: real time      0.5793

 eigenvalue-minimisations  :    56
 total energy-change (2. order) :-0.1077128E+00  (-0.1076773E+00)
 number of electron      22.0000000 magnetization 
 augmentation part        0.5475305 magnetization 

 Broyden mixing:
  rms(total) = 0.10764E+01    rms(broyden)= 0.10762E+01
  rms(prec ) = 0.13122E+01
  weight for this iteration     100.00

 Free energy of the ion-electron system (eV)
  ---------------------------------------------------
  alpha Z        PSCENC =         0.62641250
  Ewald energy   TEWEN  =       967.12071517
  -Hartree energ DENC   =     -1398.29117090
  -exchange      EXHF   =         0.00000000
  -V(xc)+E(xc)   XCENC  =        67.40252152
  PAW double counting   =       156.01372664     -160.66969168
  entropy T*S    EENTRO =        -0.00000000
  eigenvalues    EBANDS =      -357.50926971
  atomic energy  EATOM  =       663.51739852
  Solvation  Ediel_sol  =         0.00000000
  ---------------------------------------------------
  free energy    TOTEN  =       -61.78935794 eV

  energy without entropy =      -61.78935794  energy(sigma->0) =      -61.78935794


--------------------------------------------------------------------------------------------------------




--------------------------------------- Iteration      1(   6)  ---------------------------------------


    POTLOK:  cpu time      0.3068: real time      0.3085
    SETDIJ:  cpu time      0.1949: real time      0.1958
     EDDAV:  cpu time      0.4069: real time      0.4091
       DOS:  cpu time      0.0001: real time      0.0001
    CHARGE:  cpu time      0.1990: real time      0.1998
    MIXING:  cpu time      0.0092: real time      0.0092
    --------------------------------------------
      LOOP:  cpu time      1.1169: real time      1.1225

 eigenvalue-minimisations  :    64
 total energy-change (2. order) : 0.4500055E+01  (-0.6819315E+00)
 number of electron      22.0000000 magnetization 
 augmentation part        0.5026199 magnetization 

 Broyden mixing:
  rms(total) = 0.52813E+00    rms(broyden)= 0.52811E+00
  rms(prec ) = 0.63147E+00
  weight for this iteration     100.00

 eigenvalues of (default mixing * dielectric matrix)
  average eigenvalue GAMMA=   1.5907
  1.5907

 Free energy of the ion-electron system (eV)
  ---------------------------------------------------
  alpha Z        PSCENC =         0.62641250
  Ewald energy   TEWEN  =       967.12071517
  -Hartree energ DENC   =     -1444.20868723
  -exchange      EXHF   =         0.00000000
  -V(xc)+E(xc)   XCENC  =        69.55492709
  PAW double counting   =       220.25276510     -225.38969255
  entropy T*S    EENTRO =        -0.00000000
  eigenvalues    EBANDS =      -308.76314159
  atomic energy  EATOM  =       663.51739852
  Solvation  Ediel_sol  =         0.00000000
  ---------------------------------------------------
  free energy    TOTEN  =       -57.28930298 eV

  energy without entropy =      -57.28930298  energy(sigma->0) =      -57.28930298


--------------------------------------------------------------------------------------------------------




--------------------------------------- Iteration      1(   7)  ---------------------------------------


    POTLOK:  cpu time      0.3076: real time      0.3093
    SETDIJ:  cpu time      0.1900: real time      0.1908
     EDDAV:  cpu time      0.4114: real time      0.4136
       DOS:  cpu time      0.0001: real time      0.0001
    CHARGE:  cpu time      0.2028: real time      0.2036
    MIXING:  cpu time      0.0082: real time      0.0082
    --------------------------------------------
      LOOP:  cpu time      1.1201: real time      1.1256

 eigenvalue-minimisations  :    64
 total energy-change (2. order) : 0.1065562E+01  (-0.3561251E+00)
 number of electron      22.0000000 magnetization 
 augmentation part        0.4769114 magnetization 

 Broyden mixing:
  rms(total) = 0.22388E+00    rms(broyden)= 0.22383E+00
  rms(prec ) = 0.25874E+00
  weight for this iteration     100.00

 eigenvalues of (default mixing * dielectric matrix)
  average eigenvalue GAMMA=   1.9508
  1.8095  2.0921

 Free energy of the ion-electron system (eV)
  ---------------------------------------------------
  alpha Z        PSCENC =         0.62641250
  Ewald energy   TEWEN  =       967.12071517
  -Hartree energ DENC   =     -1479.74881217
  -exchange      EXHF   =         0.00000000
  -V(xc)+E(xc)   XCENC  =        71.50551779
  PAW double counting   =       271.39614480     -276.74065833
  entropy T*S    EENTRO =        -0.00000000
  eigenvalues    EBANDS =      -273.90045946
  atomic energy  EATOM  =       663.51739852
  Solvation  Ediel_sol  =         0.00000000
  ---------------------------------------------------
  free energy    TOTEN  =       -56.22374118 eV

  energy without entropy =      -56.22374118  energy(sigma->0) =      -56.22374118


--------------------------------------------------------------------------------------------------------




--------------------------------------- Iteration      1(   8)  ---------------------------------------


    POTLOK:  cpu time      0.3125: real time      0.3142
    SETDIJ:  cpu time      0.1895: real time      0.1904
     EDDAV:  cpu time      0.4491: real time      0.4515
       DOS:  cpu time      0.0001: real time      0.0001
    CHARGE:  cpu time      0.1999: real time      0.2007
    MIXING:  cpu time      0.0090: real time      0.0090
    --------------------------------------------
      LOOP:  cpu time      1.1601: real time      1.1659

 eigenvalue-minimisations  :    72
 total energy-change (2. order) : 0.1837288E+00  (-0.4075075E-01)
 number of electron      22.0000000 magnetization 
 augmentation part        0.4796125 magnetization 

 Broyden mixing:
  rms(total) = 0.47015E-01    rms(broyden)= 0.47010E-01
  rms(prec ) = 0.79748E-01
  weight for this iteration     100.00

 eigenvalues of (default mixing * dielectric matrix)
  average eigenvalue GAMMA=   1.6414
  2.3068  1.3088  1.3088

 Free energy of the ion-electron system (eV)
  ---------------------------------------------------
  alpha Z        PSCENC =         0.62641250
  Ewald energy   TEWEN  =       967.12071517
  -Hartree energ DENC   =     -1488.32733427
  -exchange      EXHF   =         0.00000000
  -V(xc)+E(xc)   XCENC  =        72.19895723
  PAW double counting   =       277.15406097     -282.36174891
  entropy T*S    EENTRO =        -0.00000000
  eigenvalues    EBANDS =      -265.96847362
  atomic energy  EATOM  =       663.51739852
  Solvation  Ediel_sol  =         0.00000000
  ---------------------------------------------------
  free energy    TOTEN  =       -56.04001242 eV

  energy without entropy =      -56.04001242  energy(sigma->0) =      -56.04001242


--------------------------------------------------------------------------------------------------------




--------------------------------------- Iteration      1(   9)  ---------------------------------------


    POTLOK:  cpu time      0.3126: real time      0.3143
    SETDIJ:  cpu time      0.1886: real time      0.1894
     EDDAV:  cpu time      0.4903: real time      0.4930
       DOS:  cpu time      0.0001: real time      0.0001
    CHARGE:  cpu time      0.2007: real time      0.2015
    MIXING:  cpu time      0.0098: real time      0.0098
    --------------------------------------------
      LOOP:  cpu time      1.2021: real time      1.2082

 eigenvalue-minimisations  :    80
 total energy-change (2. order) : 0.2663064E-01  (-0.1035904E-01)
 number of electron      22.0000000 magnetization 
 augmentation part        0.4756791 magnetization 

 Broyden mixing:
  rms(total) = 0.25747E-01    rms(broyden)= 0.25743E-01
  rms(prec ) = 0.47160E-01
  weight for this iteration     100.00

 eigenvalues of (default mixing * dielectric matrix)
  average eigenvalue GAMMA=   1.6707
  2.1794  2.1794  1.1620  1.1620

 Free energy of the ion-electron system (eV)
  ---------------------------------------------------
  alpha Z        PSCENC =         0.62641250
  Ewald energy   TEWEN  =       967.12071517
  -Hartree energ DENC   =     -1493.70356464
  -exchange      EXHF   =         0.00000000
  -V(xc)+E(xc)   XCENC  =        72.39615028
  PAW double counting   =       281.40552690     -286.64453756
  entropy T*S    EENTRO =        -0.00000000
  eigenvalues    EBANDS =      -260.73148294
  atomic energy  EATOM  =       663.51739852
  Solvation  Ediel_sol  =         0.00000000
  ---------------------------------------------------
  free energy    TOTEN  =       -56.01338178 eV

  energy without entropy =      -56.01338178  energy(sigma->0) =      -56.01338178


--------------------------------------------------------------------------------------------------------




--------------------------------------- Iteration      1(  10)  ---------------------------------------


    POTLOK:  cpu time      0.3147: real time      0.3163
    SETDIJ:  cpu time      0.1890: real time      0.1898
     EDDAV:  cpu time      0.4063: real time      0.4086
       DOS:  cpu time      0.0001: real time      0.0001
    CHARGE:  cpu time      0.2001: real time      0.2009
    MIXING:  cpu time      0.0084: real time      0.0085
    --------------------------------------------
      LOOP:  cpu time      1.1186: real time      1.1242

 eigenvalue-minimisations  :    64
 total energy-change (2. order) : 0.8050929E-02  (-0.1133147E-02)
 number of electron      22.0000000 magnetization 
 augmentation part        0.4751934 magnetization 

 Broyden mixing:
  rms(total) = 0.13117E-01    rms(broyden)= 0.13114E-01
  rms(prec ) = 0.28057E-01
  weight for this iteration     100.00

 eigenvalues of (default mixing * dielectric matrix)
  average eigenvalue GAMMA=   1.6446
  2.3664  2.3664  1.2868  1.2868  0.9166

 Free energy of the ion-electron system (eV)
  ---------------------------------------------------
  alpha Z        PSCENC =         0.62641250
  Ewald energy   TEWEN  =       967.12071517
  -Hartree energ DENC   =     -1497.28962553
  -exchange      EXHF   =         0.00000000
  -V(xc)+E(xc)   XCENC  =        72.45971265
  PAW double counting   =       278.74780332     -283.96995116
  entropy T*S    EENTRO =        -0.00000000
  eigenvalues    EBANDS =      -257.21779631
  atomic energy  EATOM  =       663.51739852
  Solvation  Ediel_sol  =         0.00000000
  ---------------------------------------------------
  free energy    TOTEN  =       -56.00533085 eV

  energy without entropy =      -56.00533085  energy(sigma->0) =      -56.00533085


--------------------------------------------------------------------------------------------------------




--------------------------------------- Iteration      1(  11)  ---------------------------------------


    POTLOK:  cpu time      0.3143: real time      0.3160
    SETDIJ:  cpu time      0.1944: real time      0.1952
     EDDAV:  cpu time      0.4119: real time      0.4142
       DOS:  cpu time      0.0001: real time      0.0001
    CHARGE:  cpu time      0.2001: real time      0.2009
    MIXING:  cpu time      0.0110: real time      0.0111
    --------------------------------------------
      LOOP:  cpu time      1.1317: real time      1.1374

 eigenvalue-minimisations  :    64
 total energy-change (2. order) : 0.5492624E-02  (-0.4466146E-03)
 number of electron      22.0000000 magnetization 
 augmentation part        0.4753397 magnetization 

 Broyden mixing:
  rms(total) = 0.11112E-01    rms(broyden)= 0.11112E-01
  rms(prec ) = 0.21637E-01
  weight for this iteration     100.00

 eigenvalues of (default mixing * dielectric matrix)
  average eigenvalue GAMMA=   1.7790
  3.2860  2.4570  1.6688  1.1748  1.1748  0.9124

 Free energy of the ion-electron system (eV)
  ---------------------------------------------------
  alpha Z        PSCENC =         0.62641250
  Ewald energy   TEWEN  =       967.12071517
  -Hartree energ DENC   =     -1499.20783653
  -exchange      EXHF   =         0.00000000
  -V(xc)+E(xc)   XCENC  =        72.51992748
  PAW double counting   =       278.33905009     -283.55279092
  entropy T*S    EENTRO =        -0.00000000
  eigenvalues    EBANDS =      -255.36271453
  atomic energy  EATOM  =       663.51739852
  Solvation  Ediel_sol  =         0.00000000
  ---------------------------------------------------
  free energy    TOTEN  =       -55.99983823 eV

  energy without entropy =      -55.99983823  energy(sigma->0) =      -55.99983823


--------------------------------------------------------------------------------------------------------




--------------------------------------- Iteration      1(  12)  ---------------------------------------


    POTLOK:  cpu time      0.3121: real time      0.3138
    SETDIJ:  cpu time      0.1926: real time      0.1935
     EDDAV:  cpu time      0.4074: real time      0.4097
       DOS:  cpu time      0.0001: real time      0.0001
    CHARGE:  cpu time      0.2014: real time      0.2022
    MIXING:  cpu time      0.0103: real time      0.0103
    --------------------------------------------
      LOOP:  cpu time      1.1240: real time      1.1296

 eigenvalue-minimisations  :    64
 total energy-change (2. order) : 0.3821981E-03  (-0.9550224E-03)
 number of electron      22.0000000 magnetization 
 augmentation part        0.4741470 magnetization 

 Broyden mixing:
  rms(total) = 0.63662E-02    rms(broyden)= 0.63650E-02
  rms(prec ) = 0.11882E-01
  weight for this iteration     100.00

 eigenvalues of (default mixing * dielectric matrix)
  average eigenvalue GAMMA=   1.8387
  3.9838  2.3405  1.8676  1.3538  1.3538  0.9857  0.9857

 Free energy of the ion-electron system (eV)
  ---------------------------------------------------
  alpha Z        PSCENC =         0.62641250
  Ewald energy   TEWEN  =       967.12071517
  -Hartree energ DENC   =     -1502.63791446
  -exchange      EXHF   =         0.00000000
  -V(xc)+E(xc)   XCENC  =        72.59455340
  PAW double counting   =       278.62992781     -283.85305488
  entropy T*S    EENTRO =        -0.00000000
  eigenvalues    EBANDS =      -251.99749409
  atomic energy  EATOM  =       663.51739852
  Solvation  Ediel_sol  =         0.00000000
  ---------------------------------------------------
  free energy    TOTEN  =       -55.99945603 eV

  energy without entropy =      -55.99945603  energy(sigma->0) =      -55.99945603


--------------------------------------------------------------------------------------------------------




--------------------------------------- Iteration      1(  13)  ---------------------------------------


    POTLOK:  cpu time      0.3090: real time      0.3106
    SETDIJ:  cpu time      0.1913: real time      0.1921
     EDDAV:  cpu time      0.3269: real time      0.3288
       DOS:  cpu time      0.0001: real time      0.0001
    CHARGE:  cpu time      0.1960: real time      0.1968
    MIXING:  cpu time      0.0142: real time      0.0142
    --------------------------------------------
      LOOP:  cpu time      1.0375: real time      1.0427

 eigenvalue-minimisations  :    48
 total energy-change (2. order) :-0.7510445E-02  (-0.1478345E-03)
 number of electron      22.0000000 magnetization 
 augmentation part        0.4742326 magnetization 

 Broyden mixing:
  rms(total) = 0.29316E-02    rms(broyden)= 0.29315E-02
  rms(prec ) = 0.67921E-02
  weight for this iteration     100.00

 eigenvalues of (default mixing * dielectric matrix)
  average eigenvalue GAMMA=   1.9674
  4.9312  2.6831  2.2462  1.5672  1.2180  1.0093  1.0420  1.0420

 Free energy of the ion-electron system (eV)
  ---------------------------------------------------
  alpha Z        PSCENC =         0.62641250
  Ewald energy   TEWEN  =       967.12071517
  -Hartree energ DENC   =     -1503.00082989
  -exchange      EXHF   =         0.00000000
  -V(xc)+E(xc)   XCENC  =        72.58627124
  PAW double counting   =       278.43056071     -283.65128035
  entropy T*S    EENTRO =        -0.00000000
  eigenvalues    EBANDS =      -251.63621438
  atomic energy  EATOM  =       663.51739852
  Solvation  Ediel_sol  =         0.00000000
  ---------------------------------------------------
  free energy    TOTEN  =       -56.00696647 eV

  energy without entropy =      -56.00696647  energy(sigma->0) =      -56.00696647


--------------------------------------------------------------------------------------------------------




--------------------------------------- Iteration      1(  14)  ---------------------------------------


    POTLOK:  cpu time      0.3107: real time      0.3124
    SETDIJ:  cpu time      0.1924: real time      0.1932
     EDDAV:  cpu time      0.4095: real time      0.4118
       DOS:  cpu time      0.0001: real time      0.0001
    CHARGE:  cpu time      0.1991: real time      0.1999
    MIXING:  cpu time      0.0124: real time      0.0125
    --------------------------------------------
      LOOP:  cpu time      1.1241: real time      1.1298

 eigenvalue-minimisations  :    64
 total energy-change (2. order) :-0.6313097E-02  (-0.9683184E-04)
 number of electron      22.0000000 magnetization 
 augmentation part        0.4743258 magnetization 

 Broyden mixing:
  rms(total) = 0.21808E-02    rms(broyden)= 0.21806E-02
  rms(prec ) = 0.41548E-02
  weight for this iteration     100.00

 eigenvalues of (default mixing * dielectric matrix)
  average eigenvalue GAMMA=   2.1574
  6.0126  3.3515  2.2604  1.7309  1.7309  1.3064  0.9833  1.0205  1.0205

 Free energy of the ion-electron system (eV)
  ---------------------------------------------------
  alpha Z        PSCENC =         0.62641250
  Ewald energy   TEWEN  =       967.12071517
  -Hartree energ DENC   =     -1503.23224601
  -exchange      EXHF   =         0.00000000
  -V(xc)+E(xc)   XCENC  =        72.57289027
  PAW double counting   =       278.25863765     -283.47778784
  entropy T*S    EENTRO =        -0.00000000
  eigenvalues    EBANDS =      -251.39929983
  atomic energy  EATOM  =       663.51739852
  Solvation  Ediel_sol  =         0.00000000
  ---------------------------------------------------
  free energy    TOTEN  =       -56.01327957 eV

  energy without entropy =      -56.01327957  energy(sigma->0) =      -56.01327957


--------------------------------------------------------------------------------------------------------




--------------------------------------- Iteration      1(  15)  ---------------------------------------


    POTLOK:  cpu time      0.3037: real time      0.3053
    SETDIJ:  cpu time      0.1917: real time      0.1926
     EDDAV:  cpu time      0.4098: real time      0.4121
       DOS:  cpu time      0.0001: real time      0.0001
    CHARGE:  cpu time      0.1987: real time      0.1994
    MIXING:  cpu time      0.0107: real time      0.0107
    --------------------------------------------
      LOOP:  cpu time      1.1146: real time      1.1201

 eigenvalue-minimisations  :    64
 total energy-change (2. order) :-0.4574170E-02  (-0.7894279E-04)
 number of electron      22.0000000 magnetization 
 augmentation part        0.4742501 magnetization 

 Broyden mixing:
  rms(total) = 0.14875E-02    rms(broyden)= 0.14874E-02
  rms(prec ) = 0.22830E-02
  weight for this iteration     100.00

 eigenvalues of (default mixing * dielectric matrix)
  average eigenvalue GAMMA=   2.2060
  6.7156  3.8935  2.2983  2.2983  1.3326  1.3326  1.0141  1.0141  1.0806  1.0806

 Free energy of the ion-electron system (eV)
  ---------------------------------------------------
  alpha Z        PSCENC =         0.62641250
  Ewald energy   TEWEN  =       967.12071517
  -Hartree energ DENC   =     -1503.42940920
  -exchange      EXHF   =         0.00000000
  -V(xc)+E(xc)   XCENC  =        72.56673322
  PAW double counting   =       278.37286056     -283.59250354
  entropy T*S    EENTRO =        -0.00000000
  eigenvalues    EBANDS =      -251.20006097
  atomic energy  EATOM  =       663.51739852
  Solvation  Ediel_sol  =         0.00000000
  ---------------------------------------------------
  free energy    TOTEN  =       -56.01785374 eV

  energy without entropy =      -56.01785374  energy(sigma->0) =      -56.01785374


--------------------------------------------------------------------------------------------------------




--------------------------------------- Iteration      1(  16)  ---------------------------------------


    POTLOK:  cpu time      0.3030: real time      0.3046
    SETDIJ:  cpu time      0.1924: real time      0.1933
     EDDAV:  cpu time      0.4108: real time      0.4130
       DOS:  cpu time      0.0001: real time      0.0001
    CHARGE:  cpu time      0.1987: real time      0.1995
    MIXING:  cpu time      0.0131: real time      0.0131
    --------------------------------------------
      LOOP:  cpu time      1.1181: real time      1.1237

 eigenvalue-minimisations  :    64
 total energy-change (2. order) :-0.1301173E-02  (-0.1604497E-04)
 number of electron      22.0000000 magnetization 
 augmentation part        0.4742655 magnetization 

 Broyden mixing:
  rms(total) = 0.77683E-03    rms(broyden)= 0.77673E-03
  rms(prec ) = 0.12494E-02
  weight for this iteration     100.00

 eigenvalues of (default mixing * dielectric matrix)
  average eigenvalue GAMMA=   2.2748
  7.5089  4.3098  2.4144  2.4144  1.4520  1.4520  1.4416  1.0423  1.0423  0.9917
  0.9538

 Free energy of the ion-electron system (eV)
  ---------------------------------------------------
  alpha Z        PSCENC =         0.62641250
  Ewald energy   TEWEN  =       967.12071517
  -Hartree energ DENC   =     -1503.38901180
  -exchange      EXHF   =         0.00000000
  -V(xc)+E(xc)   XCENC  =        72.56300895
  PAW double counting   =       278.33073821     -283.54939503
  entropy T*S    EENTRO =        -0.00000000
  eigenvalues    EBANDS =      -251.23902143
  atomic energy  EATOM  =       663.51739852
  Solvation  Ediel_sol  =         0.00000000
  ---------------------------------------------------
  free energy    TOTEN  =       -56.01915491 eV

  energy without entropy =      -56.01915491  energy(sigma->0) =      -56.01915491


--------------------------------------------------------------------------------------------------------




--------------------------------------- Iteration      1(  17)  ---------------------------------------


    POTLOK:  cpu time      0.2994: real time      0.3011
    SETDIJ:  cpu time      0.1914: real time      0.1923
     EDDAV:  cpu time      0.4484: real time      0.4509
       DOS:  cpu time      0.0001: real time      0.0001
    CHARGE:  cpu time      0.1995: real time      0.2003
    MIXING:  cpu time      0.0139: real time      0.0140
    --------------------------------------------
      LOOP:  cpu time      1.1529: real time      1.1587

 eigenvalue-minimisations  :    72
 total energy-change (2. order) :-0.6648759E-03  (-0.6896762E-05)
 number of electron      22.0000000 magnetization 
 augmentation part        0.4742056 magnetization 

 Broyden mixing:
  rms(total) = 0.62383E-03    rms(broyden)= 0.62372E-03
  rms(prec ) = 0.88053E-03
  weight for this iteration     100.00

 eigenvalues of (default mixing * dielectric matrix)
  average eigenvalue GAMMA=   2.2929
  8.0463  4.7136  2.4826  2.4826  1.9357  1.5004  0.9688  1.0548  1.0755  1.0755
  1.0896  1.0896

 Free energy of the ion-electron system (eV)
  ---------------------------------------------------
  alpha Z        PSCENC =         0.62641250
  Ewald energy   TEWEN  =       967.12071517
  -Hartree energ DENC   =     -1503.45610812
  -exchange      EXHF   =         0.00000000
  -V(xc)+E(xc)   XCENC  =        72.56402374
  PAW double counting   =       278.35246707     -283.57170135
  entropy T*S    EENTRO =        -0.00000000
  eigenvalues    EBANDS =      -251.17302732
  atomic energy  EATOM  =       663.51739852
  Solvation  Ediel_sol  =         0.00000000
  ---------------------------------------------------
  free energy    TOTEN  =       -56.01981979 eV

  energy without entropy =      -56.01981979  energy(sigma->0) =      -56.01981979


--------------------------------------------------------------------------------------------------------




--------------------------------------- Iteration      1(  18)  ---------------------------------------


    POTLOK:  cpu time      0.2992: real time      0.3008
    SETDIJ:  cpu time      0.1908: real time      0.1916
     EDDAV:  cpu time      0.4100: real time      0.4123
       DOS:  cpu time      0.0001: real time      0.0001
    CHARGE:  cpu time      0.1988: real time      0.1996
    MIXING:  cpu time      0.0134: real time      0.0135
    --------------------------------------------
      LOOP:  cpu time      1.1123: real time      1.1179

 eigenvalue-minimisations  :    64
 total energy-change (2. order) :-0.2469610E-03  (-0.2031012E-05)
 number of electron      22.0000000 magnetization 
 augmentation part        0.4742048 magnetization 

 Broyden mixing:
  rms(total) = 0.19658E-03    rms(broyden)= 0.19647E-03
  rms(prec ) = 0.37112E-03
  weight for this iteration     100.00

 eigenvalues of (default mixing * dielectric matrix)
  average eigenvalue GAMMA=   2.3148
  8.4584  5.0338  2.9362  2.3711  1.8579  1.8579  1.1957  1.1957  1.1293  1.0530
  1.0530  0.9750  0.9750

 Free energy of the ion-electron system (eV)
  ---------------------------------------------------
  alpha Z        PSCENC =         0.62641250
  Ewald energy   TEWEN  =       967.12071517
  -Hartree energ DENC   =     -1503.43978622
  -exchange      EXHF   =         0.00000000
  -V(xc)+E(xc)   XCENC  =        72.56333870
  PAW double counting   =       278.34997115     -283.56934786
  entropy T*S    EENTRO =        -0.00000000
  eigenvalues    EBANDS =      -251.18876871
  atomic energy  EATOM  =       663.51739852
  Solvation  Ediel_sol  =         0.00000000
  ---------------------------------------------------
  free energy    TOTEN  =       -56.02006675 eV

  energy without entropy =      -56.02006675  energy(sigma->0) =      -56.02006675


--------------------------------------------------------------------------------------------------------




--------------------------------------- Iteration      1(  19)  ---------------------------------------


    POTLOK:  cpu time      0.2982: real time      0.2998
    SETDIJ:  cpu time      0.1905: real time      0.1913
     EDDAV:  cpu time      0.3765: real time      0.3786
       DOS:  cpu time      0.0001: real time      0.0001
    CHARGE:  cpu time      0.1994: real time      0.2003
    MIXING:  cpu time      0.0109: real time      0.0109
    --------------------------------------------
      LOOP:  cpu time      1.0756: real time      1.0810

 eigenvalue-minimisations  :    56
 total energy-change (2. order) :-0.1243503E-03  (-0.5213722E-06)
 number of electron      22.0000000 magnetization 
 augmentation part        0.4742046 magnetization 

 Broyden mixing:
  rms(total) = 0.14282E-03    rms(broyden)= 0.14276E-03
  rms(prec ) = 0.24231E-03
  weight for this iteration     100.00

 eigenvalues of (default mixing * dielectric matrix)
  average eigenvalue GAMMA=   2.3141
  8.6329  5.3157  3.2545  2.4497  2.2349  1.5574  1.5574  1.1129  1.1129  1.0982
  1.0982  0.9737  0.9995  0.9995

 Free energy of the ion-electron system (eV)
  ---------------------------------------------------
  alpha Z        PSCENC =         0.62641250
  Ewald energy   TEWEN  =       967.12071517
  -Hartree energ DENC   =     -1503.44918026
  -exchange      EXHF   =         0.00000000
  -V(xc)+E(xc)   XCENC  =        72.56336627
  PAW double counting   =       278.34182349     -283.56112733
  entropy T*S    EENTRO =        -0.00000000
  eigenvalues    EBANDS =      -251.17959946
  atomic energy  EATOM  =       663.51739852
  Solvation  Ediel_sol  =         0.00000000
  ---------------------------------------------------
  free energy    TOTEN  =       -56.02019110 eV

  energy without entropy =      -56.02019110  energy(sigma->0) =      -56.02019110


--------------------------------------------------------------------------------------------------------




--------------------------------------- Iteration      1(  20)  ---------------------------------------


    POTLOK:  cpu time      0.3013: real time      0.3030
    SETDIJ:  cpu time      0.1919: real time      0.1928
     EDDAV:  cpu time      0.3741: real time      0.3761
       DOS:  cpu time      0.0001: real time      0.0001
    CHARGE:  cpu time      0.2002: real time      0.2010
    MIXING:  cpu time      0.0136: real time      0.0137
    --------------------------------------------
      LOOP:  cpu time      1.0813: real time      1.0868

 eigenvalue-minimisations  :    56
 total energy-change (2. order) :-0.6193233E-04  (-0.1234241E-06)
 number of electron      22.0000000 magnetization 
 augmentation part        0.4742021 magnetization 

 Broyden mixing:
  rms(total) = 0.10034E-03    rms(broyden)= 0.10029E-03
  rms(prec ) = 0.15383E-03
  weight for this iteration     100.00

 eigenvalues of (default mixing * dielectric matrix)
  average eigenvalue GAMMA=   2.3872
  8.8642  5.7279  3.8635  2.6859  2.3067  1.8679  1.8679  1.1883  1.1883  1.1900
  1.0351  1.0351  1.0158  0.9855  0.9855

 Free energy of the ion-electron system (eV)
  ---------------------------------------------------
  alpha Z        PSCENC =         0.62641250
  Ewald energy   TEWEN  =       967.12071517
  -Hartree energ DENC   =     -1503.45787974
  -exchange      EXHF   =         0.00000000
  -V(xc)+E(xc)   XCENC  =        72.56343071
  PAW double counting   =       278.34367843     -283.56303288
  entropy T*S    EENTRO =        -0.00000000
  eigenvalues    EBANDS =      -251.17097575
  atomic energy  EATOM  =       663.51739852
  Solvation  Ediel_sol  =         0.00000000
  ---------------------------------------------------
  free energy    TOTEN  =       -56.02025303 eV

  energy without entropy =      -56.02025303  energy(sigma->0) =      -56.02025303


--------------------------------------------------------------------------------------------------------




--------------------------------------- Iteration      1(  21)  ---------------------------------------


    POTLOK:  cpu time      0.3064: real time      0.3081
    SETDIJ:  cpu time      0.1928: real time      0.1936
     EDDAV:  cpu time      0.3703: real time      0.3724
       DOS:  cpu time      0.0001: real time      0.0001
    CHARGE:  cpu time      0.1988: real time      0.1996
    MIXING:  cpu time      0.0142: real time      0.0142
    --------------------------------------------
      LOOP:  cpu time      1.0826: real time      1.0881

 eigenvalue-minimisations  :    56
 total energy-change (2. order) :-0.3079604E-04  (-0.7207599E-07)
 number of electron      22.0000000 magnetization 
 augmentation part        0.4742045 magnetization 

 Broyden mixing:
  rms(total) = 0.54722E-04    rms(broyden)= 0.54634E-04
  rms(prec ) = 0.78587E-04
  weight for this iteration     100.00

 eigenvalues of (default mixing * dielectric matrix)
  average eigenvalue GAMMA=   2.3476
  8.8551  5.8513  4.0402  2.5735  2.5735  1.8984  1.6153  1.2746  1.2746  1.3384
  1.1218  1.1218  1.0771  1.0203  1.0203  0.9047

 Free energy of the ion-electron system (eV)
  ---------------------------------------------------
  alpha Z        PSCENC =         0.62641250
  Ewald energy   TEWEN  =       967.12071517
  -Hartree energ DENC   =     -1503.45830756
  -exchange      EXHF   =         0.00000000
  -V(xc)+E(xc)   XCENC  =        72.56327223
  PAW double counting   =       278.34309847     -283.56239355
  entropy T*S    EENTRO =        -0.00000000
  eigenvalues    EBANDS =      -251.17047960
  atomic energy  EATOM  =       663.51739852
  Solvation  Ediel_sol  =         0.00000000
  ---------------------------------------------------
  free energy    TOTEN  =       -56.02028383 eV

  energy without entropy =      -56.02028383  energy(sigma->0) =      -56.02028383


--------------------------------------------------------------------------------------------------------




--------------------------------------- Iteration      1(  22)  ---------------------------------------


    POTLOK:  cpu time      0.3110: real time      0.3127
    SETDIJ:  cpu time      0.1923: real time      0.1931
     EDDAV:  cpu time      0.3750: real time      0.3771
       DOS:  cpu time      0.0001: real time      0.0001
    CHARGE:  cpu time      0.1984: real time      0.1992
    MIXING:  cpu time      0.0141: real time      0.0142
    --------------------------------------------
      LOOP:  cpu time      1.0909: real time      1.0964

 eigenvalue-minimisations  :    56
 total energy-change (2. order) :-0.7636411E-05  (-0.1788618E-07)
 number of electron      22.0000000 magnetization 
 augmentation part        0.4742059 magnetization 

 Broyden mixing:
  rms(total) = 0.35004E-04    rms(broyden)= 0.34876E-04
  rms(prec ) = 0.48464E-04
  weight for this iteration     100.00

 eigenvalues of (default mixing * dielectric matrix)
  average eigenvalue GAMMA=   2.3916
  9.0200  6.1864  4.5573  3.0399  2.4775  2.0488  2.0488  1.7008  1.2026  1.2026
  1.2381  1.0415  1.0415  1.0582  0.9646  0.9646  0.8638

 Free energy of the ion-electron system (eV)
  ---------------------------------------------------
  alpha Z        PSCENC =         0.62641250
  Ewald energy   TEWEN  =       967.12071517
  -Hartree energ DENC   =     -1503.45937016
  -exchange      EXHF   =         0.00000000
  -V(xc)+E(xc)   XCENC  =        72.56332094
  PAW double counting   =       278.34273700     -283.56200911
  entropy T*S    EENTRO =        -0.00000000
  eigenvalues    EBANDS =      -251.16949632
  atomic energy  EATOM  =       663.51739852
  Solvation  Ediel_sol  =         0.00000000
  ---------------------------------------------------
  free energy    TOTEN  =       -56.02029147 eV

  energy without entropy =      -56.02029147  energy(sigma->0) =      -56.02029147


--------------------------------------------------------------------------------------------------------




--------------------------------------- Iteration      1(  23)  ---------------------------------------


    POTLOK:  cpu time      0.3129: real time      0.3145
    SETDIJ:  cpu time      0.1909: real time      0.1917
     EDDAV:  cpu time      0.3301: real time      0.3320
       DOS:  cpu time      0.0001: real time      0.0001
    CHARGE:  cpu time      0.2000: real time      0.2008
    MIXING:  cpu time      0.0121: real time      0.0121
    --------------------------------------------
      LOOP:  cpu time      1.0460: real time      1.0512

 eigenvalue-minimisations  :    48
 total energy-change (2. order) :-0.3695591E-05  (-0.5256929E-08)
 number of electron      22.0000000 magnetization 
 augmentation part        0.4742062 magnetization 

 Broyden mixing:
  rms(total) = 0.22460E-04    rms(broyden)= 0.22268E-04
  rms(prec ) = 0.30405E-04
  weight for this iteration     100.00

 eigenvalues of (default mixing * dielectric matrix)
  average eigenvalue GAMMA=   2.3833
  9.0913  6.4928  4.8309  3.2544  2.5414  2.3654  1.7098  1.7098  1.2658  1.2658
  1.1025  1.1025  1.1459  1.1459  1.0031  1.0031  0.9540  0.9155

 Free energy of the ion-electron system (eV)
  ---------------------------------------------------
  alpha Z        PSCENC =         0.62641250
  Ewald energy   TEWEN  =       967.12071517
  -Hartree energ DENC   =     -1503.45877037
  -exchange      EXHF   =         0.00000000
  -V(xc)+E(xc)   XCENC  =        72.56326252
  PAW double counting   =       278.34270790     -283.56198810
  entropy T*S    EENTRO =        -0.00000000
  eigenvalues    EBANDS =      -251.17003329
  atomic energy  EATOM  =       663.51739852
  Solvation  Ediel_sol  =         0.00000000
  ---------------------------------------------------
  free energy    TOTEN  =       -56.02029516 eV

  energy without entropy =      -56.02029516  energy(sigma->0) =      -56.02029516


--------------------------------------------------------------------------------------------------------




--------------------------------------- Iteration      1(  24)  ---------------------------------------


    POTLOK:  cpu time      0.3087: real time      0.3103
    SETDIJ:  cpu time      0.1908: real time      0.1916
     EDDAV:  cpu time      0.3310: real time      0.3328
       DOS:  cpu time      0.0001: real time      0.0001
    CHARGE:  cpu time      0.1990: real time      0.1998
    MIXING:  cpu time      0.0119: real time      0.0119
    --------------------------------------------
      LOOP:  cpu time      1.0414: real time      1.0466

 eigenvalue-minimisations  :    48
 total energy-change (2. order) :-0.1241421E-05  (-0.3321366E-08)
 number of electron      22.0000000 magnetization 
 augmentation part        0.4742054 magnetization 

 Broyden mixing:
  rms(total) = 0.15938E-04    rms(broyden)= 0.15664E-04
  rms(prec ) = 0.20856E-04
  weight for this iteration     100.00

 eigenvalues of (default mixing * dielectric matrix)
  average eigenvalue GAMMA=   2.4078
  9.1347  6.7358  4.9924  3.5040  2.5338  2.3057  2.3057  2.0383  1.3907  1.3907
  1.2128  1.2128  1.0738  1.0738  0.9748  0.9748  1.0264  0.8992  0.9680

 Free energy of the ion-electron system (eV)
  ---------------------------------------------------
  alpha Z        PSCENC =         0.62641250
  Ewald energy   TEWEN  =       967.12071517
  -Hartree energ DENC   =     -1503.45952506
  -exchange      EXHF   =         0.00000000
  -V(xc)+E(xc)   XCENC  =        72.56327320
  PAW double counting   =       278.34321516     -283.56250447
  entropy T*S    EENTRO =        -0.00000000
  eigenvalues    EBANDS =      -251.16928142
  atomic energy  EATOM  =       663.51739852
  Solvation  Ediel_sol  =         0.00000000
  ---------------------------------------------------
  free energy    TOTEN  =       -56.02029640 eV

  energy without entropy =      -56.02029640  energy(sigma->0) =      -56.02029640


--------------------------------------------------------------------------------------------------------




--------------------------------------- Iteration      1(  25)  ---------------------------------------


    POTLOK:  cpu time      0.3152: real time      0.3169
    SETDIJ:  cpu time      0.1920: real time      0.1928
     EDDAV:  cpu time      0.2897: real time      0.2913
       DOS:  cpu time      0.0001: real time      0.0001
    CHARGE:  cpu time      0.1989: real time      0.1997
    MIXING:  cpu time      0.0120: real time      0.0121
    --------------------------------------------
      LOOP:  cpu time      1.0080: real time      1.0130

 eigenvalue-minimisations  :    40
 total energy-change (2. order) :-0.1110134E-05  (-0.2246358E-08)
 number of electron      22.0000000 magnetization 
 augmentation part        0.4742050 magnetization 

 Broyden mixing:
  rms(total) = 0.48207E-05    rms(broyden)= 0.38304E-05
  rms(prec ) = 0.71164E-05
  weight for this iteration     100.00
  WARNING: grid for Broyden might be to small

 eigenvalues of (default mixing * dielectric matrix)
  average eigenvalue GAMMA=   2.3973
  9.1973  6.9112  5.2005  3.7888  2.8632  2.5864  2.1890  1.9407  1.5122  1.2081
  1.2081  1.0879  1.0879  1.1716  1.1716  0.9829  0.9829  0.9726  0.9726  0.9108

 Free energy of the ion-electron system (eV)
  ---------------------------------------------------
  alpha Z        PSCENC =         0.62641250
  Ewald energy   TEWEN  =       967.12071517
  -Hartree energ DENC   =     -1503.45995102
  -exchange      EXHF   =         0.00000000
  -V(xc)+E(xc)   XCENC  =        72.56328427
  PAW double counting   =       278.34323275     -283.56252852
  entropy T*S    EENTRO =        -0.00000000
  eigenvalues    EBANDS =      -251.16886118
  atomic energy  EATOM  =       663.51739852
  Solvation  Ediel_sol  =         0.00000000
  ---------------------------------------------------
  free energy    TOTEN  =       -56.02029751 eV

  energy without entropy =      -56.02029751  energy(sigma->0) =      -56.02029751


--------------------------------------------------------------------------------------------------------




--------------------------------------- Iteration      1(  26)  ---------------------------------------


    POTLOK:  cpu time      0.3172: real time      0.3189
    SETDIJ:  cpu time      0.1910: real time      0.1918
     EDDAV:  cpu time      0.3287: real time      0.3305
       DOS:  cpu time      0.0001: real time      0.0001
    --------------------------------------------
      LOOP:  cpu time      0.8370: real time      0.8413

 eigenvalue-minimisations  :    48
 total energy-change (2. order) :-0.2690196E-06  (-0.7117862E-09)
 number of electron      22.0000000 magnetization 
 augmentation part        0.4742050 magnetization 

 Free energy of the ion-electron system (eV)
  ---------------------------------------------------
  alpha Z        PSCENC =         0.62641250
  Ewald energy   TEWEN  =       967.12071517
  -Hartree energ DENC   =     -1503.46020740
  -exchange      EXHF   =         0.00000000
  -V(xc)+E(xc)   XCENC  =        72.56328800
  PAW double counting   =       278.34323080     -283.56252821
  entropy T*S    EENTRO =        -0.00000000
  eigenvalues    EBANDS =      -251.16860715
  atomic energy  EATOM  =       663.51739852
  Solvation  Ediel_sol  =         0.00000000
  ---------------------------------------------------
  free energy    TOTEN  =       -56.02029778 eV

  energy without entropy =      -56.02029778  energy(sigma->0) =      -56.02029778


--------------------------------------------------------------------------------------------------------




 average (electrostatic) potential at core
  the test charge radii are     0.6991  0.5201
  (the norm of the test charge is              1.0000)
       1 -58.7115       2 -58.7216       3 -58.6324       4 -58.5605       5 -41.2517
       6 -41.2651       7 -41.5378       8 -42.0987       9 -41.5507      10 -41.5787
 
 
 
 E-fermi :  -5.6986     XC(G=0):  -0.4275     alpha+bet : -0.1681

 Fermi energy:        -5.6986159775

 k-point     1 :       0.0000    0.0000    0.0000
  band No.  band energies     occupation 
      1     -20.8183      2.00000
      2     -16.1322      2.00000
      3     -15.1524      2.00000
      4     -12.2862      2.00000
      5     -11.7335      2.00000
      6     -11.0976      2.00000
      7      -9.0052      2.00000
      8      -8.3147      2.00000
      9      -8.1383      2.00000
     10      -6.9637      2.00000
     11      -5.9421      2.00000
     12      -0.8296      0.00000
     13      -0.3974      0.00000
     14       0.0456      0.00000
     15       0.1926      0.00000
     16       0.2139      0.00000
     17       0.3589      0.00000
     18       0.6055      0.00000
     19       0.6157      0.00000
     20       0.8298      0.00000
     21       0.9106      0.00000
     22       0.9720      0.00000
     23       0.9932      0.00000
     24       1.0586      0.00000


--------------------------------------------------------------------------------------------------------


 soft charge-density along one line, spin component           1
         0         1         2         3         4         5         6         7         8         9
 total charge-density along one line
 
 pseudopotential strength for first ion, spin component:           1
 10.252   0.020  -0.002   0.000  -0.001   0.001  -0.002   0.001
  0.020  -0.001   0.000   0.000   0.000   0.000  -0.000   0.000
 -0.002   0.000  -4.372   0.004  -0.001  -0.013   0.001  -0.000
  0.000   0.000   0.004  -4.373   0.001   0.001  -0.013   0.000
 -0.001   0.000  -0.001   0.001  -4.372  -0.000   0.000  -0.013
  0.001   0.000  -0.013   0.001  -0.000  -0.773   0.000  -0.000
 -0.002  -0.000   0.001  -0.013   0.000   0.000  -0.773   0.000
  0.001   0.000  -0.000   0.000  -0.013  -0.000   0.000  -0.773
 total augmentation occupancy for first ion, spin component:           1
  1.418  -0.999   0.008   0.024  -0.002  -0.000   0.013  -0.003
 -0.999   0.853   0.009  -0.055   0.013   0.022  -0.034   0.011
  0.008   0.009   1.061  -0.029  -0.005   0.168  -0.007   0.002
  0.024  -0.055  -0.029   1.105  -0.009  -0.007   0.172  -0.002
 -0.002   0.013  -0.005  -0.009   1.093   0.002  -0.002   0.169
 -0.000   0.022   0.168  -0.007   0.002   0.031  -0.003   0.002
  0.013  -0.034  -0.007   0.172  -0.002  -0.003   0.031  -0.001
 -0.003   0.011   0.002  -0.002   0.169   0.002  -0.001   0.028


------------------------ aborting loop because EDIFF is reached ----------------------------------------


    CHARGE:  cpu time      0.1978: real time      0.1986
    FORLOC:  cpu time      0.0310: real time      0.0311
    FORNL :  cpu time      1.0726: real time      1.0776
    STRESS:  cpu time      3.4093: real time      3.4255
    FORHAR:  cpu time      0.1116: real time      0.1122
    MIXING:  cpu time      0.0126: real time      0.0127
    OFIELD:  cpu time      0.0001: real time      0.0001

  FORCE on cell =-STRESS in cart. coord.  units (eV):
  Direction    XX          YY          ZZ          XY          YZ          ZX
  --------------------------------------------------------------------------------------
  Alpha Z     0.62641     0.62641     0.62641
  Ewald      22.33077   459.78208   485.00753   117.74880    20.37337   -64.76010
  Hartree   316.82192   599.13302   587.50482    74.17844    16.51175   -35.58535
  E(xc)     -76.54162   -75.74272   -75.62965     0.22148     0.03610    -0.13657
  Local    -545.15385 -1259.67753 -1266.86898  -190.36743   -37.85627    98.20303
  n-local   -29.05898   -28.39393   -29.56066     0.19257     0.30311     0.20737
  augment    -0.55746    -0.54533    -0.57330     0.00271     0.00865     0.00507
  Kinetic   307.90398   298.12037   297.87581    -2.74568    -1.54858     1.13502
  Fock        0.00000     0.00000     0.00000     0.00000     0.00000     0.00000
  -------------------------------------------------------------------------------------
  Total      -3.62883    -6.69762    -1.61802    -0.76911    -2.17187    -0.93151
  in kB      -1.72267    -3.17949    -0.76811    -0.36511    -1.03103    -0.44221
  external pressure =       -1.89 kB  Pullay stress =        0.00 kB


 VOLUME and BASIS-vectors are now :
 -----------------------------------------------------------------------------
  energy-cutoff  :      520.00
  volume of cell :     3375.00
      direct lattice vectors                 reciprocal lattice vectors
    15.000000000  0.000000000  0.000000000     0.066666667  0.000000000  0.000000000
     0.000000000 15.000000000  0.000000000     0.000000000  0.066666667  0.000000000
     0.000000000  0.000000000 15.000000000     0.000000000  0.000000000  0.066666667

  length of vectors
    15.000000000 15.000000000 15.000000000     0.066666667  0.066666667  0.066666667


 FORCES acting on ions
    electron-ion (+dipol)            ewald-force                    non-local-force                 convergence-correction
 -----------------------------------------------------------------------------------------------
   -.431E+02 -.104E+03 0.112E+03   0.440E+02 0.106E+03 -.115E+03   -.286E+00 -.898E+00 0.167E+00   -.352E-04 -.115E-03 0.399E-04
   0.554E+01 0.106E+03 0.147E+03   -.568E+01 -.108E+03 -.148E+03   -.190E+00 0.541E+00 0.193E+01   -.556E-05 0.527E-04 0.125E-03
   0.516E+02 0.119E+03 -.114E+03   -.516E+02 -.119E+03 0.114E+03   0.946E+00 0.203E+01 -.123E+01   0.294E-04 0.643E-04 -.889E-04
   -.735E+01 -.866E+02 -.127E+03   0.725E+01 0.869E+02 0.128E+03   -.851E+00 -.303E+01 -.394E-02   -.255E-04 -.112E-03 -.588E-04
   -.611E+02 -.254E+02 0.245E+02   0.641E+02 0.263E+02 -.256E+02   -.446E+01 -.121E+01 0.984E+00   -.730E-05 -.833E-05 0.352E-05
   0.354E+02 -.484E+02 0.377E+02   -.373E+02 0.505E+02 -.394E+02   0.312E+01 -.297E+01 0.202E+01   0.232E-05 -.116E-04 0.568E-05
   0.349E+01 0.455E+02 0.486E+02   -.358E+01 -.470E+02 -.505E+02   0.266E+00 0.326E+01 0.324E+01   0.158E-05 0.188E-04 0.198E-04
   0.194E+02 0.527E+02 -.427E+02   -.209E+02 -.569E+02 0.461E+02   0.153E+01 0.424E+01 -.352E+01   0.888E-05 0.256E-04 -.198E-04
   -.508E+02 -.150E+02 -.490E+02   0.546E+02 0.155E+02 0.518E+02   -.426E+01 -.389E+00 -.313E+01   -.428E-05 -.885E-05 -.524E-05
   0.470E+02 -.423E+02 -.357E+02   -.509E+02 0.450E+02 0.376E+02   0.421E+01 -.278E+01 -.199E+01   0.286E-06 -.110E-04 -.465E-05
 -----------------------------------------------------------------------------------------------
   -.104E-01 0.120E+01 0.154E+01   -.711E-14 -.213E-13 -.426E-13   0.234E-01 -.121E+01 -.154E+01   -.354E-04 -.105E-03 0.168E-04
 
 
 POSITION                                       TOTAL-FORCE (eV/Angst)
 -----------------------------------------------------------------------------------
      7.75400      8.12900      6.82400         0.616045      0.991948     -2.368677
      7.39100      6.63700      6.69500        -0.326212     -1.050666      0.900926
      7.14400      6.50500      8.05000         0.954768      2.193228     -1.208633
      7.54600      8.08500      8.30500        -0.953094     -2.752145      1.708818
      8.84300      8.42600      6.56800        -1.498708     -0.360839     -0.103968
      7.00500      8.85300      6.32500         1.166080     -0.871272      0.277439
      7.32800      5.82400      5.85200         0.173107      1.735194      1.310345
      6.85100      5.69400      8.71900        -0.033305     -0.007339     -0.076720
      8.44700      8.18100      8.95600        -0.459487      0.125062     -0.369935
      6.69300      8.66600      8.70600         0.360808     -0.003171     -0.069594
 -----------------------------------------------------------------------------------
    total drift:                                0.012931     -0.010798      0.004264


--------------------------------------------------------------------------------------------------------



  FREE ENERGIE OF THE ION-ELECTRON SYSTEM (eV)
  ---------------------------------------------------
  free  energy   TOTEN  =       -56.02029778 eV

  energy  without entropy=      -56.02029778  energy(sigma->0) =      -56.02029778
 


--------------------------------------------------------------------------------------------------------


    POTLOK:  cpu time      0.5119: real time      0.5144


--------------------------------------------------------------------------------------------------------


 stress matrix after NEB project (eV)
     -3.62883     -0.76911     -0.93151
     -0.76911     -6.69762     -2.17187
     -0.93151     -2.17187     -1.61802
  FORCES: max atom, RMS     3.376795    1.934632
  FORCE total and by dimension    6.117843    2.752145
  Stress total and by dimension    8.543833    6.697623
     LOOP+:  cpu time     31.2555: real time     31.4124
    4ORBIT:  cpu time      0.0000: real time      0.0000

 total amount of memory used by VASP MPI-rank0   224782. kBytes
=======================================================================

   base      :      30000. kBytes
   nonlr-proj:       1258. kBytes
   fftplans  :     123538. kBytes
   grid      :      67787. kBytes
   one-center:         15. kBytes
   wavefun   :       2184. kBytes
 
  
  
 General timing and accounting informations for this job:
 ========================================================
  
                  Total CPU time used (sec):       37.898
                            User time (sec):       34.616
                          System time (sec):        3.282
                         Elapsed time (sec):       39.392
  
                   Maximum memory used (kb):      558292.
                   Average memory used (kb):          N/A
  
                          Minor page faults:       171439
                          Major page faults:         5431
                 Voluntary context switches:         3102
