 vasp.6.4.2 20Jul23 (build Apr 10 2024 13:39:58) complex                        
  
 executed on             LinuxIFC date 2024.05.17  06:30:47
 running   16 mpi-ranks, on    1 nodes
 distrk:  each k-point on   16 cores,    1 groups
 distr:  one band on NCORE=   2 cores,    8 groups


--------------------------------------------------------------------------------------------------------


 INCAR:
   ISTART = 0
   ISPIN = 1
   LREAL = Auto
   ENCUT = 520
   NPAR = 8
   LPLANE = .TRUE.
   LSCALU = .FALSE.
   NSIM = 4
   LWAVE = .FALSE.
   LCHARG = .FALSE.
   ADDGRID = .TRUE.
   LASPH = .TRUE.
   PREC = Accurate
   ISMEAR = 0
   SIGMA = 0.05
   EDIFF = 1E-06
   NSW = 0
   TEBEG = 300
   TEEND = 700     	
   ISYM = 0
   NWRITE = 2

 POTCAR:   PAW_PBE C 08Apr2002                    
 POTCAR:   PAW_PBE H 15Jun2001                    
 POTCAR:   PAW_PBE C 08Apr2002                    
   VRHFIN =C: s2p2                                                                                  
   LEXCH  = PE                                                                                      
   EATOM  =   147.1560 eV,   10.8157 Ry                                                             
                                                                                                    
   TITEL  = PAW_PBE C 08Apr2002                                                                     
   LULTRA =        F    use ultrasoft PP ?                                                          
   IUNSCR =        0    unscreen: 0-lin 1-nonlin 2-no                                               
   RPACOR =     .000    partial core radius                                                         
   POMASS =   12.011; ZVAL   =    4.000    mass and valenz                                          
   RCORE  =    1.500    outmost cutoff radius                                                       
   RWIGS  =    1.630; RWIGS  =     .863    wigner-seitz radius (au A)                               
   ENMAX  =  400.000; ENMIN  =  300.000 eV                                                          
   ICORE  =        2    local potential                                                             
   LCOR   =        T    correct aug charges                                                         
   LPAW   =        T    paw PP                                                                      
   EAUG   =  644.873                                                                                
   DEXC   =     .000                                                                                
   RMAX   =    2.266    core radius for proj-oper                                                   
   RAUG   =    1.300    factor for augmentation sphere                                              
   RDEP   =    1.501    radius for radial grids                                                     
   RDEPT  =    1.300    core radius for aug-charge                                                  
   QCUT   =   -5.516; QGAM   =   11.032    optimization parameters                                  
                                                                                                    
   Description                                                                                      
     l     E      TYP  RCUT    TYP  RCUT                                                            
     0   .000     23  1.200                                                                         
     0   .000     23  1.200                                                                         
     1   .000     23  1.500                                                                         
     1  2.500     23  1.500                                                                         
     2   .000      7  1.500                                                                         
  local pseudopotential read in
  atomic valenz-charges read in
  non local Contribution for L=           0  read in
    real space projection operators read in
  non local Contribution for L=           0  read in
    real space projection operators read in
  non local Contribution for L=           1  read in
    real space projection operators read in
  non local Contribution for L=           1  read in
    real space projection operators read in
    PAW grid and wavefunctions read in
 
   number of l-projection  operators is LMAX  =           4
   number of lm-projection operators is LMMAX =           8
 
 POTCAR:   PAW_PBE H 15Jun2001                    
   VRHFIN =H: ultrasoft test                                                                        
   LEXCH  = PE                                                                                      
   EATOM  =    12.4884 eV,     .9179 Ry                                                             
                                                                                                    
   TITEL  = PAW_PBE H 15Jun2001                                                                     
   LULTRA =        F    use ultrasoft PP ?                                                          
   IUNSCR =        0    unscreen: 0-lin 1-nonlin 2-no                                               
   RPACOR =     .000    partial core radius                                                         
   POMASS =    1.000; ZVAL   =    1.000    mass and valenz                                          
   RCORE  =    1.100    outmost cutoff radius                                                       
   RWIGS  =     .700; RWIGS  =     .370    wigner-seitz radius (au A)                               
   ENMAX  =  250.000; ENMIN  =  200.000 eV                                                          
   RCLOC  =     .701    cutoff for local pot                                                        
   LCOR   =        T    correct aug charges                                                         
   LPAW   =        T    paw PP                                                                      
   EAUG   =  400.000                                                                                
   RMAX   =    2.174    core radius for proj-oper                                                   
   RAUG   =    1.200    factor for augmentation sphere                                              
   RDEP   =    1.112    radius for radial grids                                                     
   QCUT   =   -5.749; QGAM   =   11.498    optimization parameters                                  
                                                                                                    
   Description                                                                                      
     l     E      TYP  RCUT    TYP  RCUT                                                            
     0   .000     23  1.100                                                                         
     0   .500     23  1.100                                                                         
     1  -.300     23  1.100                                                                         
  local pseudopotential read in
  atomic valenz-charges read in
  non local Contribution for L=           0  read in
    real space projection operators read in
  non local Contribution for L=           0  read in
    real space projection operators read in
  non local Contribution for L=           1  read in
    real space projection operators read in
    PAW grid and wavefunctions read in
 
   number of l-projection  operators is LMAX  =           3
   number of lm-projection operators is LMMAX =           5
 
 Optimization of the real space projectors (new method)

 maximal supplied QI-value         = 25.13
 optimisation between [QCUT,QGAM] = [ 11.56, 23.12] = [ 37.43,149.72] Ry 
 Optimized for a Real-space Cutoff    1.04 Angstroem

   l    n(q)    QCUT    max X(q) W(low)/X(q) W(high)/X(q)  e(spline) 
   0      7    11.561     5.582    0.47E-04    0.94E-04    0.17E-07
   0      7    11.561    69.432    0.20E-03    0.59E-03    0.21E-06
   1      7    11.561     2.780    0.24E-04    0.70E-04    0.44E-07
   1      7    11.561     4.549    0.18E-03    0.25E-03    0.12E-06
 Optimization of the real space projectors (new method)

 maximal supplied QI-value         = 34.20
 optimisation between [QCUT,QGAM] = [ 11.63, 23.26] = [ 37.87,151.49] Ry 
 Optimized for a Real-space Cutoff    1.21 Angstroem

   l    n(q)    QCUT    max X(q) W(low)/X(q) W(high)/X(q)  e(spline) 
   0      8    11.629     4.436    0.19E-04    0.32E-04    0.47E-07
   0      8    11.629    16.131    0.16E-03    0.33E-03    0.21E-06
   1      8    11.629     4.654    0.18E-03    0.16E-03    0.26E-06
 PAW_PBE C 08Apr2002                    :
 energy of atom  1       EATOM= -147.1560
 kinetic energy error for atom=    0.0071 (will be added to EATOM!!)
 PAW_PBE H 15Jun2001                    :
 energy of atom  2       EATOM=  -12.4884
 kinetic energy error for atom=    0.0014 (will be added to EATOM!!)
 
 
 POSCAR:  C  H
  positions in cartesian coordinates
  No initial velocities read in
 exchange correlation table for  LEXCH =        8
   RHO(1)=    0.500       N(1)  =     2000
   RHO(2)=  100.500       N(2)  =     4000

 VTST: version 4.1, (05/19/21)

 CHAIN: initializing optimizer
 
 OPT: Using VASP Dynamics algorithm
 CHAIN: Read ICHAIN            0
 
 POSCAR:  C  H
  positions in cartesian coordinates
  No initial velocities read in
 


--------------------------------------------------------------------------------------------------------


 ion  position               nearest neighbor table
   1  0.528  0.532  0.396-   6 1.06   5 1.08   2 1.33
   2  0.496  0.467  0.447-   7 1.12   1 1.33   3 1.53
   3  0.498  0.459  0.549-   8 1.10   4 1.33   2 1.53
   4  0.473  0.522  0.606-  10 1.08   9 1.12   3 1.33
   5  0.531  0.526  0.325-   1 1.08
   6  0.555  0.592  0.424-   1 1.06
   7  0.468  0.406  0.415-   2 1.12
   8  0.511  0.392  0.575-   3 1.10
   9  0.459  0.593  0.587-   4 1.12
  10  0.481  0.512  0.676-   4 1.08
 

IMPORTANT INFORMATION: All symmetrisations will be switched off!
NOSYMM: (Re-)initialisation of all symmetry stuff for point group C_1.


----------------------------------------------------------------------------------------

                                     Primitive cell                                     

  volume of cell :    3375.0000

  direct lattice vectors                    reciprocal lattice vectors
    15.000000000  0.000000000  0.000000000     0.066666667  0.000000000  0.000000000
     0.000000000 15.000000000  0.000000000     0.000000000  0.066666667  0.000000000
     0.000000000  0.000000000 15.000000000     0.000000000  0.000000000  0.066666667

  length of vectors
    15.000000000 15.000000000 15.000000000     0.066666667  0.066666667  0.066666667

  position of ions in fractional coordinates (direct lattice)
     0.528333346  0.532000001  0.396133327
     0.496133327  0.467133331  0.446800009
     0.497999986  0.459066677  0.548733330
     0.473333327  0.522266674  0.605666669
     0.530799993  0.525599988  0.324599997
     0.554733340  0.591666667  0.423933347
     0.468400002  0.405600007  0.415333335
     0.510666656  0.391733329  0.575266647
     0.459000015  0.593400002  0.587266668
     0.480733331  0.511533324  0.676199977

  ion indices of the primitive-cell ions
   primitive index   ion index
                 1           1
                 2           2
                 3           3
                 4           4
                 5           5
                 6           6
                 7           7
                 8           8
                 9           9
                10          10

----------------------------------------------------------------------------------------

 
 
 KPOINTS: K-Spacing Value to Generate K-Mesh: 1.00

Automatic generation of k-mesh.
 Grid dimensions read from file:
 generate k-points for:    1    1    1

 Generating k-lattice:

  Cartesian coordinates                     Fractional coordinates (reciprocal lattice)
     0.066666667  0.000000000  0.000000000     1.000000000  0.000000000  0.000000000
     0.000000000  0.066666667  0.000000000     0.000000000  1.000000000  0.000000000
     0.000000000  0.000000000  0.066666667     0.000000000  0.000000000  1.000000000

  Length of vectors
     0.066666667  0.066666667  0.066666667

  Shift w.r.t. Gamma in fractional coordinates (k-lattice)
     0.000000000  0.000000000  0.000000000

 
 Subroutine IBZKPT returns following result:
 ===========================================
 
 Found      1 irreducible k-points:
 
 Following reciprocal coordinates:
            Coordinates               Weight
  0.000000  0.000000  0.000000      1.000000
 
 Following cartesian coordinates:
            Coordinates               Weight
  0.000000  0.000000  0.000000      1.000000
 


--------------------------------------------------------------------------------------------------------




 Dimension of arrays:
   k-points           NKPTS =      1   k-points in BZ     NKDIM =      1   number of bands    NBANDS=     24
   number of dos      NEDOS =    301   number of ions     NIONS =     10
   non local maximal  LDIM  =      4   non local SUM 2l+1 LMDIM =      8
   total plane-waves  NPLWV = ******
   max r-space proj   IRMAX =   3145   max aug-charges    IRDMAX=  39494
   dimension x,y,z NGX =   112 NGY =  112 NGZ =  112
   dimension x,y,z NGXF=   224 NGYF=  224 NGZF=  224
   support grid    NGXF=   448 NGYF=  448 NGZF=  448
   ions per type =               4   6
   NGX,Y,Z   is equivalent  to a cutoff of  12.41, 12.41, 12.41 a.u.
   NGXF,Y,Z  is equivalent  to a cutoff of  24.83, 24.83, 24.83 a.u.

 SYSTEM =  unknown system                          
 POSCAR =   C  H                                   

 Startparameter for this run:
   NWRITE =      2    write-flag & timer
   PREC   = accura    normal or accurate (medium, high low for compatibility)
   ISTART =      0    job   : 0-new  1-cont  2-samecut
   ICHARG =      2    charge: 1-file 2-atom 10-const
   ISPIN  =      1    spin polarized calculation?
   LNONCOLLINEAR =      F non collinear calculations
   LSORBIT =      F    spin-orbit coupling
   INIWAV =      1    electr: 0-lowe 1-rand  2-diag
   LASPH  =      T    aspherical Exc in radial PAW
 Electronic Relaxation 1
   ENCUT  =  520.0 eV  38.22 Ry    6.18 a.u.  27.89 27.89 27.89*2*pi/ulx,y,z
   ENINI  =  520.0     initial cutoff
   ENAUG  =  644.9 eV  augmentation charge cutoff
   NELM   =     60;   NELMIN=  2; NELMDL= -5     # of ELM steps 
   EDIFF  = 0.1E-05   stopping-criterion for ELM
   LREAL  =      T    real-space projection
   NLSPLINE    = F    spline interpolate recip. space projectors
   LCOMPAT=      F    compatible to vasp.4.4
   GGA_COMPAT  = T    GGA compatible to vasp.4.4-vasp.4.6
   LMAXPAW     = -100 max onsite density
   LMAXMIX     =    2 max onsite mixed and CHGCAR
   VOSKOWN=      0    Vosko Wilk Nusair interpolation
   ROPT   =   -0.00025  -0.00025
 Ionic relaxation
   EDIFFG = 0.1E-04   stopping-criterion for IOM
   NSW    =      0    number of steps for IOM
   NBLOCK =      1;   KBLOCK =      1    inner block; outer block 
   IBRION =     -1    ionic relax: 0-MD 1-quasi-New 2-CG
   NFREE  =      0    steps in history (QN), initial steepest desc. (CG)
   ISIF   =      2    stress and relaxation
   IWAVPR =     10    prediction:  0-non 1-charg 2-wave 3-comb
   ISYM   =      0    0-nonsym 1-usesym 2-fastsym
   LCORR  =      T    Harris-Foulkes like correction to forces

   POTIM  = 0.5000    time-step for ionic-motion
   TEIN   =    0.0    initial temperature
   TEBEG  =  300.0;   TEEND  = 700.0 temperature during run
   SMASS  =  -3.00    Nose mass-parameter (am)
   estimated Nose-frequenzy (Omega)   =  0.10E-29 period in steps = 0.13E+47 mass=  -0.514E-26a.u.
   SCALEE = 1.0000    scale energy and forces
   NPACO  =    256;   APACO  = 10.0  distance and # of slots for P.C.
   PSTRESS=    0.0 pullay stress

  Mass of Ions in am
   POMASS =  12.01  1.00
  Ionic Valenz
   ZVAL   =   4.00  1.00
  Atomic Wigner-Seitz radii
   RWIGS  =  -1.00 -1.00
  virtual crystal weights 
   VCA    =   1.00  1.00
   NELECT =      22.0000    total number of electrons
   NUPDOWN=      -1.0000    fix difference up-down

 DOS related values:
   EMIN   =  10.00;   EMAX   =-10.00  energy-range for DOS
   EFERMI =   0.00;   METHOD = LEGACY      
   ISMEAR =     0;   SIGMA  =   0.05  broadening in eV -4-tet -1-fermi 0-gaus

 Electronic relaxation 2 (details)
   IALGO  =     38    algorithm
   LDIAG  =      T    sub-space diagonalisation (order eigenvalues)
   LSUBROT=      F    optimize rotation matrix (better conditioning)
   TURBO    =      0    0=normal 1=particle mesh
   IRESTART =      0    0=no restart 2=restart with 2 vectors
   NREBOOT  =      0    no. of reboots
   NMIN     =      0    reboot dimension
   EREF     =   0.00    reference energy to select bands
   IMIX   =      4    mixing-type and parameters
     AMIX     =   0.40;   BMIX     =  1.00
     AMIX_MAG =   1.60;   BMIX_MAG =  1.00
     AMIN     =   0.10
     WC   =   100.;   INIMIX=   1;  MIXPRE=   1;  MAXMIX= -45

 Intra band minimization:
   WEIMIN = 0.0000     energy-eigenvalue tresh-hold
   EBREAK =  0.10E-07  absolut break condition
   DEPER  =   0.30     relativ break condition  

   TIME   =   0.40     timestep for ELM

  volume/ion in A,a.u.               =     337.50      2277.56
  Fermi-wavevector in a.u.,A,eV,Ry     =   0.305814  0.577905  1.272449  0.093522
  Thomas-Fermi vector in A             =   1.179187
 
 Write flags
   LWAVE        =      F    write WAVECAR
   LDOWNSAMPLE  =      F    k-point downsampling of WAVECAR
   LCHARG       =      F    write CHGCAR
   LVTOT        =      F    write LOCPOT, total local potential
   LVHAR        =      F    write LOCPOT, Hartree potential only
   LELF         =      F    write electronic localiz. function (ELF)
   LORBIT       =      0    0 simple, 1 ext, 2 COOP (PROOUT), +10 PAW based schemes


 Dipole corrections
   LMONO  =      F    monopole corrections only (constant potential shift)
   LDIPOL =      F    correct potential (dipole corrections)
   IDIPOL =      0    1-x, 2-y, 3-z, 4-all directions 
   EPSILON=  1.0000000 bulk dielectric constant

 Exchange correlation treatment:
   GGA     =    --    GGA type
   LEXCH   =     8    internal setting for exchange type
   LIBXC   =     F    Libxc                    
   VOSKOWN =     0    Vosko Wilk Nusair interpolation
   LHFCALC =     F    Hartree Fock is set to
   LHFONE  =     F    Hartree Fock one center treatment
   AEXX    =    0.0000 exact exchange contribution

 Linear response parameters
   LEPSILON=     F    determine dielectric tensor
   LRPA    =     F    only Hartree local field effects (RPA)
   LNABLA  =     F    use nabla operator in PAW spheres
   LVEL    =     F    velocity operator in full k-point grid
   CSHIFT  =0.1000    complex shift for real part using Kramers Kronig
   OMEGAMAX=  -1.0    maximum frequency
   DEG_THRESHOLD= 0.2000000E-02 threshold for treating states as degnerate
   RTIME   =   -0.100 relaxation time in fs
  (WPLASMAI=    0.000 imaginary part of plasma frequency in eV, 0.658/RTIME)
   DFIELD  = 0.0000000 0.0000000 0.0000000 field for delta impulse in time
 
  Optional k-point grid parameters
   LKPOINTS_OPT  =     F    use optional k-point grid
   KPOINTS_OPT_MODE=     1    mode for optional k-point grid
 
 Orbital magnetization related:
   ORBITALMAG=     F  switch on orbital magnetization
   LCHIMAG   =     F  perturbation theory with respect to B field
   DQ        =  0.001000  dq finite difference perturbation B field
   LLRAUG    =     F  two centre corrections for induced B field
   LBONE     =     F  B-component reconstruction in AE one-centre
   LVGVCALC  =     T  calculate vGv susceptibility
   LVGVAPPL  =     F  apply vGv susceptibility instead of pGv for G=0

 Random number generation:
   RANDOM_GENERATOR = DEFAULT
   PCG_SEED         = not used


--------------------------------------------------------------------------------------------------------


 Static calculation
 charge density and potential will be updated during run
 non-spin polarized calculation
 Variant of blocked Davidson
 Davidson routine will perform the subspace rotation
 perform sub-space diagonalisation
    after iterative eigenvector-optimisation
 modified Broyden-mixing scheme, WC =      100.0
 initial mixing is a Kerker type mixing with AMIX =  0.4000 and BMIX =      1.0000
 Hartree-type preconditioning will be used
 using additional bands           13
 real space projection scheme for non local part
 calculate Harris-corrections to forces 
   (improved forces if not selfconsistent)
 use gradient corrections 
 use of overlap-Matrix (Vanderbilt PP)
 Gauss-broadening in eV      SIGMA  =   0.05


--------------------------------------------------------------------------------------------------------


  energy-cutoff  :      520.00
  volume of cell :     3375.00
      direct lattice vectors                 reciprocal lattice vectors
    15.000000000  0.000000000  0.000000000     0.066666667  0.000000000  0.000000000
     0.000000000 15.000000000  0.000000000     0.000000000  0.066666667  0.000000000
     0.000000000  0.000000000 15.000000000     0.000000000  0.000000000  0.066666667

  length of vectors
    15.000000000 15.000000000 15.000000000     0.066666667  0.066666667  0.066666667


 
 k-points in units of 2pi/SCALE and weight: K-Spacing Value to Generate K-Mesh: 1.00
   0.00000000  0.00000000  0.00000000       1.000
 
 k-points in reciprocal lattice and weights: K-Spacing Value to Generate K-Mesh: 1.00
   0.00000000  0.00000000  0.00000000       1.000
 
 position of ions in fractional coordinates (direct lattice) 
   0.52833335  0.53200000  0.39613333
   0.49613333  0.46713333  0.44680001
   0.49799999  0.45906668  0.54873333
   0.47333333  0.52226667  0.60566667
   0.53079999  0.52559999  0.32460000
   0.55473334  0.59166667  0.42393335
   0.46840000  0.40560001  0.41533333
   0.51066666  0.39173333  0.57526665
   0.45900002  0.59340000  0.58726667
   0.48073333  0.51153332  0.67619998
 
 position of ions in cartesian coordinates  (Angst):
   7.92500019  7.98000002  5.94199991
   7.44199991  7.00699997  6.70200014
   7.46999979  6.88600016  8.23099995
   7.09999990  7.83400011  9.08500004
   7.96199989  7.88399982  4.86899996
   8.32100010  8.87500000  6.35900021
   7.02600002  6.08400011  6.23000002
   7.65999985  5.87599993  8.62899971
   6.88500023  8.90100002  8.80900002
   7.21099997  7.67299986 10.14299965
 


--------------------------------------------------------------------------------------------------------


 k-point   1 :   0.0000 0.0000 0.0000  plane waves:   90879

 maximum and minimum number of plane-waves per node :     45467    45412

 maximum number of plane-waves:     90879
 maximum index in each direction: 
   IXMAX=   27   IYMAX=   27   IZMAX=   27
   IXMIN=  -27   IYMIN=  -27   IZMIN=  -27


 real space projection operators:
  total allocation   :       1188.45 KBytes
  max/ min on nodes  :        595.16        593.30


 parallel 3D FFT for wavefunctions:
    minimum data exchange during FFTs selected (reduces bandwidth)
 parallel 3D FFT for charge:
    minimum data exchange during FFTs selected (reduces bandwidth)


 total amount of memory used by VASP MPI-rank0   224789. kBytes
=======================================================================

   base      :      30000. kBytes
   nonlr-proj:       1265. kBytes
   fftplans  :     123538. kBytes
   grid      :      67787. kBytes
   one-center:         15. kBytes
   wavefun   :       2184. kBytes
 
     INWAV:  cpu time      0.0000: real time      0.0000
 Broyden mixing: mesh for mixing (old mesh)
   NGX = 55   NGY = 55   NGZ = 55
  (NGX  =224   NGY  =224   NGZ  =224)
  gives a total of 166375 points

 initial charge density was supplied:
 charge density of overlapping atoms calculated
 number of electron      22.0000000 magnetization 
 keeping initial charge density in first step


--------------------------------------------------------------------------------------------------------


 Maximum index for non-local projection operator         1523
 Maximum index for augmentation-charges         2488 (set IRDMAX)


--------------------------------------------------------------------------------------------------------


 First call to EWALD:  gamma=   0.118
 Maximum number of real-space cells 3x 3x 3
 Maximum number of reciprocal cells 3x 3x 3

    FEWALD:  cpu time      0.0010: real time      0.0010


--------------------------------------- Ionic step        1  -------------------------------------------




--------------------------------------- Iteration      1(   1)  ---------------------------------------


    POTLOK:  cpu time      0.3320: real time      0.3338
    SETDIJ:  cpu time      0.1931: real time      0.1940
     EDDAV:  cpu time      0.4164: real time      0.4187
       DOS:  cpu time      0.0002: real time      0.0002
    --------------------------------------------
      LOOP:  cpu time      0.9417: real time      0.9467

 eigenvalue-minimisations  :    64
 total energy-change (2. order) : 0.1062233E+03  (-0.5270205E+03)
 number of electron      22.0000000 magnetization 
 augmentation part       22.0000000 magnetization 

 Free energy of the ion-electron system (eV)
  ---------------------------------------------------
  alpha Z        PSCENC =         0.62641250
  Ewald energy   TEWEN  =       874.61723319
  -Hartree energ DENC   =     -1298.39101697
  -exchange      EXHF   =         0.00000000
  -V(xc)+E(xc)   XCENC  =        67.17831138
  PAW double counting   =       156.01372664     -160.66969168
  entropy T*S    EENTRO =        -0.00002120
  eigenvalues    EBANDS =      -196.66908713
  atomic energy  EATOM  =       663.51739852
  Solvation  Ediel_sol  =         0.00000000
  ---------------------------------------------------
  free energy    TOTEN  =       106.22326526 eV

  energy without entropy =      106.22328646  energy(sigma->0) =      106.22327586


--------------------------------------------------------------------------------------------------------




--------------------------------------- Iteration      1(   2)  ---------------------------------------


     EDDAV:  cpu time      0.4821: real time      0.4848
       DOS:  cpu time      0.0001: real time      0.0001
    --------------------------------------------
      LOOP:  cpu time      0.4822: real time      0.4849

 eigenvalue-minimisations  :    80
 total energy-change (2. order) :-0.1277625E+03  (-0.1246602E+03)
 number of electron      22.0000000 magnetization 
 augmentation part       22.0000000 magnetization 

 Free energy of the ion-electron system (eV)
  ---------------------------------------------------
  alpha Z        PSCENC =         0.62641250
  Ewald energy   TEWEN  =       874.61723319
  -Hartree energ DENC   =     -1298.39101697
  -exchange      EXHF   =         0.00000000
  -V(xc)+E(xc)   XCENC  =        67.17831138
  PAW double counting   =       156.01372664     -160.66969168
  entropy T*S    EENTRO =        -0.00000000
  eigenvalues    EBANDS =      -324.43159122
  atomic energy  EATOM  =       663.51739852
  Solvation  Ediel_sol  =         0.00000000
  ---------------------------------------------------
  free energy    TOTEN  =       -21.53921763 eV

  energy without entropy =      -21.53921763  energy(sigma->0) =      -21.53921763


--------------------------------------------------------------------------------------------------------




--------------------------------------- Iteration      1(   3)  ---------------------------------------


     EDDAV:  cpu time      0.4042: real time      0.4066
       DOS:  cpu time      0.0001: real time      0.0001
    --------------------------------------------
      LOOP:  cpu time      0.4043: real time      0.4067

 eigenvalue-minimisations  :    64
 total energy-change (2. order) :-0.3872430E+02  (-0.3860423E+02)
 number of electron      22.0000000 magnetization 
 augmentation part       22.0000000 magnetization 

 Free energy of the ion-electron system (eV)
  ---------------------------------------------------
  alpha Z        PSCENC =         0.62641250
  Ewald energy   TEWEN  =       874.61723319
  -Hartree energ DENC   =     -1298.39101697
  -exchange      EXHF   =         0.00000000
  -V(xc)+E(xc)   XCENC  =        67.17831138
  PAW double counting   =       156.01372664     -160.66969168
  entropy T*S    EENTRO =        -0.00000000
  eigenvalues    EBANDS =      -363.15589254
  atomic energy  EATOM  =       663.51739852
  Solvation  Ediel_sol  =         0.00000000
  ---------------------------------------------------
  free energy    TOTEN  =       -60.26351895 eV

  energy without entropy =      -60.26351895  energy(sigma->0) =      -60.26351895


--------------------------------------------------------------------------------------------------------




--------------------------------------- Iteration      1(   4)  ---------------------------------------


     EDDAV:  cpu time      0.4025: real time      0.4047
       DOS:  cpu time      0.0001: real time      0.0001
    --------------------------------------------
      LOOP:  cpu time      0.4026: real time      0.4048

 eigenvalue-minimisations  :    64
 total energy-change (2. order) :-0.3127147E+01  (-0.3121393E+01)
 number of electron      22.0000000 magnetization 
 augmentation part       22.0000000 magnetization 

 Free energy of the ion-electron system (eV)
  ---------------------------------------------------
  alpha Z        PSCENC =         0.62641250
  Ewald energy   TEWEN  =       874.61723319
  -Hartree energ DENC   =     -1298.39101697
  -exchange      EXHF   =         0.00000000
  -V(xc)+E(xc)   XCENC  =        67.17831138
  PAW double counting   =       156.01372664     -160.66969168
  entropy T*S    EENTRO =        -0.00000000
  eigenvalues    EBANDS =      -366.28303925
  atomic energy  EATOM  =       663.51739852
  Solvation  Ediel_sol  =         0.00000000
  ---------------------------------------------------
  free energy    TOTEN  =       -63.39066567 eV

  energy without entropy =      -63.39066567  energy(sigma->0) =      -63.39066567


--------------------------------------------------------------------------------------------------------




--------------------------------------- Iteration      1(   5)  ---------------------------------------


     EDDAV:  cpu time      0.4057: real time      0.4080
       DOS:  cpu time      0.0001: real time      0.0001
    CHARGE:  cpu time      0.2004: real time      0.2012
    MIXING:  cpu time      0.0122: real time      0.0123
    --------------------------------------------
      LOOP:  cpu time      0.6185: real time      0.6216

 eigenvalue-minimisations  :    64
 total energy-change (2. order) :-0.6461428E-01  (-0.6457737E-01)
 number of electron      22.0000000 magnetization 
 augmentation part        0.5848044 magnetization 

 Broyden mixing:
  rms(total) = 0.12062E+01    rms(broyden)= 0.12059E+01
  rms(prec ) = 0.14445E+01
  weight for this iteration     100.00

 Free energy of the ion-electron system (eV)
  ---------------------------------------------------
  alpha Z        PSCENC =         0.62641250
  Ewald energy   TEWEN  =       874.61723319
  -Hartree energ DENC   =     -1298.39101697
  -exchange      EXHF   =         0.00000000
  -V(xc)+E(xc)   XCENC  =        67.17831138
  PAW double counting   =       156.01372664     -160.66969168
  entropy T*S    EENTRO =        -0.00000000
  eigenvalues    EBANDS =      -366.34765353
  atomic energy  EATOM  =       663.51739852
  Solvation  Ediel_sol  =         0.00000000
  ---------------------------------------------------
  free energy    TOTEN  =       -63.45527994 eV

  energy without entropy =      -63.45527994  energy(sigma->0) =      -63.45527994


--------------------------------------------------------------------------------------------------------




--------------------------------------- Iteration      1(   6)  ---------------------------------------


    POTLOK:  cpu time      0.3046: real time      0.3063
    SETDIJ:  cpu time      0.1921: real time      0.1929
     EDDAV:  cpu time      0.4465: real time      0.4490
       DOS:  cpu time      0.0001: real time      0.0001
    CHARGE:  cpu time      0.1995: real time      0.2003
    MIXING:  cpu time      0.0078: real time      0.0078
    --------------------------------------------
      LOOP:  cpu time      1.1505: real time      1.1563

 eigenvalue-minimisations  :    72
 total energy-change (2. order) : 0.5355902E+01  (-0.7946200E+00)
 number of electron      22.0000000 magnetization 
 augmentation part        0.5357959 magnetization 

 Broyden mixing:
  rms(total) = 0.58113E+00    rms(broyden)= 0.58110E+00
  rms(prec ) = 0.68847E+00
  weight for this iteration     100.00

 eigenvalues of (default mixing * dielectric matrix)
  average eigenvalue GAMMA=   1.5931
  1.5931

 Free energy of the ion-electron system (eV)
  ---------------------------------------------------
  alpha Z        PSCENC =         0.62641250
  Ewald energy   TEWEN  =       874.61723319
  -Hartree energ DENC   =     -1345.27637846
  -exchange      EXHF   =         0.00000000
  -V(xc)+E(xc)   XCENC  =        69.65245822
  PAW double counting   =       230.41680021     -235.63148617
  entropy T*S    EENTRO =        -0.00000000
  eigenvalues    EBANDS =      -316.02181556
  atomic energy  EATOM  =       663.51739852
  Solvation  Ediel_sol  =         0.00000000
  ---------------------------------------------------
  free energy    TOTEN  =       -58.09937755 eV

  energy without entropy =      -58.09937755  energy(sigma->0) =      -58.09937755


--------------------------------------------------------------------------------------------------------




--------------------------------------- Iteration      1(   7)  ---------------------------------------


    POTLOK:  cpu time      0.3065: real time      0.3082
    SETDIJ:  cpu time      0.1878: real time      0.1886
     EDDAV:  cpu time      0.4114: real time      0.4136
       DOS:  cpu time      0.0001: real time      0.0001
    CHARGE:  cpu time      0.2019: real time      0.2027
    MIXING:  cpu time      0.0080: real time      0.0080
    --------------------------------------------
      LOOP:  cpu time      1.1156: real time      1.1212

 eigenvalue-minimisations  :    64
 total energy-change (2. order) : 0.1272991E+01  (-0.4221271E+00)
 number of electron      22.0000000 magnetization 
 augmentation part        0.5033111 magnetization 

 Broyden mixing:
  rms(total) = 0.22415E+00    rms(broyden)= 0.22408E+00
  rms(prec ) = 0.25758E+00
  weight for this iteration     100.00

 eigenvalues of (default mixing * dielectric matrix)
  average eigenvalue GAMMA=   1.5986
  1.5389  1.6583

 Free energy of the ion-electron system (eV)
  ---------------------------------------------------
  alpha Z        PSCENC =         0.62641250
  Ewald energy   TEWEN  =       874.61723319
  -Hartree energ DENC   =     -1383.07897801
  -exchange      EXHF   =         0.00000000
  -V(xc)+E(xc)   XCENC  =        71.82964948
  PAW double counting   =       292.26757960     -297.74014043
  entropy T*S    EENTRO =        -0.00000000
  eigenvalues    EBANDS =      -278.86554134
  atomic energy  EATOM  =       663.51739852
  Solvation  Ediel_sol  =         0.00000000
  ---------------------------------------------------
  free energy    TOTEN  =       -56.82638649 eV

  energy without entropy =      -56.82638649  energy(sigma->0) =      -56.82638649


--------------------------------------------------------------------------------------------------------




--------------------------------------- Iteration      1(   8)  ---------------------------------------


    POTLOK:  cpu time      0.3098: real time      0.3115
    SETDIJ:  cpu time      0.1887: real time      0.1896
     EDDAV:  cpu time      0.3295: real time      0.3314
       DOS:  cpu time      0.0001: real time      0.0001
    CHARGE:  cpu time      0.1941: real time      0.1949
    MIXING:  cpu time      0.0094: real time      0.0094
    --------------------------------------------
      LOOP:  cpu time      1.0316: real time      1.0369

 eigenvalue-minimisations  :    48
 total energy-change (2. order) : 0.1436959E+00  (-0.1961874E-01)
 number of electron      22.0000000 magnetization 
 augmentation part        0.5014813 magnetization 

 Broyden mixing:
  rms(total) = 0.88921E-01    rms(broyden)= 0.88915E-01
  rms(prec ) = 0.11304E+00
  weight for this iteration     100.00

 eigenvalues of (default mixing * dielectric matrix)
  average eigenvalue GAMMA=   1.6420
  2.4188  0.8936  1.6137

 Free energy of the ion-electron system (eV)
  ---------------------------------------------------
  alpha Z        PSCENC =         0.62641250
  Ewald energy   TEWEN  =       874.61723319
  -Hartree energ DENC   =     -1389.63007725
  -exchange      EXHF   =         0.00000000
  -V(xc)+E(xc)   XCENC  =        72.31322707
  PAW double counting   =       299.46855146     -304.85858200
  entropy T*S    EENTRO =        -0.00000000
  eigenvalues    EBANDS =      -272.73685407
  atomic energy  EATOM  =       663.51739852
  Solvation  Ediel_sol  =         0.00000000
  ---------------------------------------------------
  free energy    TOTEN  =       -56.68269058 eV

  energy without entropy =      -56.68269058  energy(sigma->0) =      -56.68269058


--------------------------------------------------------------------------------------------------------




--------------------------------------- Iteration      1(   9)  ---------------------------------------


    POTLOK:  cpu time      0.3110: real time      0.3127
    SETDIJ:  cpu time      0.1891: real time      0.1899
     EDDAV:  cpu time      0.4483: real time      0.4507
       DOS:  cpu time      0.0001: real time      0.0001
    CHARGE:  cpu time      0.2014: real time      0.2022
    MIXING:  cpu time      0.0081: real time      0.0081
    --------------------------------------------
      LOOP:  cpu time      1.1579: real time      1.1638

 eigenvalue-minimisations  :    72
 total energy-change (2. order) : 0.4849535E-01  (-0.6863997E-02)
 number of electron      22.0000000 magnetization 
 augmentation part        0.4999920 magnetization 

 Broyden mixing:
  rms(total) = 0.25967E-01    rms(broyden)= 0.25960E-01
  rms(prec ) = 0.48529E-01
  weight for this iteration     100.00

 eigenvalues of (default mixing * dielectric matrix)
  average eigenvalue GAMMA=   1.4340
  2.2634  1.6180  0.9273  0.9273

 Free energy of the ion-electron system (eV)
  ---------------------------------------------------
  alpha Z        PSCENC =         0.62641250
  Ewald energy   TEWEN  =       874.61723319
  -Hartree energ DENC   =     -1396.06085584
  -exchange      EXHF   =         0.00000000
  -V(xc)+E(xc)   XCENC  =        72.70072507
  PAW double counting   =       304.30710110     -309.64538030
  entropy T*S    EENTRO =        -0.00000000
  eigenvalues    EBANDS =      -266.69682947
  atomic energy  EATOM  =       663.51739852
  Solvation  Ediel_sol  =         0.00000000
  ---------------------------------------------------
  free energy    TOTEN  =       -56.63419522 eV

  energy without entropy =      -56.63419522  energy(sigma->0) =      -56.63419522


--------------------------------------------------------------------------------------------------------




--------------------------------------- Iteration      1(  10)  ---------------------------------------


    POTLOK:  cpu time      0.3126: real time      0.3143
    SETDIJ:  cpu time      0.1879: real time      0.1887
     EDDAV:  cpu time      0.3639: real time      0.3659
       DOS:  cpu time      0.0001: real time      0.0001
    CHARGE:  cpu time      0.1988: real time      0.1997
    MIXING:  cpu time      0.0082: real time      0.0082
    --------------------------------------------
      LOOP:  cpu time      1.0716: real time      1.0769

 eigenvalue-minimisations  :    56
 total energy-change (2. order) : 0.4043934E-02  (-0.1491813E-02)
 number of electron      22.0000000 magnetization 
 augmentation part        0.4989230 magnetization 

 Broyden mixing:
  rms(total) = 0.17017E-01    rms(broyden)= 0.17015E-01
  rms(prec ) = 0.35846E-01
  weight for this iteration     100.00

 eigenvalues of (default mixing * dielectric matrix)
  average eigenvalue GAMMA=   1.6705
  2.7452  2.2653  1.0052  1.0052  1.3314

 Free energy of the ion-electron system (eV)
  ---------------------------------------------------
  alpha Z        PSCENC =         0.62641250
  Ewald energy   TEWEN  =       874.61723319
  -Hartree energ DENC   =     -1398.18065506
  -exchange      EXHF   =         0.00000000
  -V(xc)+E(xc)   XCENC  =        72.73271723
  PAW double counting   =       303.96773109     -309.31746587
  entropy T*S    EENTRO =        -0.00000000
  eigenvalues    EBANDS =      -264.59352290
  atomic energy  EATOM  =       663.51739852
  Solvation  Ediel_sol  =         0.00000000
  ---------------------------------------------------
  free energy    TOTEN  =       -56.63015129 eV

  energy without entropy =      -56.63015129  energy(sigma->0) =      -56.63015129


--------------------------------------------------------------------------------------------------------




--------------------------------------- Iteration      1(  11)  ---------------------------------------


    POTLOK:  cpu time      0.3122: real time      0.3139
    SETDIJ:  cpu time      0.1929: real time      0.1937
     EDDAV:  cpu time      0.3669: real time      0.3689
       DOS:  cpu time      0.0001: real time      0.0001
    CHARGE:  cpu time      0.1993: real time      0.2001
    MIXING:  cpu time      0.0091: real time      0.0091
    --------------------------------------------
      LOOP:  cpu time      1.0804: real time      1.0858

 eigenvalue-minimisations  :    56
 total energy-change (2. order) : 0.1270680E-01  (-0.9704508E-03)
 number of electron      22.0000000 magnetization 
 augmentation part        0.4984131 magnetization 

 Broyden mixing:
  rms(total) = 0.76459E-02    rms(broyden)= 0.76453E-02
  rms(prec ) = 0.17269E-01
  weight for this iteration     100.00

 eigenvalues of (default mixing * dielectric matrix)
  average eigenvalue GAMMA=   1.6987
  3.1872  2.4648  1.4104  1.0232  1.0534  1.0534

 Free energy of the ion-electron system (eV)
  ---------------------------------------------------
  alpha Z        PSCENC =         0.62641250
  Ewald energy   TEWEN  =       874.61723319
  -Hartree energ DENC   =     -1403.02342867
  -exchange      EXHF   =         0.00000000
  -V(xc)+E(xc)   XCENC  =        72.86486623
  PAW double counting   =       302.72324651     -308.05888853
  entropy T*S    EENTRO =        -0.00000000
  eigenvalues    EBANDS =      -259.88428426
  atomic energy  EATOM  =       663.51739852
  Solvation  Ediel_sol  =         0.00000000
  ---------------------------------------------------
  free energy    TOTEN  =       -56.61744449 eV

  energy without entropy =      -56.61744449  energy(sigma->0) =      -56.61744449


--------------------------------------------------------------------------------------------------------




--------------------------------------- Iteration      1(  12)  ---------------------------------------


    POTLOK:  cpu time      0.3119: real time      0.3136
    SETDIJ:  cpu time      0.1906: real time      0.1914
     EDDAV:  cpu time      0.4447: real time      0.4471
       DOS:  cpu time      0.0002: real time      0.0002
    CHARGE:  cpu time      0.1976: real time      0.1984
    MIXING:  cpu time      0.0100: real time      0.0100
    --------------------------------------------
      LOOP:  cpu time      1.1550: real time      1.1607

 eigenvalue-minimisations  :    72
 total energy-change (2. order) :-0.1978722E-02  (-0.1260617E-03)
 number of electron      22.0000000 magnetization 
 augmentation part        0.4981196 magnetization 

 Broyden mixing:
  rms(total) = 0.58734E-02    rms(broyden)= 0.58733E-02
  rms(prec ) = 0.11906E-01
  weight for this iteration     100.00

 eigenvalues of (default mixing * dielectric matrix)
  average eigenvalue GAMMA=   1.9212
  4.3585  2.5595  2.1246  1.4743  0.9198  1.0057  1.0057

 Free energy of the ion-electron system (eV)
  ---------------------------------------------------
  alpha Z        PSCENC =         0.62641250
  Ewald energy   TEWEN  =       874.61723319
  -Hartree energ DENC   =     -1404.52432313
  -exchange      EXHF   =         0.00000000
  -V(xc)+E(xc)   XCENC  =        72.88499833
  PAW double counting   =       302.20610598     -307.54283020
  entropy T*S    EENTRO =        -0.00000000
  eigenvalues    EBANDS =      -258.40441841
  atomic energy  EATOM  =       663.51739852
  Solvation  Ediel_sol  =         0.00000000
  ---------------------------------------------------
  free energy    TOTEN  =       -56.61942322 eV

  energy without entropy =      -56.61942322  energy(sigma->0) =      -56.61942322


--------------------------------------------------------------------------------------------------------




--------------------------------------- Iteration      1(  13)  ---------------------------------------


    POTLOK:  cpu time      0.3068: real time      0.3085
    SETDIJ:  cpu time      0.1913: real time      0.1921
     EDDAV:  cpu time      0.4445: real time      0.4471
       DOS:  cpu time      0.0001: real time      0.0001
    CHARGE:  cpu time      0.1983: real time      0.1991
    MIXING:  cpu time      0.0087: real time      0.0087
    --------------------------------------------
      LOOP:  cpu time      1.1497: real time      1.1556

 eigenvalue-minimisations  :    72
 total energy-change (2. order) :-0.9974052E-02  (-0.1722686E-03)
 number of electron      22.0000000 magnetization 
 augmentation part        0.4981240 magnetization 

 Broyden mixing:
  rms(total) = 0.29777E-02    rms(broyden)= 0.29775E-02
  rms(prec ) = 0.62193E-02
  weight for this iteration     100.00

 eigenvalues of (default mixing * dielectric matrix)
  average eigenvalue GAMMA=   1.9804
  5.0549  2.7061  2.2202  1.4653  1.4653  1.0019  1.0019  0.9276

 Free energy of the ion-electron system (eV)
  ---------------------------------------------------
  alpha Z        PSCENC =         0.62641250
  Ewald energy   TEWEN  =       874.61723319
  -Hartree energ DENC   =     -1405.44778670
  -exchange      EXHF   =         0.00000000
  -V(xc)+E(xc)   XCENC  =        72.88497465
  PAW double counting   =       302.04855085     -307.38505464
  entropy T*S    EENTRO =        -0.00000000
  eigenvalues    EBANDS =      -257.49112564
  atomic energy  EATOM  =       663.51739852
  Solvation  Ediel_sol  =         0.00000000
  ---------------------------------------------------
  free energy    TOTEN  =       -56.62939727 eV

  energy without entropy =      -56.62939727  energy(sigma->0) =      -56.62939727


--------------------------------------------------------------------------------------------------------




--------------------------------------- Iteration      1(  14)  ---------------------------------------


    POTLOK:  cpu time      0.3080: real time      0.3097
    SETDIJ:  cpu time      0.1916: real time      0.1924
     EDDAV:  cpu time      0.4095: real time      0.4117
       DOS:  cpu time      0.0001: real time      0.0001
    CHARGE:  cpu time      0.1989: real time      0.1997
    MIXING:  cpu time      0.0093: real time      0.0094
    --------------------------------------------
      LOOP:  cpu time      1.1175: real time      1.1231

 eigenvalue-minimisations  :    64
 total energy-change (2. order) :-0.6100976E-02  (-0.8276893E-04)
 number of electron      22.0000000 magnetization 
 augmentation part        0.4979677 magnetization 

 Broyden mixing:
  rms(total) = 0.17717E-02    rms(broyden)= 0.17716E-02
  rms(prec ) = 0.36535E-02
  weight for this iteration     100.00

 eigenvalues of (default mixing * dielectric matrix)
  average eigenvalue GAMMA=   2.2224
  6.5241  3.6006  2.3291  2.0498  1.3148  1.3148  0.9806  0.9806  0.9069

 Free energy of the ion-electron system (eV)
  ---------------------------------------------------
  alpha Z        PSCENC =         0.62641250
  Ewald energy   TEWEN  =       874.61723319
  -Hartree energ DENC   =     -1405.81605837
  -exchange      EXHF   =         0.00000000
  -V(xc)+E(xc)   XCENC  =        72.88195548
  PAW double counting   =       302.26653550     -307.60415492
  entropy T*S    EENTRO =        -0.00000000
  eigenvalues    EBANDS =      -257.12482016
  atomic energy  EATOM  =       663.51739852
  Solvation  Ediel_sol  =         0.00000000
  ---------------------------------------------------
  free energy    TOTEN  =       -56.63549824 eV

  energy without entropy =      -56.63549824  energy(sigma->0) =      -56.63549824


--------------------------------------------------------------------------------------------------------




--------------------------------------- Iteration      1(  15)  ---------------------------------------


    POTLOK:  cpu time      0.3006: real time      0.3022
    SETDIJ:  cpu time      0.1913: real time      0.1921
     EDDAV:  cpu time      0.4525: real time      0.4550
       DOS:  cpu time      0.0001: real time      0.0001
    CHARGE:  cpu time      0.1976: real time      0.1985
    MIXING:  cpu time      0.0093: real time      0.0093
    --------------------------------------------
      LOOP:  cpu time      1.1513: real time      1.1572

 eigenvalue-minimisations  :    72
 total energy-change (2. order) :-0.4163288E-02  (-0.7172322E-04)
 number of electron      22.0000000 magnetization 
 augmentation part        0.4979981 magnetization 

 Broyden mixing:
  rms(total) = 0.10677E-02    rms(broyden)= 0.10675E-02
  rms(prec ) = 0.18134E-02
  weight for this iteration     100.00

 eigenvalues of (default mixing * dielectric matrix)
  average eigenvalue GAMMA=   2.3066
  6.9813  4.2347  2.5216  2.0140  1.8176  1.4585  0.9985  0.9985  0.9108  1.1309

 Free energy of the ion-electron system (eV)
  ---------------------------------------------------
  alpha Z        PSCENC =         0.62641250
  Ewald energy   TEWEN  =       874.61723319
  -Hartree energ DENC   =     -1405.78063178
  -exchange      EXHF   =         0.00000000
  -V(xc)+E(xc)   XCENC  =        72.86922663
  PAW double counting   =       302.21825752     -307.55439192
  entropy T*S    EENTRO =        -0.00000000
  eigenvalues    EBANDS =      -257.15316620
  atomic energy  EATOM  =       663.51739852
  Solvation  Ediel_sol  =         0.00000000
  ---------------------------------------------------
  free energy    TOTEN  =       -56.63966153 eV

  energy without entropy =      -56.63966153  energy(sigma->0) =      -56.63966153


--------------------------------------------------------------------------------------------------------




--------------------------------------- Iteration      1(  16)  ---------------------------------------


    POTLOK:  cpu time      0.2995: real time      0.3011
    SETDIJ:  cpu time      0.1926: real time      0.1934
     EDDAV:  cpu time      0.4473: real time      0.4498
       DOS:  cpu time      0.0001: real time      0.0001
    CHARGE:  cpu time      0.1981: real time      0.1989
    MIXING:  cpu time      0.0091: real time      0.0091
    --------------------------------------------
      LOOP:  cpu time      1.1467: real time      1.1525

 eigenvalue-minimisations  :    72
 total energy-change (2. order) :-0.1344981E-02  (-0.1341398E-04)
 number of electron      22.0000000 magnetization 
 augmentation part        0.4979591 magnetization 

 Broyden mixing:
  rms(total) = 0.58808E-03    rms(broyden)= 0.58794E-03
  rms(prec ) = 0.92121E-03
  weight for this iteration     100.00

 eigenvalues of (default mixing * dielectric matrix)
  average eigenvalue GAMMA=   2.3919
  8.0144  4.6512  2.7880  2.3897  1.9057  1.3261  1.3261  1.0013  1.0013  0.9226
  0.9843

 Free energy of the ion-electron system (eV)
  ---------------------------------------------------
  alpha Z        PSCENC =         0.62641250
  Ewald energy   TEWEN  =       874.61723319
  -Hartree energ DENC   =     -1405.83701229
  -exchange      EXHF   =         0.00000000
  -V(xc)+E(xc)   XCENC  =        72.86961506
  PAW double counting   =       302.23933084     -307.57537272
  entropy T*S    EENTRO =        -0.00000000
  eigenvalues    EBANDS =      -257.09861162
  atomic energy  EATOM  =       663.51739852
  Solvation  Ediel_sol  =         0.00000000
  ---------------------------------------------------
  free energy    TOTEN  =       -56.64100651 eV

  energy without entropy =      -56.64100651  energy(sigma->0) =      -56.64100651


--------------------------------------------------------------------------------------------------------




--------------------------------------- Iteration      1(  17)  ---------------------------------------


    POTLOK:  cpu time      0.2960: real time      0.2976
    SETDIJ:  cpu time      0.1904: real time      0.1912
     EDDAV:  cpu time      0.4497: real time      0.4521
       DOS:  cpu time      0.0001: real time      0.0001
    CHARGE:  cpu time      0.1994: real time      0.2002
    MIXING:  cpu time      0.0096: real time      0.0096
    --------------------------------------------
      LOOP:  cpu time      1.1451: real time      1.1508

 eigenvalue-minimisations  :    72
 total energy-change (2. order) :-0.4240029E-03  (-0.2817890E-05)
 number of electron      22.0000000 magnetization 
 augmentation part        0.4979277 magnetization 

 Broyden mixing:
  rms(total) = 0.31369E-03    rms(broyden)= 0.31363E-03
  rms(prec ) = 0.51136E-03
  weight for this iteration     100.00

 eigenvalues of (default mixing * dielectric matrix)
  average eigenvalue GAMMA=   2.4672
  8.5113  5.0923  3.0930  2.5846  1.9079  1.9079  1.2984  1.2984  1.0033  1.0033
  0.9181  0.9884

 Free energy of the ion-electron system (eV)
  ---------------------------------------------------
  alpha Z        PSCENC =         0.62641250
  Ewald energy   TEWEN  =       874.61723319
  -Hartree energ DENC   =     -1405.85885986
  -exchange      EXHF   =         0.00000000
  -V(xc)+E(xc)   XCENC  =        72.86906397
  PAW double counting   =       302.21972119     -307.55612466
  entropy T*S    EENTRO =        -0.00000000
  eigenvalues    EBANDS =      -257.07627539
  atomic energy  EATOM  =       663.51739852
  Solvation  Ediel_sol  =         0.00000000
  ---------------------------------------------------
  free energy    TOTEN  =       -56.64143052 eV

  energy without entropy =      -56.64143052  energy(sigma->0) =      -56.64143052


--------------------------------------------------------------------------------------------------------




--------------------------------------- Iteration      1(  18)  ---------------------------------------


    POTLOK:  cpu time      0.2958: real time      0.2974
    SETDIJ:  cpu time      0.1892: real time      0.1900
     EDDAV:  cpu time      0.3632: real time      0.3652
       DOS:  cpu time      0.0001: real time      0.0001
    CHARGE:  cpu time      0.1965: real time      0.1973
    MIXING:  cpu time      0.0096: real time      0.0096
    --------------------------------------------
      LOOP:  cpu time      1.0544: real time      1.0597

 eigenvalue-minimisations  :    56
 total energy-change (2. order) :-0.2019727E-03  (-0.8995546E-06)
 number of electron      22.0000000 magnetization 
 augmentation part        0.4979374 magnetization 

 Broyden mixing:
  rms(total) = 0.15106E-03    rms(broyden)= 0.15098E-03
  rms(prec ) = 0.24776E-03
  weight for this iteration     100.00

 eigenvalues of (default mixing * dielectric matrix)
  average eigenvalue GAMMA=   2.4400
  8.6002  5.3693  3.3852  2.4401  2.4401  1.8730  1.2910  1.2910  1.0038  1.0038
  1.1302  0.9120  0.9802

 Free energy of the ion-electron system (eV)
  ---------------------------------------------------
  alpha Z        PSCENC =         0.62641250
  Ewald energy   TEWEN  =       874.61723319
  -Hartree energ DENC   =     -1405.84670572
  -exchange      EXHF   =         0.00000000
  -V(xc)+E(xc)   XCENC  =        72.86811036
  PAW double counting   =       302.19599782     -307.53229154
  entropy T*S    EENTRO =        -0.00000000
  eigenvalues    EBANDS =      -257.08778762
  atomic energy  EATOM  =       663.51739852
  Solvation  Ediel_sol  =         0.00000000
  ---------------------------------------------------
  free energy    TOTEN  =       -56.64163249 eV

  energy without entropy =      -56.64163249  energy(sigma->0) =      -56.64163249


--------------------------------------------------------------------------------------------------------




--------------------------------------- Iteration      1(  19)  ---------------------------------------


    POTLOK:  cpu time      0.2983: real time      0.3000
    SETDIJ:  cpu time      0.1896: real time      0.1905
     EDDAV:  cpu time      0.4078: real time      0.4100
       DOS:  cpu time      0.0001: real time      0.0001
    CHARGE:  cpu time      0.1985: real time      0.1994
    MIXING:  cpu time      0.0098: real time      0.0099
    --------------------------------------------
      LOOP:  cpu time      1.1042: real time      1.1099

 eigenvalue-minimisations  :    64
 total energy-change (2. order) :-0.5342304E-04  (-0.1177673E-06)
 number of electron      22.0000000 magnetization 
 augmentation part        0.4979364 magnetization 

 Broyden mixing:
  rms(total) = 0.84320E-04    rms(broyden)= 0.84237E-04
  rms(prec ) = 0.14204E-03
  weight for this iteration     100.00

 eigenvalues of (default mixing * dielectric matrix)
  average eigenvalue GAMMA=   2.5209
  8.8839  5.7648  4.0282  2.8179  2.4258  1.9122  1.9122  1.2789  1.2789  1.0018
  1.0018  0.9152  1.0667  1.0048

 Free energy of the ion-electron system (eV)
  ---------------------------------------------------
  alpha Z        PSCENC =         0.62641250
  Ewald energy   TEWEN  =       874.61723319
  -Hartree energ DENC   =     -1405.86060899
  -exchange      EXHF   =         0.00000000
  -V(xc)+E(xc)   XCENC  =        72.86860542
  PAW double counting   =       302.20930707     -307.54559426
  entropy T*S    EENTRO =        -0.00000000
  eigenvalues    EBANDS =      -257.07443937
  atomic energy  EATOM  =       663.51739852
  Solvation  Ediel_sol  =         0.00000000
  ---------------------------------------------------
  free energy    TOTEN  =       -56.64168591 eV

  energy without entropy =      -56.64168591  energy(sigma->0) =      -56.64168591


--------------------------------------------------------------------------------------------------------




--------------------------------------- Iteration      1(  20)  ---------------------------------------


    POTLOK:  cpu time      0.3048: real time      0.3064
    SETDIJ:  cpu time      0.1907: real time      0.1915
     EDDAV:  cpu time      0.4069: real time      0.4092
       DOS:  cpu time      0.0001: real time      0.0001
    CHARGE:  cpu time      0.1992: real time      0.2001
    MIXING:  cpu time      0.0107: real time      0.0107
    --------------------------------------------
      LOOP:  cpu time      1.1124: real time      1.1181

 eigenvalue-minimisations  :    64
 total energy-change (2. order) :-0.3255824E-04  (-0.4807409E-07)
 number of electron      22.0000000 magnetization 
 augmentation part        0.4979345 magnetization 

 Broyden mixing:
  rms(total) = 0.41381E-04    rms(broyden)= 0.41219E-04
  rms(prec ) = 0.66005E-04
  weight for this iteration     100.00

 eigenvalues of (default mixing * dielectric matrix)
  average eigenvalue GAMMA=   2.4803
  8.9402  5.9140  4.2449  2.8685  2.3114  2.3114  1.8704  1.4030  1.2114  1.2114
  1.0006  1.0006  0.9163  1.0003  1.0003

 Free energy of the ion-electron system (eV)
  ---------------------------------------------------
  alpha Z        PSCENC =         0.62641250
  Ewald energy   TEWEN  =       874.61723319
  -Hartree energ DENC   =     -1405.86470217
  -exchange      EXHF   =         0.00000000
  -V(xc)+E(xc)   XCENC  =        72.86852697
  PAW double counting   =       302.21151387     -307.54785047
  entropy T*S    EENTRO =        -0.00000000
  eigenvalues    EBANDS =      -257.07025089
  atomic energy  EATOM  =       663.51739852
  Solvation  Ediel_sol  =         0.00000000
  ---------------------------------------------------
  free energy    TOTEN  =       -56.64171847 eV

  energy without entropy =      -56.64171847  energy(sigma->0) =      -56.64171847


--------------------------------------------------------------------------------------------------------




--------------------------------------- Iteration      1(  21)  ---------------------------------------


    POTLOK:  cpu time      0.3070: real time      0.3087
    SETDIJ:  cpu time      0.1900: real time      0.1908
     EDDAV:  cpu time      0.3654: real time      0.3674
       DOS:  cpu time      0.0001: real time      0.0001
    CHARGE:  cpu time      0.1984: real time      0.1993
    MIXING:  cpu time      0.0104: real time      0.0104
    --------------------------------------------
      LOOP:  cpu time      1.0714: real time      1.0767

 eigenvalue-minimisations  :    56
 total energy-change (2. order) :-0.7867089E-05  (-0.9444456E-08)
 number of electron      22.0000000 magnetization 
 augmentation part        0.4979363 magnetization 

 Broyden mixing:
  rms(total) = 0.21532E-04    rms(broyden)= 0.21231E-04
  rms(prec ) = 0.36948E-04
  weight for this iteration     100.00

 eigenvalues of (default mixing * dielectric matrix)
  average eigenvalue GAMMA=   2.5263
  8.9937  6.3224  4.6285  3.2426  2.5574  2.2909  1.9495  1.7812  1.3572  1.2062
  1.2062  0.9992  0.9992  0.9161  1.0007  0.9693

 Free energy of the ion-electron system (eV)
  ---------------------------------------------------
  alpha Z        PSCENC =         0.62641250
  Ewald energy   TEWEN  =       874.61723319
  -Hartree energ DENC   =     -1405.86342126
  -exchange      EXHF   =         0.00000000
  -V(xc)+E(xc)   XCENC  =        72.86843199
  PAW double counting   =       302.20808355     -307.54438635
  entropy T*S    EENTRO =        -0.00000000
  eigenvalues    EBANDS =      -257.07147847
  atomic energy  EATOM  =       663.51739852
  Solvation  Ediel_sol  =         0.00000000
  ---------------------------------------------------
  free energy    TOTEN  =       -56.64172634 eV

  energy without entropy =      -56.64172634  energy(sigma->0) =      -56.64172634


--------------------------------------------------------------------------------------------------------




--------------------------------------- Iteration      1(  22)  ---------------------------------------


    POTLOK:  cpu time      0.3066: real time      0.3083
    SETDIJ:  cpu time      0.1896: real time      0.1905
     EDDAV:  cpu time      0.4083: real time      0.4106
       DOS:  cpu time      0.0001: real time      0.0001
    CHARGE:  cpu time      0.1994: real time      0.2002
    MIXING:  cpu time      0.0112: real time      0.0113
    --------------------------------------------
      LOOP:  cpu time      1.1153: real time      1.1209

 eigenvalue-minimisations  :    64
 total energy-change (2. order) :-0.4501166E-05  (-0.7506918E-08)
 number of electron      22.0000000 magnetization 
 augmentation part        0.4979357 magnetization 

 Broyden mixing:
  rms(total) = 0.11340E-04    rms(broyden)= 0.10766E-04
  rms(prec ) = 0.19002E-04
  weight for this iteration     100.00

 eigenvalues of (default mixing * dielectric matrix)
  average eigenvalue GAMMA=   2.4796
  9.1256  6.4410  4.8336  3.2558  2.4707  2.4707  1.8099  1.6895  1.4861  1.2756
  1.2756  1.0000  1.0000  0.9169  1.1205  0.9911  0.9911

 Free energy of the ion-electron system (eV)
  ---------------------------------------------------
  alpha Z        PSCENC =         0.62641250
  Ewald energy   TEWEN  =       874.61723319
  -Hartree energ DENC   =     -1405.86468903
  -exchange      EXHF   =         0.00000000
  -V(xc)+E(xc)   XCENC  =        72.86846849
  PAW double counting   =       302.20958918     -307.54589666
  entropy T*S    EENTRO =        -0.00000000
  eigenvalues    EBANDS =      -257.07024704
  atomic energy  EATOM  =       663.51739852
  Solvation  Ediel_sol  =         0.00000000
  ---------------------------------------------------
  free energy    TOTEN  =       -56.64173084 eV

  energy without entropy =      -56.64173084  energy(sigma->0) =      -56.64173084


--------------------------------------------------------------------------------------------------------




--------------------------------------- Iteration      1(  23)  ---------------------------------------


    POTLOK:  cpu time      0.3071: real time      0.3087
    SETDIJ:  cpu time      0.1896: real time      0.1904
     EDDAV:  cpu time      0.4063: real time      0.4085
       DOS:  cpu time      0.0001: real time      0.0001
    --------------------------------------------
      LOOP:  cpu time      0.9030: real time      0.9077

 eigenvalue-minimisations  :    64
 total energy-change (2. order) :-0.9850635E-06  (-0.9719319E-09)
 number of electron      22.0000000 magnetization 
 augmentation part        0.4979357 magnetization 

 Free energy of the ion-electron system (eV)
  ---------------------------------------------------
  alpha Z        PSCENC =         0.62641250
  Ewald energy   TEWEN  =       874.61723319
  -Hartree energ DENC   =     -1405.86492510
  -exchange      EXHF   =         0.00000000
  -V(xc)+E(xc)   XCENC  =        72.86846755
  PAW double counting   =       302.20940302     -307.54571418
  entropy T*S    EENTRO =        -0.00000000
  eigenvalues    EBANDS =      -257.07000733
  atomic energy  EATOM  =       663.51739852
  Solvation  Ediel_sol  =         0.00000000
  ---------------------------------------------------
  free energy    TOTEN  =       -56.64173182 eV

  energy without entropy =      -56.64173182  energy(sigma->0) =      -56.64173182


--------------------------------------------------------------------------------------------------------




 average (electrostatic) potential at core
  the test charge radii are     0.6991  0.5201
  (the norm of the test charge is              1.0000)
       1 -58.4636       2 -58.8366       3 -58.8504       4 -58.5056       5 -42.0718
       6 -42.1664       7 -41.7603       8 -42.0057       9 -41.7130      10 -42.0209
 
 
 
 E-fermi :  -5.7666     XC(G=0):  -0.4420     alpha+bet : -0.1681

 Fermi energy:        -5.7665810347

 k-point     1 :       0.0000    0.0000    0.0000
  band No.  band energies     occupation 
      1     -19.6734      2.00000
      2     -18.0776      2.00000
      3     -14.9687      2.00000
      4     -12.9026      2.00000
      5     -11.7446      2.00000
      6     -10.5152      2.00000
      7     -10.3799      2.00000
      8      -8.9303      2.00000
      9      -8.0370      2.00000
     10      -7.3094      2.00000
     11      -5.9964      2.00000
     12      -1.6113      0.00000
     13      -0.4329      0.00000
     14       0.0053      0.00000
     15       0.1276      0.00000
     16       0.2361      0.00000
     17       0.3950      0.00000
     18       0.4367      0.00000
     19       0.5533      0.00000
     20       0.7117      0.00000
     21       0.8919      0.00000
     22       0.9397      0.00000
     23       1.0118      0.00000
     24       1.1102      0.00000


--------------------------------------------------------------------------------------------------------


 soft charge-density along one line, spin component           1
         0         1         2         3         4         5         6         7         8         9
 total charge-density along one line
 
 pseudopotential strength for first ion, spin component:           1
 10.250   0.020   0.001  -0.001  -0.000   0.001  -0.001   0.001
  0.020  -0.001  -0.000   0.000  -0.000   0.000  -0.000   0.000
  0.001  -0.000  -4.360   0.003  -0.010  -0.019   0.001  -0.002
 -0.001   0.000   0.003  -4.360   0.003   0.001  -0.019   0.001
 -0.000  -0.000  -0.010   0.003  -4.344  -0.002   0.001  -0.015
  0.001   0.000  -0.019   0.001  -0.002  -0.773   0.000  -0.000
 -0.001  -0.000   0.001  -0.019   0.001   0.000  -0.773   0.000
  0.001   0.000  -0.002   0.001  -0.015  -0.000   0.000  -0.772
 total augmentation occupancy for first ion, spin component:           1
  1.496  -1.143  -0.029   0.028  -0.008  -0.019   0.017  -0.008
 -1.143   0.959   0.085  -0.076   0.040   0.038  -0.032   0.018
 -0.029   0.085   1.201  -0.033   0.141   0.203  -0.013   0.052
  0.028  -0.076  -0.033   1.223  -0.024  -0.013   0.212  -0.014
 -0.008   0.040   0.141  -0.024   0.977   0.052  -0.014   0.117
 -0.019   0.038   0.203  -0.013   0.052   0.037  -0.005   0.013
  0.017  -0.032  -0.013   0.212  -0.014  -0.005   0.039  -0.004
 -0.008   0.018   0.052  -0.014   0.117   0.013  -0.004   0.016


------------------------ aborting loop because EDIFF is reached ----------------------------------------


    CHARGE:  cpu time      0.1997: real time      0.2005
    FORLOC:  cpu time      0.0290: real time      0.0291
    FORNL :  cpu time      1.0684: real time      1.0736
    STRESS:  cpu time      3.3906: real time      3.4069
    FORHAR:  cpu time      0.1087: real time      0.1092
    MIXING:  cpu time      0.0110: real time      0.0111
    OFIELD:  cpu time      0.0001: real time      0.0001

  FORCE on cell =-STRESS in cart. coord.  units (eV):
  Direction    XX          YY          ZZ          XY          YZ          ZX
  --------------------------------------------------------------------------------------
  Alpha Z     0.62641     0.62641     0.62641
  Ewald    -128.60566   325.87219   677.35039    44.01929   -11.52654  -116.47098
  Hartree   234.75670   443.27613   727.83247    20.94036   -10.60609   -78.92773
  E(xc)     -77.73234   -76.01610   -75.79277     0.15283    -0.00413    -0.13542
  Local    -326.32344  -955.92674 -1593.27163   -61.72319    22.74021   193.65802
  n-local   -28.90621   -31.38958   -30.84699    -0.26777    -0.18261     0.00771
  augment    -0.54348    -0.71933    -0.69531    -0.01950    -0.00590     0.00701
  Kinetic   326.65883   294.05380   293.95867    -2.63313     0.53914     1.68670
  Fock        0.00000     0.00000     0.00000     0.00000     0.00000     0.00000
  -------------------------------------------------------------------------------------
  Total      -0.06918    -0.22322    -0.83875     0.46888     0.95408    -0.17470
  in kB      -0.03284    -0.10597    -0.39817     0.22259     0.45292    -0.08293
  external pressure =       -0.18 kB  Pullay stress =        0.00 kB


 VOLUME and BASIS-vectors are now :
 -----------------------------------------------------------------------------
  energy-cutoff  :      520.00
  volume of cell :     3375.00
      direct lattice vectors                 reciprocal lattice vectors
    15.000000000  0.000000000  0.000000000     0.066666667  0.000000000  0.000000000
     0.000000000 15.000000000  0.000000000     0.000000000  0.066666667  0.000000000
     0.000000000  0.000000000 15.000000000     0.000000000  0.000000000  0.066666667

  length of vectors
    15.000000000 15.000000000 15.000000000     0.066666667  0.066666667  0.066666667


 FORCES acting on ions
    electron-ion (+dipol)            ewald-force                    non-local-force                 convergence-correction
 -----------------------------------------------------------------------------------------------
   -.459E+02 -.852E+02 0.108E+03   0.464E+02 0.858E+02 -.109E+03   -.640E+00 -.803E+00 0.533E+00   -.371E-04 -.741E-04 0.552E-04
   0.351E+02 0.774E+02 0.412E+02   -.357E+02 -.781E+02 -.407E+02   0.285E+00 -.961E+00 0.112E+01   0.277E-04 0.361E-04 -.340E-05
   -.273E+02 0.894E+02 -.313E+02   0.284E+02 -.894E+02 0.305E+02   -.167E+01 -.587E-01 -.108E+01   0.547E-05 -.349E-05 -.841E-04
   0.477E+02 -.791E+02 -.113E+03   -.488E+02 0.804E+02 0.113E+03   0.161E+01 0.397E+00 -.252E+00   0.109E-04 -.281E-04 -.426E-04
   -.644E+01 -.239E+01 0.675E+02   0.648E+01 0.187E+01 -.738E+02   -.255E+00 0.552E+00 0.589E+01   -.194E-05 -.243E-05 0.303E-04
   -.285E+02 -.596E+02 -.653E+01   0.313E+02 0.655E+02 0.937E+01   -.226E+01 -.517E+01 -.242E+01   -.536E-05 -.964E-05 -.507E-06
   0.255E+02 0.563E+02 0.326E+02   -.271E+02 -.601E+02 -.348E+02   0.203E+01 0.440E+01 0.225E+01   0.955E-05 0.135E-04 0.109E-04
   -.126E+02 0.638E+02 -.274E+02   0.136E+02 -.687E+02 0.293E+02   -.935E+00 0.508E+01 -.208E+01   0.131E-05 -.671E-05 -.615E-05
   0.163E+02 -.615E+02 -.289E+01   -.173E+02 0.655E+02 0.159E+01   0.977E+00 -.500E+01 0.123E+01   0.606E-06 0.907E-05 -.725E-05
   -.227E+01 0.171E+01 -.678E+02   0.274E+01 -.276E+01 0.743E+02   -.670E+00 0.864E+00 -.584E+01   0.243E-05 -.415E-05 -.676E-05
 -----------------------------------------------------------------------------------------------
   0.152E+01 0.702E+00 0.645E+00   0.258E-13 0.711E-14 0.284E-13   -.153E+01 -.699E+00 -.641E+00   0.136E-04 -.700E-04 -.544E-04
 
 
 POSITION                                       TOTAL-FORCE (eV/Angst)
 -----------------------------------------------------------------------------------
      7.92500      7.98000      5.94200        -0.132701     -0.212748     -0.142428
      7.44200      7.00700      6.70200        -0.310426     -1.701179      1.657231
      7.47000      6.88600      8.23100        -0.573583     -0.069635     -1.907487
      7.10000      7.83400      9.08500         0.467653      1.602526      0.017968
      7.96200      7.88400      4.86900        -0.206398      0.033466     -0.436704
      8.32100      8.87500      6.35900         0.510734      0.782721      0.425234
      7.02600      6.08400      6.23000         0.364973      0.535027      0.101496
      7.66000      5.87600      8.62900         0.104122      0.207086     -0.229933
      6.88500      8.90100      8.80900        -0.020649     -0.988751     -0.066070
      7.21100      7.67300     10.14300        -0.203725     -0.188514      0.580694
 -----------------------------------------------------------------------------------
    total drift:                               -0.002729      0.003245      0.004138


--------------------------------------------------------------------------------------------------------



  FREE ENERGIE OF THE ION-ELECTRON SYSTEM (eV)
  ---------------------------------------------------
  free  energy   TOTEN  =       -56.64173182 eV

  energy  without entropy=      -56.64173182  energy(sigma->0) =      -56.64173182
 


--------------------------------------------------------------------------------------------------------


    POTLOK:  cpu time      0.5032: real time      0.5057


--------------------------------------------------------------------------------------------------------


 stress matrix after NEB project (eV)
     -0.06918      0.46888     -0.17470
      0.46888     -0.22322      0.95408
     -0.17470      0.95408     -0.83875
  FORCES: max atom, RMS     2.395159    1.257028
  FORCE total and by dimension    3.975071    1.907487
  Stress total and by dimension    1.754818    0.954081
     LOOP+:  cpu time     28.1866: real time     28.3289
    4ORBIT:  cpu time      0.0000: real time      0.0000

 total amount of memory used by VASP MPI-rank0   224789. kBytes
=======================================================================

   base      :      30000. kBytes
   nonlr-proj:       1265. kBytes
   fftplans  :     123538. kBytes
   grid      :      67787. kBytes
   one-center:         15. kBytes
   wavefun   :       2184. kBytes
 
  
  
 General timing and accounting informations for this job:
 ========================================================
  
                  Total CPU time used (sec):       34.776
                            User time (sec):       31.725
                          System time (sec):        3.051
                         Elapsed time (sec):       36.180
  
                   Maximum memory used (kb):      559056.
                   Average memory used (kb):          N/A
  
                          Minor page faults:       146375
                          Major page faults:         5434
                 Voluntary context switches:         3087
