 vasp.6.4.2 20Jul23 (build Apr 10 2024 13:39:58) complex                        
  
 executed on             LinuxIFC date 2024.05.18  10:26:08
 running   16 mpi-ranks, on    1 nodes
 distrk:  each k-point on   16 cores,    1 groups
 distr:  one band on NCORE=   2 cores,    8 groups


--------------------------------------------------------------------------------------------------------


 INCAR:
   ISTART = 0
   ISPIN = 1
   LREAL = Auto
   ENCUT = 520
   NPAR = 8
   LPLANE = .TRUE.
   LSCALU = .FALSE.
   NSIM = 4
   LWAVE = .FALSE.
   LCHARG = .FALSE.
   ADDGRID = .TRUE.
   LASPH = .TRUE.
   PREC = Accurate
   ISMEAR = 0
   SIGMA = 0.05
   EDIFF = 1E-06
   NSW = 0
   TEBEG = 300
   TEEND = 700     	
   ISYM = 0
   NWRITE = 2

 POTCAR:   PAW_PBE C 08Apr2002                    
 POTCAR:   PAW_PBE H 15Jun2001                    
 POTCAR:   PAW_PBE C 08Apr2002                    
   VRHFIN =C: s2p2                                                                                  
   LEXCH  = PE                                                                                      
   EATOM  =   147.1560 eV,   10.8157 Ry                                                             
                                                                                                    
   TITEL  = PAW_PBE C 08Apr2002                                                                     
   LULTRA =        F    use ultrasoft PP ?                                                          
   IUNSCR =        0    unscreen: 0-lin 1-nonlin 2-no                                               
   RPACOR =     .000    partial core radius                                                         
   POMASS =   12.011; ZVAL   =    4.000    mass and valenz                                          
   RCORE  =    1.500    outmost cutoff radius                                                       
   RWIGS  =    1.630; RWIGS  =     .863    wigner-seitz radius (au A)                               
   ENMAX  =  400.000; ENMIN  =  300.000 eV                                                          
   ICORE  =        2    local potential                                                             
   LCOR   =        T    correct aug charges                                                         
   LPAW   =        T    paw PP                                                                      
   EAUG   =  644.873                                                                                
   DEXC   =     .000                                                                                
   RMAX   =    2.266    core radius for proj-oper                                                   
   RAUG   =    1.300    factor for augmentation sphere                                              
   RDEP   =    1.501    radius for radial grids                                                     
   RDEPT  =    1.300    core radius for aug-charge                                                  
   QCUT   =   -5.516; QGAM   =   11.032    optimization parameters                                  
                                                                                                    
   Description                                                                                      
     l     E      TYP  RCUT    TYP  RCUT                                                            
     0   .000     23  1.200                                                                         
     0   .000     23  1.200                                                                         
     1   .000     23  1.500                                                                         
     1  2.500     23  1.500                                                                         
     2   .000      7  1.500                                                                         
  local pseudopotential read in
  atomic valenz-charges read in
  non local Contribution for L=           0  read in
    real space projection operators read in
  non local Contribution for L=           0  read in
    real space projection operators read in
  non local Contribution for L=           1  read in
    real space projection operators read in
  non local Contribution for L=           1  read in
    real space projection operators read in
    PAW grid and wavefunctions read in
 
   number of l-projection  operators is LMAX  =           4
   number of lm-projection operators is LMMAX =           8
 
 POTCAR:   PAW_PBE H 15Jun2001                    
   VRHFIN =H: ultrasoft test                                                                        
   LEXCH  = PE                                                                                      
   EATOM  =    12.4884 eV,     .9179 Ry                                                             
                                                                                                    
   TITEL  = PAW_PBE H 15Jun2001                                                                     
   LULTRA =        F    use ultrasoft PP ?                                                          
   IUNSCR =        0    unscreen: 0-lin 1-nonlin 2-no                                               
   RPACOR =     .000    partial core radius                                                         
   POMASS =    1.000; ZVAL   =    1.000    mass and valenz                                          
   RCORE  =    1.100    outmost cutoff radius                                                       
   RWIGS  =     .700; RWIGS  =     .370    wigner-seitz radius (au A)                               
   ENMAX  =  250.000; ENMIN  =  200.000 eV                                                          
   RCLOC  =     .701    cutoff for local pot                                                        
   LCOR   =        T    correct aug charges                                                         
   LPAW   =        T    paw PP                                                                      
   EAUG   =  400.000                                                                                
   RMAX   =    2.174    core radius for proj-oper                                                   
   RAUG   =    1.200    factor for augmentation sphere                                              
   RDEP   =    1.112    radius for radial grids                                                     
   QCUT   =   -5.749; QGAM   =   11.498    optimization parameters                                  
                                                                                                    
   Description                                                                                      
     l     E      TYP  RCUT    TYP  RCUT                                                            
     0   .000     23  1.100                                                                         
     0   .500     23  1.100                                                                         
     1  -.300     23  1.100                                                                         
  local pseudopotential read in
  atomic valenz-charges read in
  non local Contribution for L=           0  read in
    real space projection operators read in
  non local Contribution for L=           0  read in
    real space projection operators read in
  non local Contribution for L=           1  read in
    real space projection operators read in
    PAW grid and wavefunctions read in
 
   number of l-projection  operators is LMAX  =           3
   number of lm-projection operators is LMMAX =           5
 
 Optimization of the real space projectors (new method)

 maximal supplied QI-value         = 25.13
 optimisation between [QCUT,QGAM] = [ 11.56, 23.12] = [ 37.43,149.72] Ry 
 Optimized for a Real-space Cutoff    1.04 Angstroem

   l    n(q)    QCUT    max X(q) W(low)/X(q) W(high)/X(q)  e(spline) 
   0      7    11.561     5.582    0.47E-04    0.94E-04    0.17E-07
   0      7    11.561    69.432    0.20E-03    0.59E-03    0.21E-06
   1      7    11.561     2.780    0.24E-04    0.70E-04    0.44E-07
   1      7    11.561     4.549    0.18E-03    0.25E-03    0.12E-06
 Optimization of the real space projectors (new method)

 maximal supplied QI-value         = 34.20
 optimisation between [QCUT,QGAM] = [ 11.63, 23.26] = [ 37.87,151.49] Ry 
 Optimized for a Real-space Cutoff    1.21 Angstroem

   l    n(q)    QCUT    max X(q) W(low)/X(q) W(high)/X(q)  e(spline) 
   0      8    11.629     4.436    0.19E-04    0.32E-04    0.47E-07
   0      8    11.629    16.131    0.16E-03    0.33E-03    0.21E-06
   1      8    11.629     4.654    0.18E-03    0.16E-03    0.26E-06
 PAW_PBE C 08Apr2002                    :
 energy of atom  1       EATOM= -147.1560
 kinetic energy error for atom=    0.0071 (will be added to EATOM!!)
 PAW_PBE H 15Jun2001                    :
 energy of atom  2       EATOM=  -12.4884
 kinetic energy error for atom=    0.0014 (will be added to EATOM!!)
 
 
 POSCAR:  C  H
  positions in cartesian coordinates
  No initial velocities read in
 exchange correlation table for  LEXCH =        8
   RHO(1)=    0.500       N(1)  =     2000
   RHO(2)=  100.500       N(2)  =     4000

 VTST: version 4.1, (05/19/21)

 CHAIN: initializing optimizer
 
 OPT: Using VASP Dynamics algorithm
 CHAIN: Read ICHAIN            0
 
 POSCAR:  C  H
  positions in cartesian coordinates
  No initial velocities read in
 


--------------------------------------------------------------------------------------------------------


 ion  position               nearest neighbor table
   1  0.524  0.475  0.418-   6 1.05   5 1.14   2 1.28
   2  0.495  0.547  0.453-   7 1.11   1 1.28   3 1.43
   3  0.496  0.548  0.549-   8 1.09   4 1.39   2 1.43
   4  0.483  0.464  0.583-  10 1.05   9 1.08   3 1.39
   5  0.522  0.464  0.342-   1 1.14
   6  0.557  0.426  0.457-   1 1.05
   7  0.466  0.603  0.415-   2 1.11
   8  0.514  0.608  0.586-   3 1.09
   9  0.455  0.411  0.544-   4 1.08
  10  0.488  0.453  0.652-   4 1.05
 

IMPORTANT INFORMATION: All symmetrisations will be switched off!
NOSYMM: (Re-)initialisation of all symmetry stuff for point group C_1.


----------------------------------------------------------------------------------------

                                     Primitive cell                                     

  volume of cell :    3375.0000

  direct lattice vectors                    reciprocal lattice vectors
    15.000000000  0.000000000  0.000000000     0.066666667  0.000000000  0.000000000
     0.000000000 15.000000000  0.000000000     0.000000000  0.066666667  0.000000000
     0.000000000  0.000000000 15.000000000     0.000000000  0.000000000  0.066666667

  length of vectors
    15.000000000 15.000000000 15.000000000     0.066666667  0.066666667  0.066666667

  position of ions in fractional coordinates (direct lattice)
     0.524400012  0.474866676  0.417666658
     0.495000013  0.546799978  0.453466670
     0.496400007  0.548466682  0.548600006
     0.482599990  0.463933341  0.583333333
     0.521866671  0.463666662  0.342466672
     0.557133357  0.426466656  0.456533337
     0.466266664  0.603466670  0.415200011
     0.513933341  0.608466657  0.586266645
     0.454599984  0.410800012  0.544200007
     0.487733332  0.453000005  0.652266693

  ion indices of the primitive-cell ions
   primitive index   ion index
                 1           1
                 2           2
                 3           3
                 4           4
                 5           5
                 6           6
                 7           7
                 8           8
                 9           9
                10          10

----------------------------------------------------------------------------------------

 
 
 KPOINTS: K-Spacing Value to Generate K-Mesh: 1.00

Automatic generation of k-mesh.
 Grid dimensions read from file:
 generate k-points for:    1    1    1

 Generating k-lattice:

  Cartesian coordinates                     Fractional coordinates (reciprocal lattice)
     0.066666667  0.000000000  0.000000000     1.000000000  0.000000000  0.000000000
     0.000000000  0.066666667  0.000000000     0.000000000  1.000000000  0.000000000
     0.000000000  0.000000000  0.066666667     0.000000000  0.000000000  1.000000000

  Length of vectors
     0.066666667  0.066666667  0.066666667

  Shift w.r.t. Gamma in fractional coordinates (k-lattice)
     0.000000000  0.000000000  0.000000000

 
 Subroutine IBZKPT returns following result:
 ===========================================
 
 Found      1 irreducible k-points:
 
 Following reciprocal coordinates:
            Coordinates               Weight
  0.000000  0.000000  0.000000      1.000000
 
 Following cartesian coordinates:
            Coordinates               Weight
  0.000000  0.000000  0.000000      1.000000
 


--------------------------------------------------------------------------------------------------------




 Dimension of arrays:
   k-points           NKPTS =      1   k-points in BZ     NKDIM =      1   number of bands    NBANDS=     24
   number of dos      NEDOS =    301   number of ions     NIONS =     10
   non local maximal  LDIM  =      4   non local SUM 2l+1 LMDIM =      8
   total plane-waves  NPLWV = ******
   max r-space proj   IRMAX =   3145   max aug-charges    IRDMAX=  39494
   dimension x,y,z NGX =   112 NGY =  112 NGZ =  112
   dimension x,y,z NGXF=   224 NGYF=  224 NGZF=  224
   support grid    NGXF=   448 NGYF=  448 NGZF=  448
   ions per type =               4   6
   NGX,Y,Z   is equivalent  to a cutoff of  12.41, 12.41, 12.41 a.u.
   NGXF,Y,Z  is equivalent  to a cutoff of  24.83, 24.83, 24.83 a.u.

 SYSTEM =  unknown system                          
 POSCAR =   C  H                                   

 Startparameter for this run:
   NWRITE =      2    write-flag & timer
   PREC   = accura    normal or accurate (medium, high low for compatibility)
   ISTART =      0    job   : 0-new  1-cont  2-samecut
   ICHARG =      2    charge: 1-file 2-atom 10-const
   ISPIN  =      1    spin polarized calculation?
   LNONCOLLINEAR =      F non collinear calculations
   LSORBIT =      F    spin-orbit coupling
   INIWAV =      1    electr: 0-lowe 1-rand  2-diag
   LASPH  =      T    aspherical Exc in radial PAW
 Electronic Relaxation 1
   ENCUT  =  520.0 eV  38.22 Ry    6.18 a.u.  27.89 27.89 27.89*2*pi/ulx,y,z
   ENINI  =  520.0     initial cutoff
   ENAUG  =  644.9 eV  augmentation charge cutoff
   NELM   =     60;   NELMIN=  2; NELMDL= -5     # of ELM steps 
   EDIFF  = 0.1E-05   stopping-criterion for ELM
   LREAL  =      T    real-space projection
   NLSPLINE    = F    spline interpolate recip. space projectors
   LCOMPAT=      F    compatible to vasp.4.4
   GGA_COMPAT  = T    GGA compatible to vasp.4.4-vasp.4.6
   LMAXPAW     = -100 max onsite density
   LMAXMIX     =    2 max onsite mixed and CHGCAR
   VOSKOWN=      0    Vosko Wilk Nusair interpolation
   ROPT   =   -0.00025  -0.00025
 Ionic relaxation
   EDIFFG = 0.1E-04   stopping-criterion for IOM
   NSW    =      0    number of steps for IOM
   NBLOCK =      1;   KBLOCK =      1    inner block; outer block 
   IBRION =     -1    ionic relax: 0-MD 1-quasi-New 2-CG
   NFREE  =      0    steps in history (QN), initial steepest desc. (CG)
   ISIF   =      2    stress and relaxation
   IWAVPR =     10    prediction:  0-non 1-charg 2-wave 3-comb
   ISYM   =      0    0-nonsym 1-usesym 2-fastsym
   LCORR  =      T    Harris-Foulkes like correction to forces

   POTIM  = 0.5000    time-step for ionic-motion
   TEIN   =    0.0    initial temperature
   TEBEG  =  300.0;   TEEND  = 700.0 temperature during run
   SMASS  =  -3.00    Nose mass-parameter (am)
   estimated Nose-frequenzy (Omega)   =  0.10E-29 period in steps = 0.13E+47 mass=  -0.514E-26a.u.
   SCALEE = 1.0000    scale energy and forces
   NPACO  =    256;   APACO  = 10.0  distance and # of slots for P.C.
   PSTRESS=    0.0 pullay stress

  Mass of Ions in am
   POMASS =  12.01  1.00
  Ionic Valenz
   ZVAL   =   4.00  1.00
  Atomic Wigner-Seitz radii
   RWIGS  =  -1.00 -1.00
  virtual crystal weights 
   VCA    =   1.00  1.00
   NELECT =      22.0000    total number of electrons
   NUPDOWN=      -1.0000    fix difference up-down

 DOS related values:
   EMIN   =  10.00;   EMAX   =-10.00  energy-range for DOS
   EFERMI =   0.00;   METHOD = LEGACY      
   ISMEAR =     0;   SIGMA  =   0.05  broadening in eV -4-tet -1-fermi 0-gaus

 Electronic relaxation 2 (details)
   IALGO  =     38    algorithm
   LDIAG  =      T    sub-space diagonalisation (order eigenvalues)
   LSUBROT=      F    optimize rotation matrix (better conditioning)
   TURBO    =      0    0=normal 1=particle mesh
   IRESTART =      0    0=no restart 2=restart with 2 vectors
   NREBOOT  =      0    no. of reboots
   NMIN     =      0    reboot dimension
   EREF     =   0.00    reference energy to select bands
   IMIX   =      4    mixing-type and parameters
     AMIX     =   0.40;   BMIX     =  1.00
     AMIX_MAG =   1.60;   BMIX_MAG =  1.00
     AMIN     =   0.10
     WC   =   100.;   INIMIX=   1;  MIXPRE=   1;  MAXMIX= -45

 Intra band minimization:
   WEIMIN = 0.0000     energy-eigenvalue tresh-hold
   EBREAK =  0.10E-07  absolut break condition
   DEPER  =   0.30     relativ break condition  

   TIME   =   0.40     timestep for ELM

  volume/ion in A,a.u.               =     337.50      2277.56
  Fermi-wavevector in a.u.,A,eV,Ry     =   0.305814  0.577905  1.272449  0.093522
  Thomas-Fermi vector in A             =   1.179187
 
 Write flags
   LWAVE        =      F    write WAVECAR
   LDOWNSAMPLE  =      F    k-point downsampling of WAVECAR
   LCHARG       =      F    write CHGCAR
   LVTOT        =      F    write LOCPOT, total local potential
   LVHAR        =      F    write LOCPOT, Hartree potential only
   LELF         =      F    write electronic localiz. function (ELF)
   LORBIT       =      0    0 simple, 1 ext, 2 COOP (PROOUT), +10 PAW based schemes


 Dipole corrections
   LMONO  =      F    monopole corrections only (constant potential shift)
   LDIPOL =      F    correct potential (dipole corrections)
   IDIPOL =      0    1-x, 2-y, 3-z, 4-all directions 
   EPSILON=  1.0000000 bulk dielectric constant

 Exchange correlation treatment:
   GGA     =    --    GGA type
   LEXCH   =     8    internal setting for exchange type
   LIBXC   =     F    Libxc                    
   VOSKOWN =     0    Vosko Wilk Nusair interpolation
   LHFCALC =     F    Hartree Fock is set to
   LHFONE  =     F    Hartree Fock one center treatment
   AEXX    =    0.0000 exact exchange contribution

 Linear response parameters
   LEPSILON=     F    determine dielectric tensor
   LRPA    =     F    only Hartree local field effects (RPA)
   LNABLA  =     F    use nabla operator in PAW spheres
   LVEL    =     F    velocity operator in full k-point grid
   CSHIFT  =0.1000    complex shift for real part using Kramers Kronig
   OMEGAMAX=  -1.0    maximum frequency
   DEG_THRESHOLD= 0.2000000E-02 threshold for treating states as degnerate
   RTIME   =   -0.100 relaxation time in fs
  (WPLASMAI=    0.000 imaginary part of plasma frequency in eV, 0.658/RTIME)
   DFIELD  = 0.0000000 0.0000000 0.0000000 field for delta impulse in time
 
  Optional k-point grid parameters
   LKPOINTS_OPT  =     F    use optional k-point grid
   KPOINTS_OPT_MODE=     1    mode for optional k-point grid
 
 Orbital magnetization related:
   ORBITALMAG=     F  switch on orbital magnetization
   LCHIMAG   =     F  perturbation theory with respect to B field
   DQ        =  0.001000  dq finite difference perturbation B field
   LLRAUG    =     F  two centre corrections for induced B field
   LBONE     =     F  B-component reconstruction in AE one-centre
   LVGVCALC  =     T  calculate vGv susceptibility
   LVGVAPPL  =     F  apply vGv susceptibility instead of pGv for G=0

 Random number generation:
   RANDOM_GENERATOR = DEFAULT
   PCG_SEED         = not used


--------------------------------------------------------------------------------------------------------


 Static calculation
 charge density and potential will be updated during run
 non-spin polarized calculation
 Variant of blocked Davidson
 Davidson routine will perform the subspace rotation
 perform sub-space diagonalisation
    after iterative eigenvector-optimisation
 modified Broyden-mixing scheme, WC =      100.0
 initial mixing is a Kerker type mixing with AMIX =  0.4000 and BMIX =      1.0000
 Hartree-type preconditioning will be used
 using additional bands           13
 real space projection scheme for non local part
 calculate Harris-corrections to forces 
   (improved forces if not selfconsistent)
 use gradient corrections 
 use of overlap-Matrix (Vanderbilt PP)
 Gauss-broadening in eV      SIGMA  =   0.05


--------------------------------------------------------------------------------------------------------


  energy-cutoff  :      520.00
  volume of cell :     3375.00
      direct lattice vectors                 reciprocal lattice vectors
    15.000000000  0.000000000  0.000000000     0.066666667  0.000000000  0.000000000
     0.000000000 15.000000000  0.000000000     0.000000000  0.066666667  0.000000000
     0.000000000  0.000000000 15.000000000     0.000000000  0.000000000  0.066666667

  length of vectors
    15.000000000 15.000000000 15.000000000     0.066666667  0.066666667  0.066666667


 
 k-points in units of 2pi/SCALE and weight: K-Spacing Value to Generate K-Mesh: 1.00
   0.00000000  0.00000000  0.00000000       1.000
 
 k-points in reciprocal lattice and weights: K-Spacing Value to Generate K-Mesh: 1.00
   0.00000000  0.00000000  0.00000000       1.000
 
 position of ions in fractional coordinates (direct lattice) 
   0.52440001  0.47486668  0.41766666
   0.49500001  0.54679998  0.45346667
   0.49640001  0.54846668  0.54860001
   0.48259999  0.46393334  0.58333333
   0.52186667  0.46366666  0.34246667
   0.55713336  0.42646666  0.45653334
   0.46626666  0.60346667  0.41520001
   0.51393334  0.60846666  0.58626664
   0.45459998  0.41080001  0.54420001
   0.48773333  0.45300001  0.65226669
 
 position of ions in cartesian coordinates  (Angst):
   7.86600018  7.12300014  6.26499987
   7.42500019  8.20199966  6.80200005
   7.44600010  8.22700024  8.22900009
   7.23899984  6.95900011  8.75000000
   7.82800007  6.95499992  5.13700008
   8.35700035  6.39699984  6.84800005
   6.99399996  9.05200005  6.22800016
   7.70900011  9.12699986  8.79399967
   6.81899977  6.16200018  8.16300011
   7.31599998  6.79500008  9.78400040
 


--------------------------------------------------------------------------------------------------------


 k-point   1 :   0.0000 0.0000 0.0000  plane waves:   90879

 maximum and minimum number of plane-waves per node :     45467    45412

 maximum number of plane-waves:     90879
 maximum index in each direction: 
   IXMAX=   27   IYMAX=   27   IZMAX=   27
   IXMIN=  -27   IYMIN=  -27   IZMIN=  -27


 real space projection operators:
  total allocation   :       1184.70 KBytes
  max/ min on nodes  :        592.92        591.78


 parallel 3D FFT for wavefunctions:
    minimum data exchange during FFTs selected (reduces bandwidth)
 parallel 3D FFT for charge:
    minimum data exchange during FFTs selected (reduces bandwidth)


 total amount of memory used by VASP MPI-rank0   224782. kBytes
=======================================================================

   base      :      30000. kBytes
   nonlr-proj:       1258. kBytes
   fftplans  :     123538. kBytes
   grid      :      67787. kBytes
   one-center:         15. kBytes
   wavefun   :       2184. kBytes
 
     INWAV:  cpu time      0.0000: real time      0.0000
 Broyden mixing: mesh for mixing (old mesh)
   NGX = 55   NGY = 55   NGZ = 55
  (NGX  =224   NGY  =224   NGZ  =224)
  gives a total of 166375 points

 initial charge density was supplied:
 charge density of overlapping atoms calculated
 number of electron      22.0000000 magnetization 
 keeping initial charge density in first step


--------------------------------------------------------------------------------------------------------


 Maximum index for non-local projection operator         1519
 Maximum index for augmentation-charges         2471 (set IRDMAX)


--------------------------------------------------------------------------------------------------------


 First call to EWALD:  gamma=   0.118
 Maximum number of real-space cells 3x 3x 3
 Maximum number of reciprocal cells 3x 3x 3

    FEWALD:  cpu time      0.0012: real time      0.0012


--------------------------------------- Ionic step        1  -------------------------------------------




--------------------------------------- Iteration      1(   1)  ---------------------------------------


    POTLOK:  cpu time      0.3345: real time      0.3363
    SETDIJ:  cpu time      0.1935: real time      0.1943
     EDDAV:  cpu time      0.4211: real time      0.4235
       DOS:  cpu time      0.0002: real time      0.0002
    --------------------------------------------
      LOOP:  cpu time      0.9494: real time      0.9543

 eigenvalue-minimisations  :    64
 total energy-change (2. order) : 0.1085455E+03  (-0.5319685E+03)
 number of electron      22.0000000 magnetization 
 augmentation part       22.0000000 magnetization 

 Free energy of the ion-electron system (eV)
  ---------------------------------------------------
  alpha Z        PSCENC =         0.62641250
  Ewald energy   TEWEN  =       953.35639245
  -Hartree energ DENC   =     -1370.75793649
  -exchange      EXHF   =         0.00000000
  -V(xc)+E(xc)   XCENC  =        67.78016962
  PAW double counting   =       156.01372664     -160.66969168
  entropy T*S    EENTRO =        -0.00260709
  eigenvalues    EBANDS =      -201.31839100
  atomic energy  EATOM  =       663.51739852
  Solvation  Ediel_sol  =         0.00000000
  ---------------------------------------------------
  free energy    TOTEN  =       108.54547348 eV

  energy without entropy =      108.54808057  energy(sigma->0) =      108.54677703


--------------------------------------------------------------------------------------------------------




--------------------------------------- Iteration      1(   2)  ---------------------------------------


     EDDAV:  cpu time      0.4483: real time      0.4509
       DOS:  cpu time      0.0001: real time      0.0001
    --------------------------------------------
      LOOP:  cpu time      0.4485: real time      0.4510

 eigenvalue-minimisations  :    72
 total energy-change (2. order) :-0.1263311E+03  (-0.1240428E+03)
 number of electron      22.0000000 magnetization 
 augmentation part       22.0000000 magnetization 

 Free energy of the ion-electron system (eV)
  ---------------------------------------------------
  alpha Z        PSCENC =         0.62641250
  Ewald energy   TEWEN  =       953.35639245
  -Hartree energ DENC   =     -1370.75793649
  -exchange      EXHF   =         0.00000000
  -V(xc)+E(xc)   XCENC  =        67.78016962
  PAW double counting   =       156.01372664     -160.66969168
  entropy T*S    EENTRO =        -0.00000000
  eigenvalues    EBANDS =      -327.65211137
  atomic energy  EATOM  =       663.51739852
  Solvation  Ediel_sol  =         0.00000000
  ---------------------------------------------------
  free energy    TOTEN  =       -17.78563980 eV

  energy without entropy =      -17.78563980  energy(sigma->0) =      -17.78563980


--------------------------------------------------------------------------------------------------------




--------------------------------------- Iteration      1(   3)  ---------------------------------------


     EDDAV:  cpu time      0.4463: real time      0.4487
       DOS:  cpu time      0.0001: real time      0.0001
    --------------------------------------------
      LOOP:  cpu time      0.4464: real time      0.4488

 eigenvalue-minimisations  :    72
 total energy-change (2. order) :-0.4334510E+02  (-0.4328115E+02)
 number of electron      22.0000000 magnetization 
 augmentation part       22.0000000 magnetization 

 Free energy of the ion-electron system (eV)
  ---------------------------------------------------
  alpha Z        PSCENC =         0.62641250
  Ewald energy   TEWEN  =       953.35639245
  -Hartree energ DENC   =     -1370.75793649
  -exchange      EXHF   =         0.00000000
  -V(xc)+E(xc)   XCENC  =        67.78016962
  PAW double counting   =       156.01372664     -160.66969168
  entropy T*S    EENTRO =        -0.00000000
  eigenvalues    EBANDS =      -370.99721542
  atomic energy  EATOM  =       663.51739852
  Solvation  Ediel_sol  =         0.00000000
  ---------------------------------------------------
  free energy    TOTEN  =       -61.13074385 eV

  energy without entropy =      -61.13074385  energy(sigma->0) =      -61.13074385


--------------------------------------------------------------------------------------------------------




--------------------------------------- Iteration      1(   4)  ---------------------------------------


     EDDAV:  cpu time      0.4466: real time      0.4492
       DOS:  cpu time      0.0001: real time      0.0001
    --------------------------------------------
      LOOP:  cpu time      0.4468: real time      0.4493

 eigenvalue-minimisations  :    72
 total energy-change (2. order) :-0.2174798E+01  (-0.2171487E+01)
 number of electron      22.0000000 magnetization 
 augmentation part       22.0000000 magnetization 

 Free energy of the ion-electron system (eV)
  ---------------------------------------------------
  alpha Z        PSCENC =         0.62641250
  Ewald energy   TEWEN  =       953.35639245
  -Hartree energ DENC   =     -1370.75793649
  -exchange      EXHF   =         0.00000000
  -V(xc)+E(xc)   XCENC  =        67.78016962
  PAW double counting   =       156.01372664     -160.66969168
  entropy T*S    EENTRO =        -0.00000000
  eigenvalues    EBANDS =      -373.17201299
  atomic energy  EATOM  =       663.51739852
  Solvation  Ediel_sol  =         0.00000000
  ---------------------------------------------------
  free energy    TOTEN  =       -63.30554142 eV

  energy without entropy =      -63.30554142  energy(sigma->0) =      -63.30554142


--------------------------------------------------------------------------------------------------------




--------------------------------------- Iteration      1(   5)  ---------------------------------------


     EDDAV:  cpu time      0.4107: real time      0.4130
       DOS:  cpu time      0.0001: real time      0.0001
    CHARGE:  cpu time      0.2037: real time      0.2045
    MIXING:  cpu time      0.0076: real time      0.0076
    --------------------------------------------
      LOOP:  cpu time      0.6221: real time      0.6252

 eigenvalue-minimisations  :    64
 total energy-change (2. order) :-0.2238854E-01  (-0.2238482E-01)
 number of electron      22.0000000 magnetization 
 augmentation part        0.5978803 magnetization 

 Broyden mixing:
  rms(total) = 0.12414E+01    rms(broyden)= 0.12412E+01
  rms(prec ) = 0.14901E+01
  weight for this iteration     100.00

 Free energy of the ion-electron system (eV)
  ---------------------------------------------------
  alpha Z        PSCENC =         0.62641250
  Ewald energy   TEWEN  =       953.35639245
  -Hartree energ DENC   =     -1370.75793649
  -exchange      EXHF   =         0.00000000
  -V(xc)+E(xc)   XCENC  =        67.78016962
  PAW double counting   =       156.01372664     -160.66969168
  entropy T*S    EENTRO =        -0.00000000
  eigenvalues    EBANDS =      -373.19440152
  atomic energy  EATOM  =       663.51739852
  Solvation  Ediel_sol  =         0.00000000
  ---------------------------------------------------
  free energy    TOTEN  =       -63.32792995 eV

  energy without entropy =      -63.32792995  energy(sigma->0) =      -63.32792995


--------------------------------------------------------------------------------------------------------




--------------------------------------- Iteration      1(   6)  ---------------------------------------


    POTLOK:  cpu time      0.3067: real time      0.3084
    SETDIJ:  cpu time      0.1918: real time      0.1926
     EDDAV:  cpu time      0.4047: real time      0.4069
       DOS:  cpu time      0.0001: real time      0.0001
    CHARGE:  cpu time      0.1987: real time      0.1994
    MIXING:  cpu time      0.0096: real time      0.0096
    --------------------------------------------
      LOOP:  cpu time      1.1116: real time      1.1171

 eigenvalue-minimisations  :    64
 total energy-change (2. order) : 0.5754297E+01  (-0.8635021E+00)
 number of electron      22.0000000 magnetization 
 augmentation part        0.5473057 magnetization 

 Broyden mixing:
  rms(total) = 0.59413E+00    rms(broyden)= 0.59411E+00
  rms(prec ) = 0.70482E+00
  weight for this iteration     100.00

 eigenvalues of (default mixing * dielectric matrix)
  average eigenvalue GAMMA=   1.6168
  1.6168

 Free energy of the ion-electron system (eV)
  ---------------------------------------------------
  alpha Z        PSCENC =         0.62641250
  Ewald energy   TEWEN  =       953.35639245
  -Hartree energ DENC   =     -1420.53225039
  -exchange      EXHF   =         0.00000000
  -V(xc)+E(xc)   XCENC  =        70.26412778
  PAW double counting   =       235.01793832     -240.26838793
  entropy T*S    EENTRO =        -0.00000000
  eigenvalues    EBANDS =      -319.55526455
  atomic energy  EATOM  =       663.51739852
  Solvation  Ediel_sol  =         0.00000000
  ---------------------------------------------------
  free energy    TOTEN  =       -57.57363330 eV

  energy without entropy =      -57.57363330  energy(sigma->0) =      -57.57363330


--------------------------------------------------------------------------------------------------------




--------------------------------------- Iteration      1(   7)  ---------------------------------------


    POTLOK:  cpu time      0.3085: real time      0.3102
    SETDIJ:  cpu time      0.1934: real time      0.1943
     EDDAV:  cpu time      0.4101: real time      0.4125
       DOS:  cpu time      0.0002: real time      0.0002
    CHARGE:  cpu time      0.2016: real time      0.2024
    MIXING:  cpu time      0.0104: real time      0.0104
    --------------------------------------------
      LOOP:  cpu time      1.1242: real time      1.1299

 eigenvalue-minimisations  :    64
 total energy-change (2. order) : 0.1313844E+01  (-0.5001894E+00)
 number of electron      22.0000000 magnetization 
 augmentation part        0.5122813 magnetization 

 Broyden mixing:
  rms(total) = 0.23589E+00    rms(broyden)= 0.23582E+00
  rms(prec ) = 0.27040E+00
  weight for this iteration     100.00

 eigenvalues of (default mixing * dielectric matrix)
  average eigenvalue GAMMA=   1.8332
  1.8332  1.8332

 Free energy of the ion-electron system (eV)
  ---------------------------------------------------
  alpha Z        PSCENC =         0.62641250
  Ewald energy   TEWEN  =       953.35639245
  -Hartree energ DENC   =     -1460.84358341
  -exchange      EXHF   =         0.00000000
  -V(xc)+E(xc)   XCENC  =        72.51283321
  PAW double counting   =       302.77572139     -308.31219981
  entropy T*S    EENTRO =        -0.00000000
  eigenvalues    EBANDS =      -279.89276368
  atomic energy  EATOM  =       663.51739852
  Solvation  Ediel_sol  =         0.00000000
  ---------------------------------------------------
  free energy    TOTEN  =       -56.25978883 eV

  energy without entropy =      -56.25978883  energy(sigma->0) =      -56.25978883


--------------------------------------------------------------------------------------------------------




--------------------------------------- Iteration      1(   8)  ---------------------------------------


    POTLOK:  cpu time      0.3123: real time      0.3139
    SETDIJ:  cpu time      0.1928: real time      0.1937
     EDDAV:  cpu time      0.4098: real time      0.4119
       DOS:  cpu time      0.0001: real time      0.0001
    CHARGE:  cpu time      0.1989: real time      0.1997
    MIXING:  cpu time      0.0094: real time      0.0095
    --------------------------------------------
      LOOP:  cpu time      1.1233: real time      1.1288

 eigenvalue-minimisations  :    64
 total energy-change (2. order) : 0.1755400E+00  (-0.3488871E-01)
 number of electron      22.0000000 magnetization 
 augmentation part        0.5140001 magnetization 

 Broyden mixing:
  rms(total) = 0.54105E-01    rms(broyden)= 0.54097E-01
  rms(prec ) = 0.85323E-01
  weight for this iteration     100.00

 eigenvalues of (default mixing * dielectric matrix)
  average eigenvalue GAMMA=   1.6102
  2.3586  0.9011  1.5708

 Free energy of the ion-electron system (eV)
  ---------------------------------------------------
  alpha Z        PSCENC =         0.62641250
  Ewald energy   TEWEN  =       953.35639245
  -Hartree energ DENC   =     -1466.98719928
  -exchange      EXHF   =         0.00000000
  -V(xc)+E(xc)   XCENC  =        73.02698366
  PAW double counting   =       309.04971335     -314.44910100
  entropy T*S    EENTRO =        -0.00000000
  eigenvalues    EBANDS =      -274.22484907
  atomic energy  EATOM  =       663.51739852
  Solvation  Ediel_sol  =         0.00000000
  ---------------------------------------------------
  free energy    TOTEN  =       -56.08424886 eV

  energy without entropy =      -56.08424886  energy(sigma->0) =      -56.08424886


--------------------------------------------------------------------------------------------------------




--------------------------------------- Iteration      1(   9)  ---------------------------------------


    POTLOK:  cpu time      0.3133: real time      0.3151
    SETDIJ:  cpu time      0.1931: real time      0.1939
     EDDAV:  cpu time      0.4474: real time      0.4499
       DOS:  cpu time      0.0001: real time      0.0001
    CHARGE:  cpu time      0.2002: real time      0.2010
    MIXING:  cpu time      0.0081: real time      0.0082
    --------------------------------------------
      LOOP:  cpu time      1.1622: real time      1.1682

 eigenvalue-minimisations  :    72
 total energy-change (2. order) : 0.3474199E-01  (-0.6426999E-02)
 number of electron      22.0000000 magnetization 
 augmentation part        0.5111485 magnetization 

 Broyden mixing:
  rms(total) = 0.26365E-01    rms(broyden)= 0.26361E-01
  rms(prec ) = 0.50413E-01
  weight for this iteration     100.00

 eigenvalues of (default mixing * dielectric matrix)
  average eigenvalue GAMMA=   1.4370
  2.2614  1.5629  0.9617  0.9617

 Free energy of the ion-electron system (eV)
  ---------------------------------------------------
  alpha Z        PSCENC =         0.62641250
  Ewald energy   TEWEN  =       953.35639245
  -Hartree energ DENC   =     -1473.14592376
  -exchange      EXHF   =         0.00000000
  -V(xc)+E(xc)   XCENC  =        73.34297846
  PAW double counting   =       315.14852007     -320.54516855
  entropy T*S    EENTRO =        -0.00000000
  eigenvalues    EBANDS =      -268.35011655
  atomic energy  EATOM  =       663.51739852
  Solvation  Ediel_sol  =         0.00000000
  ---------------------------------------------------
  free energy    TOTEN  =       -56.04950687 eV

  energy without entropy =      -56.04950687  energy(sigma->0) =      -56.04950687


--------------------------------------------------------------------------------------------------------




--------------------------------------- Iteration      1(  10)  ---------------------------------------


    POTLOK:  cpu time      0.3145: real time      0.3163
    SETDIJ:  cpu time      0.1921: real time      0.1929
     EDDAV:  cpu time      0.3674: real time      0.3695
       DOS:  cpu time      0.0001: real time      0.0001
    CHARGE:  cpu time      0.1980: real time      0.1988
    MIXING:  cpu time      0.0107: real time      0.0107
    --------------------------------------------
      LOOP:  cpu time      1.0828: real time      1.0883

 eigenvalue-minimisations  :    56
 total energy-change (2. order) : 0.5951811E-02  (-0.2298531E-02)
 number of electron      22.0000000 magnetization 
 augmentation part        0.5090374 magnetization 

 Broyden mixing:
  rms(total) = 0.18446E-01    rms(broyden)= 0.18442E-01
  rms(prec ) = 0.36338E-01
  weight for this iteration     100.00

 eigenvalues of (default mixing * dielectric matrix)
  average eigenvalue GAMMA=   1.6114
  2.3800  2.3800  1.0230  1.0230  1.2513

 Free energy of the ion-electron system (eV)
  ---------------------------------------------------
  alpha Z        PSCENC =         0.62641250
  Ewald energy   TEWEN  =       953.35639245
  -Hartree energ DENC   =     -1476.15657024
  -exchange      EXHF   =         0.00000000
  -V(xc)+E(xc)   XCENC  =        73.40648078
  PAW double counting   =       315.08791134     -320.49415380
  entropy T*S    EENTRO =        -0.00000000
  eigenvalues    EBANDS =      -265.38742661
  atomic energy  EATOM  =       663.51739852
  Solvation  Ediel_sol  =         0.00000000
  ---------------------------------------------------
  free energy    TOTEN  =       -56.04355506 eV

  energy without entropy =      -56.04355506  energy(sigma->0) =      -56.04355506


--------------------------------------------------------------------------------------------------------




--------------------------------------- Iteration      1(  11)  ---------------------------------------


    POTLOK:  cpu time      0.3153: real time      0.3170
    SETDIJ:  cpu time      0.1917: real time      0.1925
     EDDAV:  cpu time      0.4084: real time      0.4108
       DOS:  cpu time      0.0001: real time      0.0001
    CHARGE:  cpu time      0.1952: real time      0.1960
    MIXING:  cpu time      0.0127: real time      0.0127
    --------------------------------------------
      LOOP:  cpu time      1.1233: real time      1.1290

 eigenvalue-minimisations  :    64
 total energy-change (2. order) : 0.9857447E-02  (-0.5860822E-03)
 number of electron      22.0000000 magnetization 
 augmentation part        0.5087709 magnetization 

 Broyden mixing:
  rms(total) = 0.79181E-02    rms(broyden)= 0.79177E-02
  rms(prec ) = 0.19301E-01
  weight for this iteration     100.00

 eigenvalues of (default mixing * dielectric matrix)
  average eigenvalue GAMMA=   1.7734
  3.4660  2.4674  1.5012  1.1046  1.0506  1.0506

 Free energy of the ion-electron system (eV)
  ---------------------------------------------------
  alpha Z        PSCENC =         0.62641250
  Ewald energy   TEWEN  =       953.35639245
  -Hartree energ DENC   =     -1479.97312189
  -exchange      EXHF   =         0.00000000
  -V(xc)+E(xc)   XCENC  =        73.50092048
  PAW double counting   =       313.64426634     -319.03372628
  entropy T*S    EENTRO =        -0.00000000
  eigenvalues    EBANDS =      -261.67223973
  atomic energy  EATOM  =       663.51739852
  Solvation  Ediel_sol  =         0.00000000
  ---------------------------------------------------
  free energy    TOTEN  =       -56.03369761 eV

  energy without entropy =      -56.03369761  energy(sigma->0) =      -56.03369761


--------------------------------------------------------------------------------------------------------




--------------------------------------- Iteration      1(  12)  ---------------------------------------


    POTLOK:  cpu time      0.3156: real time      0.3173
    SETDIJ:  cpu time      0.1915: real time      0.1924
     EDDAV:  cpu time      0.4071: real time      0.4094
       DOS:  cpu time      0.0001: real time      0.0001
    CHARGE:  cpu time      0.1992: real time      0.2000
    MIXING:  cpu time      0.0088: real time      0.0089
    --------------------------------------------
      LOOP:  cpu time      1.1224: real time      1.1281

 eigenvalue-minimisations  :    64
 total energy-change (2. order) : 0.8919986E-03  (-0.3216944E-03)
 number of electron      22.0000000 magnetization 
 augmentation part        0.5082980 magnetization 

 Broyden mixing:
  rms(total) = 0.57637E-02    rms(broyden)= 0.57635E-02
  rms(prec ) = 0.11468E-01
  weight for this iteration     100.00

 eigenvalues of (default mixing * dielectric matrix)
  average eigenvalue GAMMA=   1.8802
  4.1980  2.2305  2.2305  1.4756  1.0179  1.0043  1.0043

 Free energy of the ion-electron system (eV)
  ---------------------------------------------------
  alpha Z        PSCENC =         0.62641250
  Ewald energy   TEWEN  =       953.35639245
  -Hartree energ DENC   =     -1482.71384075
  -exchange      EXHF   =         0.00000000
  -V(xc)+E(xc)   XCENC  =        73.55485311
  PAW double counting   =       313.08012178     -318.46937970
  entropy T*S    EENTRO =        -0.00000000
  eigenvalues    EBANDS =      -258.98476352
  atomic energy  EATOM  =       663.51739852
  Solvation  Ediel_sol  =         0.00000000
  ---------------------------------------------------
  free energy    TOTEN  =       -56.03280561 eV

  energy without entropy =      -56.03280561  energy(sigma->0) =      -56.03280561


--------------------------------------------------------------------------------------------------------




--------------------------------------- Iteration      1(  13)  ---------------------------------------


    POTLOK:  cpu time      0.3090: real time      0.3106
    SETDIJ:  cpu time      0.1914: real time      0.1922
     EDDAV:  cpu time      0.4038: real time      0.4060
       DOS:  cpu time      0.0001: real time      0.0001
    CHARGE:  cpu time      0.1961: real time      0.1969
    MIXING:  cpu time      0.0134: real time      0.0135
    --------------------------------------------
      LOOP:  cpu time      1.1138: real time      1.1193

 eigenvalue-minimisations  :    64
 total energy-change (2. order) :-0.1024558E-01  (-0.2036337E-03)
 number of electron      22.0000000 magnetization 
 augmentation part        0.5083812 magnetization 

 Broyden mixing:
  rms(total) = 0.35032E-02    rms(broyden)= 0.35029E-02
  rms(prec ) = 0.69044E-02
  weight for this iteration     100.00

 eigenvalues of (default mixing * dielectric matrix)
  average eigenvalue GAMMA=   2.0058
  5.1171  2.7709  2.1363  1.5252  1.5252  0.9724  0.9997  0.9997

 Free energy of the ion-electron system (eV)
  ---------------------------------------------------
  alpha Z        PSCENC =         0.62641250
  Ewald energy   TEWEN  =       953.35639245
  -Hartree energ DENC   =     -1483.19677026
  -exchange      EXHF   =         0.00000000
  -V(xc)+E(xc)   XCENC  =        73.54854956
  PAW double counting   =       313.05812425     -318.44695161
  entropy T*S    EENTRO =        -0.00000000
  eigenvalues    EBANDS =      -258.50620661
  atomic energy  EATOM  =       663.51739852
  Solvation  Ediel_sol  =         0.00000000
  ---------------------------------------------------
  free energy    TOTEN  =       -56.04305119 eV

  energy without entropy =      -56.04305119  energy(sigma->0) =      -56.04305119


--------------------------------------------------------------------------------------------------------




--------------------------------------- Iteration      1(  14)  ---------------------------------------


    POTLOK:  cpu time      0.3104: real time      0.3122
    SETDIJ:  cpu time      0.1923: real time      0.1932
     EDDAV:  cpu time      0.4141: real time      0.4163
       DOS:  cpu time      0.0001: real time      0.0001
    CHARGE:  cpu time      0.1962: real time      0.1970
    MIXING:  cpu time      0.0124: real time      0.0124
    --------------------------------------------
      LOOP:  cpu time      1.1256: real time      1.1313

 eigenvalue-minimisations  :    64
 total energy-change (2. order) :-0.5934329E-02  (-0.1005216E-03)
 number of electron      22.0000000 magnetization 
 augmentation part        0.5082177 magnetization 

 Broyden mixing:
  rms(total) = 0.20085E-02    rms(broyden)= 0.20084E-02
  rms(prec ) = 0.38522E-02
  weight for this iteration     100.00

 eigenvalues of (default mixing * dielectric matrix)
  average eigenvalue GAMMA=   2.1211
  6.0045  3.2654  2.2856  2.0283  1.3105  1.3105  0.9807  0.9807  0.9236

 Free energy of the ion-electron system (eV)
  ---------------------------------------------------
  alpha Z        PSCENC =         0.62641250
  Ewald energy   TEWEN  =       953.35639245
  -Hartree energ DENC   =     -1483.70601386
  -exchange      EXHF   =         0.00000000
  -V(xc)+E(xc)   XCENC  =        73.54326915
  PAW double counting   =       313.04707912     -318.43755832
  entropy T*S    EENTRO =        -0.00000000
  eigenvalues    EBANDS =      -257.99596509
  atomic energy  EATOM  =       663.51739852
  Solvation  Ediel_sol  =         0.00000000
  ---------------------------------------------------
  free energy    TOTEN  =       -56.04898552 eV

  energy without entropy =      -56.04898552  energy(sigma->0) =      -56.04898552


--------------------------------------------------------------------------------------------------------




--------------------------------------- Iteration      1(  15)  ---------------------------------------


    POTLOK:  cpu time      0.3034: real time      0.3050
    SETDIJ:  cpu time      0.1912: real time      0.1920
     EDDAV:  cpu time      0.4073: real time      0.4095
       DOS:  cpu time      0.0001: real time      0.0001
    CHARGE:  cpu time      0.1975: real time      0.1983
    MIXING:  cpu time      0.0121: real time      0.0121
    --------------------------------------------
      LOOP:  cpu time      1.1115: real time      1.1171

 eigenvalue-minimisations  :    64
 total energy-change (2. order) :-0.4179797E-02  (-0.7023145E-04)
 number of electron      22.0000000 magnetization 
 augmentation part        0.5082653 magnetization 

 Broyden mixing:
  rms(total) = 0.13457E-02    rms(broyden)= 0.13456E-02
  rms(prec ) = 0.21701E-02
  weight for this iteration     100.00

 eigenvalues of (default mixing * dielectric matrix)
  average eigenvalue GAMMA=   2.1864
  6.7272  3.9074  2.4506  1.7049  1.7049  1.5582  0.9921  0.9921  0.9931  0.8334

 Free energy of the ion-electron system (eV)
  ---------------------------------------------------
  alpha Z        PSCENC =         0.62641250
  Ewald energy   TEWEN  =       953.35639245
  -Hartree energ DENC   =     -1483.63287725
  -exchange      EXHF   =         0.00000000
  -V(xc)+E(xc)   XCENC  =        73.53094183
  PAW double counting   =       313.02967321     -318.41851873
  entropy T*S    EENTRO =        -0.00000000
  eigenvalues    EBANDS =      -258.06258785
  atomic energy  EATOM  =       663.51739852
  Solvation  Ediel_sol  =         0.00000000
  ---------------------------------------------------
  free energy    TOTEN  =       -56.05316532 eV

  energy without entropy =      -56.05316532  energy(sigma->0) =      -56.05316532


--------------------------------------------------------------------------------------------------------




--------------------------------------- Iteration      1(  16)  ---------------------------------------


    POTLOK:  cpu time      0.3018: real time      0.3034
    SETDIJ:  cpu time      0.1907: real time      0.1916
     EDDAV:  cpu time      0.4898: real time      0.4926
       DOS:  cpu time      0.0001: real time      0.0001
    CHARGE:  cpu time      0.1998: real time      0.2006
    MIXING:  cpu time      0.0108: real time      0.0108
    --------------------------------------------
      LOOP:  cpu time      1.1931: real time      1.1991

 eigenvalue-minimisations  :    80
 total energy-change (2. order) :-0.1083258E-02  (-0.1099457E-04)
 number of electron      22.0000000 magnetization 
 augmentation part        0.5081996 magnetization 

 Broyden mixing:
  rms(total) = 0.91192E-03    rms(broyden)= 0.91183E-03
  rms(prec ) = 0.13782E-02
  weight for this iteration     100.00

 eigenvalues of (default mixing * dielectric matrix)
  average eigenvalue GAMMA=   2.2187
  7.4690  4.2026  2.3771  2.3771  1.6145  1.2723  1.2723  0.9869  0.9869  0.9452
  0.9018

 Free energy of the ion-electron system (eV)
  ---------------------------------------------------
  alpha Z        PSCENC =         0.62641250
  Ewald energy   TEWEN  =       953.35639245
  -Hartree energ DENC   =     -1483.73047406
  -exchange      EXHF   =         0.00000000
  -V(xc)+E(xc)   XCENC  =        73.53229791
  PAW double counting   =       313.10185914     -318.49095867
  entropy T*S    EENTRO =        -0.00000000
  eigenvalues    EBANDS =      -257.96717637
  atomic energy  EATOM  =       663.51739852
  Solvation  Ediel_sol  =         0.00000000
  ---------------------------------------------------
  free energy    TOTEN  =       -56.05424858 eV

  energy without entropy =      -56.05424858  energy(sigma->0) =      -56.05424858


--------------------------------------------------------------------------------------------------------




--------------------------------------- Iteration      1(  17)  ---------------------------------------


    POTLOK:  cpu time      0.2997: real time      0.3013
    SETDIJ:  cpu time      0.1914: real time      0.1922
     EDDAV:  cpu time      0.4053: real time      0.4074
       DOS:  cpu time      0.0001: real time      0.0001
    CHARGE:  cpu time      0.1968: real time      0.1976
    MIXING:  cpu time      0.0134: real time      0.0135
    --------------------------------------------
      LOOP:  cpu time      1.1067: real time      1.1122

 eigenvalue-minimisations  :    64
 total energy-change (2. order) :-0.6542845E-03  (-0.4698250E-05)
 number of electron      22.0000000 magnetization 
 augmentation part        0.5081625 magnetization 

 Broyden mixing:
  rms(total) = 0.50670E-03    rms(broyden)= 0.50659E-03
  rms(prec ) = 0.80151E-03
  weight for this iteration     100.00

 eigenvalues of (default mixing * dielectric matrix)
  average eigenvalue GAMMA=   2.2785
  7.9057  4.7700  2.7385  2.3267  1.6604  1.6604  1.4002  0.9932  0.9932  0.9612
  0.9661  0.9661

 Free energy of the ion-electron system (eV)
  ---------------------------------------------------
  alpha Z        PSCENC =         0.62641250
  Ewald energy   TEWEN  =       953.35639245
  -Hartree energ DENC   =     -1483.75644511
  -exchange      EXHF   =         0.00000000
  -V(xc)+E(xc)   XCENC  =        73.53089266
  PAW double counting   =       313.08115570     -318.47065300
  entropy T*S    EENTRO =        -0.00000000
  eigenvalues    EBANDS =      -257.94005660
  atomic energy  EATOM  =       663.51739852
  Solvation  Ediel_sol  =         0.00000000
  ---------------------------------------------------
  free energy    TOTEN  =       -56.05490286 eV

  energy without entropy =      -56.05490286  energy(sigma->0) =      -56.05490286


--------------------------------------------------------------------------------------------------------




--------------------------------------- Iteration      1(  18)  ---------------------------------------


    POTLOK:  cpu time      0.2971: real time      0.2987
    SETDIJ:  cpu time      0.1922: real time      0.1930
     EDDAV:  cpu time      0.4449: real time      0.4474
       DOS:  cpu time      0.0001: real time      0.0001
    CHARGE:  cpu time      0.2011: real time      0.2020
    MIXING:  cpu time      0.0099: real time      0.0099
    --------------------------------------------
      LOOP:  cpu time      1.1453: real time      1.1512

 eigenvalue-minimisations  :    72
 total energy-change (2. order) :-0.3393015E-03  (-0.2174280E-05)
 number of electron      22.0000000 magnetization 
 augmentation part        0.5081598 magnetization 

 Broyden mixing:
  rms(total) = 0.25214E-03    rms(broyden)= 0.25209E-03
  rms(prec ) = 0.42275E-03
  weight for this iteration     100.00

 eigenvalues of (default mixing * dielectric matrix)
  average eigenvalue GAMMA=   2.3172
  8.5327  5.1060  3.0791  2.4560  2.1195  1.4568  1.3284  0.9848  0.9848  1.0964
  1.0964  0.9413  0.9413

 Free energy of the ion-electron system (eV)
  ---------------------------------------------------
  alpha Z        PSCENC =         0.62641250
  Ewald energy   TEWEN  =       953.35639245
  -Hartree energ DENC   =     -1483.76814339
  -exchange      EXHF   =         0.00000000
  -V(xc)+E(xc)   XCENC  =        73.53128166
  PAW double counting   =       313.08090365     -318.47018298
  entropy T*S    EENTRO =        -0.00000000
  eigenvalues    EBANDS =      -257.92930457
  atomic energy  EATOM  =       663.51739852
  Solvation  Ediel_sol  =         0.00000000
  ---------------------------------------------------
  free energy    TOTEN  =       -56.05524216 eV

  energy without entropy =      -56.05524216  energy(sigma->0) =      -56.05524216


--------------------------------------------------------------------------------------------------------




--------------------------------------- Iteration      1(  19)  ---------------------------------------


    POTLOK:  cpu time      0.2961: real time      0.2977
    SETDIJ:  cpu time      0.1916: real time      0.1924
     EDDAV:  cpu time      0.4057: real time      0.4079
       DOS:  cpu time      0.0001: real time      0.0001
    CHARGE:  cpu time      0.1978: real time      0.1986
    MIXING:  cpu time      0.0119: real time      0.0119
    --------------------------------------------
      LOOP:  cpu time      1.1033: real time      1.1087

 eigenvalue-minimisations  :    64
 total energy-change (2. order) :-0.1366372E-03  (-0.5484890E-06)
 number of electron      22.0000000 magnetization 
 augmentation part        0.5081628 magnetization 

 Broyden mixing:
  rms(total) = 0.11954E-03    rms(broyden)= 0.11947E-03
  rms(prec ) = 0.22149E-03
  weight for this iteration     100.00

 eigenvalues of (default mixing * dielectric matrix)
  average eigenvalue GAMMA=   2.3168
  8.6126  5.3203  3.4056  2.4136  2.0802  1.6152  1.6152  1.2571  1.2571  0.9892
  0.9892  1.0103  0.9345  0.9345

 Free energy of the ion-electron system (eV)
  ---------------------------------------------------
  alpha Z        PSCENC =         0.62641250
  Ewald energy   TEWEN  =       953.35639245
  -Hartree energ DENC   =     -1483.76307327
  -exchange      EXHF   =         0.00000000
  -V(xc)+E(xc)   XCENC  =        73.53078500
  PAW double counting   =       313.06599909     -318.45531453
  entropy T*S    EENTRO =        -0.00000000
  eigenvalues    EBANDS =      -257.93397857
  atomic energy  EATOM  =       663.51739852
  Solvation  Ediel_sol  =         0.00000000
  ---------------------------------------------------
  free energy    TOTEN  =       -56.05537880 eV

  energy without entropy =      -56.05537880  energy(sigma->0) =      -56.05537880


--------------------------------------------------------------------------------------------------------




--------------------------------------- Iteration      1(  20)  ---------------------------------------


    POTLOK:  cpu time      0.2985: real time      0.3001
    SETDIJ:  cpu time      0.1909: real time      0.1916
     EDDAV:  cpu time      0.3690: real time      0.3710
       DOS:  cpu time      0.0001: real time      0.0001
    CHARGE:  cpu time      0.2003: real time      0.2010
    MIXING:  cpu time      0.0124: real time      0.0125
    --------------------------------------------
      LOOP:  cpu time      1.0712: real time      1.0764

 eigenvalue-minimisations  :    56
 total energy-change (2. order) :-0.6061399E-04  (-0.1484755E-06)
 number of electron      22.0000000 magnetization 
 augmentation part        0.5081647 magnetization 

 Broyden mixing:
  rms(total) = 0.76680E-04    rms(broyden)= 0.76580E-04
  rms(prec ) = 0.12962E-03
  weight for this iteration     100.00

 eigenvalues of (default mixing * dielectric matrix)
  average eigenvalue GAMMA=   2.3623
  8.8487  5.7227  3.9153  2.7431  2.4112  1.9447  1.5199  1.3379  1.0844  1.0844
  0.9849  0.9849  1.0221  0.9152  0.9152

 Free energy of the ion-electron system (eV)
  ---------------------------------------------------
  alpha Z        PSCENC =         0.62641250
  Ewald energy   TEWEN  =       953.35639245
  -Hartree energ DENC   =     -1483.77123158
  -exchange      EXHF   =         0.00000000
  -V(xc)+E(xc)   XCENC  =        73.53088881
  PAW double counting   =       313.06687851     -318.45614682
  entropy T*S    EENTRO =        -0.00000000
  eigenvalues    EBANDS =      -257.92603181
  atomic energy  EATOM  =       663.51739852
  Solvation  Ediel_sol  =         0.00000000
  ---------------------------------------------------
  free energy    TOTEN  =       -56.05543941 eV

  energy without entropy =      -56.05543941  energy(sigma->0) =      -56.05543941


--------------------------------------------------------------------------------------------------------




--------------------------------------- Iteration      1(  21)  ---------------------------------------


    POTLOK:  cpu time      0.3058: real time      0.3074
    SETDIJ:  cpu time      0.1899: real time      0.1907
     EDDAV:  cpu time      0.4080: real time      0.4103
       DOS:  cpu time      0.0001: real time      0.0001
    CHARGE:  cpu time      0.1992: real time      0.2000
    MIXING:  cpu time      0.0112: real time      0.0112
    --------------------------------------------
      LOOP:  cpu time      1.1143: real time      1.1199

 eigenvalue-minimisations  :    64
 total energy-change (2. order) :-0.2335763E-04  (-0.2882863E-07)
 number of electron      22.0000000 magnetization 
 augmentation part        0.5081657 magnetization 

 Broyden mixing:
  rms(total) = 0.55255E-04    rms(broyden)= 0.55128E-04
  rms(prec ) = 0.80208E-04
  weight for this iteration     100.00

 eigenvalues of (default mixing * dielectric matrix)
  average eigenvalue GAMMA=   2.4004
  9.0104  5.9514  4.3440  2.8394  2.2710  2.0613  2.0613  1.4742  1.2236  1.2236
  0.9898  0.9898  1.0648  1.0648  0.9187  0.9187

 Free energy of the ion-electron system (eV)
  ---------------------------------------------------
  alpha Z        PSCENC =         0.62641250
  Ewald energy   TEWEN  =       953.35639245
  -Hartree energ DENC   =     -1483.77155527
  -exchange      EXHF   =         0.00000000
  -V(xc)+E(xc)   XCENC  =        73.53077528
  PAW double counting   =       313.06851545     -318.45779645
  entropy T*S    EENTRO =        -0.00000000
  eigenvalues    EBANDS =      -257.92560526
  atomic energy  EATOM  =       663.51739852
  Solvation  Ediel_sol  =         0.00000000
  ---------------------------------------------------
  free energy    TOTEN  =       -56.05546277 eV

  energy without entropy =      -56.05546277  energy(sigma->0) =      -56.05546277


--------------------------------------------------------------------------------------------------------




--------------------------------------- Iteration      1(  22)  ---------------------------------------


    POTLOK:  cpu time      0.3086: real time      0.3103
    SETDIJ:  cpu time      0.1910: real time      0.1918
     EDDAV:  cpu time      0.4097: real time      0.4119
       DOS:  cpu time      0.0001: real time      0.0001
    CHARGE:  cpu time      0.1969: real time      0.1977
    MIXING:  cpu time      0.0132: real time      0.0133
    --------------------------------------------
      LOOP:  cpu time      1.1196: real time      1.1251

 eigenvalue-minimisations  :    64
 total energy-change (2. order) :-0.1166547E-04  (-0.2039859E-07)
 number of electron      22.0000000 magnetization 
 augmentation part        0.5081650 magnetization 

 Broyden mixing:
  rms(total) = 0.29925E-04    rms(broyden)= 0.29689E-04
  rms(prec ) = 0.42166E-04
  weight for this iteration     100.00

 eigenvalues of (default mixing * dielectric matrix)
  average eigenvalue GAMMA=   2.4165
  9.0439  6.3689  4.6656  3.2966  2.5533  2.2745  1.9127  1.4714  1.1739  1.1739
  1.2349  0.9868  0.9868  1.0471  1.0471  0.9217  0.9217

 Free energy of the ion-electron system (eV)
  ---------------------------------------------------
  alpha Z        PSCENC =         0.62641250
  Ewald energy   TEWEN  =       953.35639245
  -Hartree energ DENC   =     -1483.77350237
  -exchange      EXHF   =         0.00000000
  -V(xc)+E(xc)   XCENC  =        73.53078084
  PAW double counting   =       313.06860626     -318.45789464
  entropy T*S    EENTRO =        -0.00000000
  eigenvalues    EBANDS =      -257.92366799
  atomic energy  EATOM  =       663.51739852
  Solvation  Ediel_sol  =         0.00000000
  ---------------------------------------------------
  free energy    TOTEN  =       -56.05547444 eV

  energy without entropy =      -56.05547444  energy(sigma->0) =      -56.05547444


--------------------------------------------------------------------------------------------------------




--------------------------------------- Iteration      1(  23)  ---------------------------------------


    POTLOK:  cpu time      0.3070: real time      0.3087
    SETDIJ:  cpu time      0.1901: real time      0.1909
     EDDAV:  cpu time      0.4082: real time      0.4104
       DOS:  cpu time      0.0001: real time      0.0001
    CHARGE:  cpu time      0.1985: real time      0.1993
    MIXING:  cpu time      0.0119: real time      0.0119
    --------------------------------------------
      LOOP:  cpu time      1.1158: real time      1.1214

 eigenvalue-minimisations  :    64
 total energy-change (2. order) :-0.2657227E-05  (-0.5323063E-08)
 number of electron      22.0000000 magnetization 
 augmentation part        0.5081645 magnetization 

 Broyden mixing:
  rms(total) = 0.21216E-04    rms(broyden)= 0.20887E-04
  rms(prec ) = 0.27631E-04
  weight for this iteration     100.00

 eigenvalues of (default mixing * dielectric matrix)
  average eigenvalue GAMMA=   2.4207
  9.1371  6.5438  4.9322  3.3771  2.4691  2.4691  1.9961  1.7537  1.3094  1.3094
  1.3996  0.9880  0.9880  1.0304  1.0304  0.9826  0.9283  0.9283

 Free energy of the ion-electron system (eV)
  ---------------------------------------------------
  alpha Z        PSCENC =         0.62641250
  Ewald energy   TEWEN  =       953.35639245
  -Hartree energ DENC   =     -1483.77420222
  -exchange      EXHF   =         0.00000000
  -V(xc)+E(xc)   XCENC  =        73.53079395
  PAW double counting   =       313.07008212     -318.45937720
  entropy T*S    EENTRO =        -0.00000000
  eigenvalues    EBANDS =      -257.92297723
  atomic energy  EATOM  =       663.51739852
  Solvation  Ediel_sol  =         0.00000000
  ---------------------------------------------------
  free energy    TOTEN  =       -56.05547709 eV

  energy without entropy =      -56.05547709  energy(sigma->0) =      -56.05547709


--------------------------------------------------------------------------------------------------------




--------------------------------------- Iteration      1(  24)  ---------------------------------------


    POTLOK:  cpu time      0.3097: real time      0.3114
    SETDIJ:  cpu time      0.1918: real time      0.1927
     EDDAV:  cpu time      0.3702: real time      0.3722
       DOS:  cpu time      0.0001: real time      0.0001
    CHARGE:  cpu time      0.1986: real time      0.1994
    MIXING:  cpu time      0.0127: real time      0.0128
    --------------------------------------------
      LOOP:  cpu time      1.0832: real time      1.0885

 eigenvalue-minimisations  :    56
 total energy-change (2. order) :-0.1597984E-05  (-0.3408314E-08)
 number of electron      22.0000000 magnetization 
 augmentation part        0.5081642 magnetization 

 Broyden mixing:
  rms(total) = 0.11173E-04    rms(broyden)= 0.10536E-04
  rms(prec ) = 0.15144E-04
  weight for this iteration     100.00

 eigenvalues of (default mixing * dielectric matrix)
  average eigenvalue GAMMA=   2.4266
  9.1689  6.8021  5.1039  3.6480  2.7849  2.3995  1.9872  1.9872  1.3002  1.3002
  1.3483  1.3483  0.9866  0.9866  1.0605  1.0605  0.9214  0.9214  0.9890

 Free energy of the ion-electron system (eV)
  ---------------------------------------------------
  alpha Z        PSCENC =         0.62641250
  Ewald energy   TEWEN  =       953.35639245
  -Hartree energ DENC   =     -1483.77454341
  -exchange      EXHF   =         0.00000000
  -V(xc)+E(xc)   XCENC  =        73.53079581
  PAW double counting   =       313.06949598     -318.45879462
  entropy T*S    EENTRO =        -0.00000000
  eigenvalues    EBANDS =      -257.92263592
  atomic energy  EATOM  =       663.51739852
  Solvation  Ediel_sol  =         0.00000000
  ---------------------------------------------------
  free energy    TOTEN  =       -56.05547869 eV

  energy without entropy =      -56.05547869  energy(sigma->0) =      -56.05547869


--------------------------------------------------------------------------------------------------------




--------------------------------------- Iteration      1(  25)  ---------------------------------------


    POTLOK:  cpu time      0.3131: real time      0.3148
    SETDIJ:  cpu time      0.1906: real time      0.1914
     EDDAV:  cpu time      0.4087: real time      0.4109
       DOS:  cpu time      0.0001: real time      0.0001
    --------------------------------------------
      LOOP:  cpu time      0.9124: real time      0.9172

 eigenvalue-minimisations  :    64
 total energy-change (2. order) :-0.6868747E-06  (-0.1534712E-08)
 number of electron      22.0000000 magnetization 
 augmentation part        0.5081642 magnetization 

 Free energy of the ion-electron system (eV)
  ---------------------------------------------------
  alpha Z        PSCENC =         0.62641250
  Ewald energy   TEWEN  =       953.35639245
  -Hartree energ DENC   =     -1483.77433658
  -exchange      EXHF   =         0.00000000
  -V(xc)+E(xc)   XCENC  =        73.53078970
  PAW double counting   =       313.06905668     -318.45834688
  entropy T*S    EENTRO =        -0.00000000
  eigenvalues    EBANDS =      -257.92284577
  atomic energy  EATOM  =       663.51739852
  Solvation  Ediel_sol  =         0.00000000
  ---------------------------------------------------
  free energy    TOTEN  =       -56.05547938 eV

  energy without entropy =      -56.05547938  energy(sigma->0) =      -56.05547938


--------------------------------------------------------------------------------------------------------




 average (electrostatic) potential at core
  the test charge radii are     0.6991  0.5201
  (the norm of the test charge is              1.0000)
       1 -58.3047       2 -58.6079       3 -58.7688       4 -58.3798       5 -41.3635
       6 -42.1802       7 -41.8866       8 -42.2076       9 -42.0739      10 -42.0887
 
 
 
 E-fermi :  -5.3962     XC(G=0):  -0.4274     alpha+bet : -0.1681

 Fermi energy:        -5.3962443301

 k-point     1 :       0.0000    0.0000    0.0000
  band No.  band energies     occupation 
      1     -20.4626      2.00000
      2     -17.4868      2.00000
      3     -15.1859      2.00000
      4     -12.8430      2.00000
      5     -12.1192      2.00000
      6     -10.6381      2.00000
      7      -9.9790      2.00000
      8      -9.0482      2.00000
      9      -8.1677      2.00000
     10      -7.3355      2.00000
     11      -5.6955      2.00000
     12      -1.8074      0.00000
     13      -0.3407      0.00000
     14       0.0931      0.00000
     15       0.1919      0.00000
     16       0.2662      0.00000
     17       0.4201      0.00000
     18       0.4449      0.00000
     19       0.5736      0.00000
     20       0.7061      0.00000
     21       0.9330      0.00000
     22       0.9512      0.00000
     23       1.0150      0.00000
     24       1.1153      0.00000


--------------------------------------------------------------------------------------------------------


 soft charge-density along one line, spin component           1
         0         1         2         3         4         5         6         7         8         9
 total charge-density along one line
 
 pseudopotential strength for first ion, spin component:           1
 10.243   0.019  -0.002  -0.003  -0.000  -0.003  -0.003   0.001
  0.019  -0.001   0.000   0.000  -0.000  -0.000  -0.000   0.000
 -0.002   0.000  -4.353  -0.005   0.011  -0.021  -0.001   0.003
 -0.003   0.000  -0.005  -4.346   0.000  -0.001  -0.019  -0.000
 -0.000  -0.000   0.011   0.000  -4.335   0.003  -0.000  -0.017
 -0.003  -0.000  -0.021  -0.001   0.003  -0.772  -0.000   0.000
 -0.003  -0.000  -0.001  -0.019  -0.000  -0.000  -0.772   0.000
  0.001   0.000   0.003  -0.000  -0.017   0.000   0.000  -0.772
 total augmentation occupancy for first ion, spin component:           1
  1.523  -1.161   0.063   0.088  -0.012   0.033   0.028  -0.008
 -1.161   1.019  -0.141  -0.096   0.040  -0.057  -0.040   0.017
  0.063  -0.141   1.228   0.058  -0.171   0.214   0.020  -0.059
  0.088  -0.096   0.058   1.176   0.016   0.020   0.196   0.005
 -0.012   0.040  -0.171   0.016   1.025  -0.059   0.005   0.128
  0.033  -0.057   0.214   0.020  -0.059   0.041   0.006  -0.015
  0.028  -0.040   0.020   0.196   0.005   0.006   0.036   0.001
 -0.008   0.017  -0.059   0.005   0.128  -0.015   0.001   0.018


------------------------ aborting loop because EDIFF is reached ----------------------------------------


    CHARGE:  cpu time      0.1936: real time      0.1944
    FORLOC:  cpu time      0.0370: real time      0.0372
    FORNL :  cpu time      1.0713: real time      1.0763
    STRESS:  cpu time      3.3875: real time      3.4033
    FORHAR:  cpu time      0.1113: real time      0.1118
    MIXING:  cpu time      0.0122: real time      0.0123
    OFIELD:  cpu time      0.0001: real time      0.0001

  FORCE on cell =-STRESS in cart. coord.  units (eV):
  Direction    XX          YY          ZZ          XY          YZ          ZX
  --------------------------------------------------------------------------------------
  Alpha Z     0.62641     0.62641     0.62641
  Ewald    -115.50156   427.59220   641.26542   -54.23701    -2.83729   -58.15849
  Hartree   256.83879   522.43044   704.50544   -23.32220    -9.61712   -55.24743
  E(xc)     -78.33071   -76.61923   -76.35993    -0.17326     0.02855     0.07325
  Local    -361.90782 -1136.12621 -1533.07889    72.52456    14.88772   117.64793
  n-local   -29.32661   -31.23151   -32.14561     0.25554     0.00538    -0.41912
  augment    -0.58997    -0.78121    -0.75258     0.03681    -0.01878    -0.02880
  Kinetic   329.06537   294.59749   303.13261     2.88952    -0.97661    -5.29396
  Fock        0.00000     0.00000     0.00000     0.00000     0.00000     0.00000
  -------------------------------------------------------------------------------------
  Total       0.87391     0.48838     7.19287    -2.02604     1.47186    -1.42661
  in kB       0.41486     0.23184     3.41459    -0.96180     0.69872    -0.67724
  external pressure =        1.35 kB  Pullay stress =        0.00 kB


 VOLUME and BASIS-vectors are now :
 -----------------------------------------------------------------------------
  energy-cutoff  :      520.00
  volume of cell :     3375.00
      direct lattice vectors                 reciprocal lattice vectors
    15.000000000  0.000000000  0.000000000     0.066666667  0.000000000  0.000000000
     0.000000000 15.000000000  0.000000000     0.000000000  0.066666667  0.000000000
     0.000000000  0.000000000 15.000000000     0.000000000  0.000000000  0.066666667

  length of vectors
    15.000000000 15.000000000 15.000000000     0.066666667  0.066666667  0.066666667


 FORCES acting on ions
    electron-ion (+dipol)            ewald-force                    non-local-force                 convergence-correction
 -----------------------------------------------------------------------------------------------
   -.507E+02 0.102E+03 0.127E+03   0.521E+02 -.104E+03 -.130E+03   -.391E+00 0.381E+00 -.219E+01   0.621E-06 -.481E-04 0.126E-04
   0.349E+02 -.124E+03 0.753E+02   -.362E+02 0.127E+03 -.758E+02   -.220E+00 0.693E+00 0.890E+00   -.163E-04 0.884E-05 0.576E-04
   -.300E+01 -.118E+03 -.894E+02   0.275E+01 0.117E+03 0.912E+02   -.372E-01 -.156E+01 -.636E+00   0.405E-06 -.502E-04 0.369E-04
   0.220E+02 0.102E+03 -.106E+03   -.221E+02 -.101E+03 0.106E+03   -.205E+00 0.187E+01 0.473E+00   0.127E-04 -.931E-05 -.242E-04
   -.238E+01 0.159E+02 0.654E+02   0.225E+01 -.165E+02 -.690E+02   0.150E+00 0.708E+00 0.492E+01   -.835E-06 -.748E-05 -.832E-05
   -.408E+02 0.556E+02 -.105E+02   0.445E+02 -.609E+02 0.145E+02   -.302E+01 0.436E+01 -.358E+01   0.429E-05 -.164E-04 0.135E-04
   0.261E+02 -.555E+02 0.385E+02   -.279E+02 0.591E+02 -.411E+02   0.211E+01 -.410E+01 0.278E+01   -.657E-05 0.107E-04 -.415E-05
   -.149E+02 -.590E+02 -.391E+02   0.162E+02 0.635E+02 0.422E+02   -.139E+01 -.469E+01 -.292E+01   -.148E-06 -.657E-05 -.389E-05
   0.317E+02 0.596E+02 0.114E+02   -.342E+02 -.642E+02 -.149E+02   0.243E+01 0.446E+01 0.325E+01   0.716E-05 0.501E-05 0.615E-05
   -.197E+01 0.187E+02 -.687E+02   0.261E+01 -.200E+02 0.766E+02   -.450E+00 0.953E+00 -.628E+01   0.792E-06 -.344E-05 -.189E-04
 -----------------------------------------------------------------------------------------------
   0.102E+01 -.307E+01 0.329E+01   0.799E-14 -.711E-14 0.000E+00   -.102E+01 0.307E+01 -.329E+01   0.214E-05 -.117E-03 0.673E-04
 
 
 POSITION                                       TOTAL-FORCE (eV/Angst)
 -----------------------------------------------------------------------------------
      7.86600      7.12300      6.26500         1.010088     -2.029504     -5.159011
      7.42500      8.20200      6.80200        -1.479094      3.652351      0.329015
      7.44600      8.22700      8.22900        -0.281974     -2.225383      1.179675
      7.23900      6.95900      8.75000        -0.284814      2.716259      0.219475
      7.82800      6.95500      5.13700         0.015442      0.106602      1.317737
      8.35700      6.39700      6.84800         0.688615     -0.962274      0.420792
      6.99400      9.05200      6.22800         0.306383     -0.460209      0.177056
      7.70900      9.12700      8.79400        -0.113271     -0.261172      0.161974
      6.81900      6.16200      8.16300        -0.048110     -0.204880     -0.238010
      7.31600      6.79500      9.78400         0.186735     -0.331788      1.591298
 -----------------------------------------------------------------------------------
    total drift:                               -0.002046      0.004404     -0.003679


--------------------------------------------------------------------------------------------------------



  FREE ENERGIE OF THE ION-ELECTRON SYSTEM (eV)
  ---------------------------------------------------
  free  energy   TOTEN  =       -56.05547938 eV

  energy  without entropy=      -56.05547938  energy(sigma->0) =      -56.05547938
 


--------------------------------------------------------------------------------------------------------


    POTLOK:  cpu time      0.5065: real time      0.5089


--------------------------------------------------------------------------------------------------------


 stress matrix after NEB project (eV)
      0.87391     -2.02604     -1.42661
     -2.02604      0.48838      1.47186
     -1.42661      1.47186      7.19287
  FORCES: max atom, RMS     5.635119    2.605162
  FORCE total and by dimension    8.238246    5.159011
  Stress total and by dimension    8.327808    7.192869
     LOOP+:  cpu time     30.5914: real time     30.7441
    4ORBIT:  cpu time      0.0000: real time      0.0000

 total amount of memory used by VASP MPI-rank0   224782. kBytes
=======================================================================

   base      :      30000. kBytes
   nonlr-proj:       1258. kBytes
   fftplans  :     123538. kBytes
   grid      :      67787. kBytes
   one-center:         15. kBytes
   wavefun   :       2184. kBytes
 
  
  
 General timing and accounting informations for this job:
 ========================================================
  
                  Total CPU time used (sec):       37.213
                            User time (sec):       34.040
                          System time (sec):        3.173
                         Elapsed time (sec):       38.187
  
                   Maximum memory used (kb):      557796.
                   Average memory used (kb):          N/A
  
                          Minor page faults:       171421
                          Major page faults:         5438
                 Voluntary context switches:         3137
