 vasp.6.4.2 20Jul23 (build Apr 10 2024 13:39:58) complex                        
  
 executed on             LinuxIFC date 2024.05.17  06:22:23
 running   16 mpi-ranks, on    1 nodes
 distrk:  each k-point on   16 cores,    1 groups
 distr:  one band on NCORE=   2 cores,    8 groups


--------------------------------------------------------------------------------------------------------


 INCAR:
   ISTART = 0
   ISPIN = 1
   LREAL = Auto
   ENCUT = 520
   NPAR = 8
   LPLANE = .TRUE.
   LSCALU = .FALSE.
   NSIM = 4
   LWAVE = .FALSE.
   LCHARG = .FALSE.
   ADDGRID = .TRUE.
   LASPH = .TRUE.
   PREC = Accurate
   ISMEAR = 0
   SIGMA = 0.05
   EDIFF = 1E-06
   NSW = 0
   TEBEG = 300
   TEEND = 700     	
   ISYM = 0
   NWRITE = 2

 POTCAR:   PAW_PBE C 08Apr2002                    
 POTCAR:   PAW_PBE H 15Jun2001                    
 POTCAR:   PAW_PBE C 08Apr2002                    
   VRHFIN =C: s2p2                                                                                  
   LEXCH  = PE                                                                                      
   EATOM  =   147.1560 eV,   10.8157 Ry                                                             
                                                                                                    
   TITEL  = PAW_PBE C 08Apr2002                                                                     
   LULTRA =        F    use ultrasoft PP ?                                                          
   IUNSCR =        0    unscreen: 0-lin 1-nonlin 2-no                                               
   RPACOR =     .000    partial core radius                                                         
   POMASS =   12.011; ZVAL   =    4.000    mass and valenz                                          
   RCORE  =    1.500    outmost cutoff radius                                                       
   RWIGS  =    1.630; RWIGS  =     .863    wigner-seitz radius (au A)                               
   ENMAX  =  400.000; ENMIN  =  300.000 eV                                                          
   ICORE  =        2    local potential                                                             
   LCOR   =        T    correct aug charges                                                         
   LPAW   =        T    paw PP                                                                      
   EAUG   =  644.873                                                                                
   DEXC   =     .000                                                                                
   RMAX   =    2.266    core radius for proj-oper                                                   
   RAUG   =    1.300    factor for augmentation sphere                                              
   RDEP   =    1.501    radius for radial grids                                                     
   RDEPT  =    1.300    core radius for aug-charge                                                  
   QCUT   =   -5.516; QGAM   =   11.032    optimization parameters                                  
                                                                                                    
   Description                                                                                      
     l     E      TYP  RCUT    TYP  RCUT                                                            
     0   .000     23  1.200                                                                         
     0   .000     23  1.200                                                                         
     1   .000     23  1.500                                                                         
     1  2.500     23  1.500                                                                         
     2   .000      7  1.500                                                                         
  local pseudopotential read in
  atomic valenz-charges read in
  non local Contribution for L=           0  read in
    real space projection operators read in
  non local Contribution for L=           0  read in
    real space projection operators read in
  non local Contribution for L=           1  read in
    real space projection operators read in
  non local Contribution for L=           1  read in
    real space projection operators read in
    PAW grid and wavefunctions read in
 
   number of l-projection  operators is LMAX  =           4
   number of lm-projection operators is LMMAX =           8
 
 POTCAR:   PAW_PBE H 15Jun2001                    
   VRHFIN =H: ultrasoft test                                                                        
   LEXCH  = PE                                                                                      
   EATOM  =    12.4884 eV,     .9179 Ry                                                             
                                                                                                    
   TITEL  = PAW_PBE H 15Jun2001                                                                     
   LULTRA =        F    use ultrasoft PP ?                                                          
   IUNSCR =        0    unscreen: 0-lin 1-nonlin 2-no                                               
   RPACOR =     .000    partial core radius                                                         
   POMASS =    1.000; ZVAL   =    1.000    mass and valenz                                          
   RCORE  =    1.100    outmost cutoff radius                                                       
   RWIGS  =     .700; RWIGS  =     .370    wigner-seitz radius (au A)                               
   ENMAX  =  250.000; ENMIN  =  200.000 eV                                                          
   RCLOC  =     .701    cutoff for local pot                                                        
   LCOR   =        T    correct aug charges                                                         
   LPAW   =        T    paw PP                                                                      
   EAUG   =  400.000                                                                                
   RMAX   =    2.174    core radius for proj-oper                                                   
   RAUG   =    1.200    factor for augmentation sphere                                              
   RDEP   =    1.112    radius for radial grids                                                     
   QCUT   =   -5.749; QGAM   =   11.498    optimization parameters                                  
                                                                                                    
   Description                                                                                      
     l     E      TYP  RCUT    TYP  RCUT                                                            
     0   .000     23  1.100                                                                         
     0   .500     23  1.100                                                                         
     1  -.300     23  1.100                                                                         
  local pseudopotential read in
  atomic valenz-charges read in
  non local Contribution for L=           0  read in
    real space projection operators read in
  non local Contribution for L=           0  read in
    real space projection operators read in
  non local Contribution for L=           1  read in
    real space projection operators read in
    PAW grid and wavefunctions read in
 
   number of l-projection  operators is LMAX  =           3
   number of lm-projection operators is LMMAX =           5
 
 Optimization of the real space projectors (new method)

 maximal supplied QI-value         = 25.13
 optimisation between [QCUT,QGAM] = [ 11.56, 23.12] = [ 37.43,149.72] Ry 
 Optimized for a Real-space Cutoff    1.04 Angstroem

   l    n(q)    QCUT    max X(q) W(low)/X(q) W(high)/X(q)  e(spline) 
   0      7    11.561     5.582    0.47E-04    0.94E-04    0.17E-07
   0      7    11.561    69.432    0.20E-03    0.59E-03    0.21E-06
   1      7    11.561     2.780    0.24E-04    0.70E-04    0.44E-07
   1      7    11.561     4.549    0.18E-03    0.25E-03    0.12E-06
 Optimization of the real space projectors (new method)

 maximal supplied QI-value         = 34.20
 optimisation between [QCUT,QGAM] = [ 11.63, 23.26] = [ 37.87,151.49] Ry 
 Optimized for a Real-space Cutoff    1.21 Angstroem

   l    n(q)    QCUT    max X(q) W(low)/X(q) W(high)/X(q)  e(spline) 
   0      8    11.629     4.436    0.19E-04    0.32E-04    0.47E-07
   0      8    11.629    16.131    0.16E-03    0.33E-03    0.21E-06
   1      8    11.629     4.654    0.18E-03    0.16E-03    0.26E-06
 PAW_PBE C 08Apr2002                    :
 energy of atom  1       EATOM= -147.1560
 kinetic energy error for atom=    0.0071 (will be added to EATOM!!)
 PAW_PBE H 15Jun2001                    :
 energy of atom  2       EATOM=  -12.4884
 kinetic energy error for atom=    0.0014 (will be added to EATOM!!)
 
 
 POSCAR:  C  H
  positions in cartesian coordinates
  No initial velocities read in
 exchange correlation table for  LEXCH =        8
   RHO(1)=    0.500       N(1)  =     2000
   RHO(2)=  100.500       N(2)  =     4000

 VTST: version 4.1, (05/19/21)

 CHAIN: initializing optimizer
 
 OPT: Using VASP Dynamics algorithm
 CHAIN: Read ICHAIN            0
 
 POSCAR:  C  H
  positions in cartesian coordinates
  No initial velocities read in
 


--------------------------------------------------------------------------------------------------------


 ion  position               nearest neighbor table
   1  0.529  0.533  0.400-   6 1.07   5 1.09   2 1.32
   2  0.496  0.467  0.448-   7 1.09   1 1.32   3 1.50
   3  0.490  0.459  0.547-   8 1.06   4 1.32   2 1.50
   4  0.478  0.524  0.606-   9 1.07  10 1.11   3 1.32
   5  0.530  0.522  0.328-   1 1.09
   6  0.557  0.596  0.421-   1 1.07
   7  0.471  0.407  0.416-   2 1.09
   8  0.496  0.393  0.572-   3 1.06
   9  0.470  0.591  0.583-   4 1.07
  10  0.484  0.508  0.678-   4 1.11
 

IMPORTANT INFORMATION: All symmetrisations will be switched off!
NOSYMM: (Re-)initialisation of all symmetry stuff for point group C_1.


----------------------------------------------------------------------------------------

                                     Primitive cell                                     

  volume of cell :    3375.0000

  direct lattice vectors                    reciprocal lattice vectors
    15.000000000  0.000000000  0.000000000     0.066666667  0.000000000  0.000000000
     0.000000000 15.000000000  0.000000000     0.000000000  0.066666667  0.000000000
     0.000000000  0.000000000 15.000000000     0.000000000  0.000000000  0.066666667

  length of vectors
    15.000000000 15.000000000 15.000000000     0.066666667  0.066666667  0.066666667

  position of ions in fractional coordinates (direct lattice)
     0.528666655  0.533266671  0.400066662
     0.496266651  0.467066669  0.447866662
     0.489933332  0.459266663  0.547133319
     0.477733326  0.523733330  0.606200027
     0.530466652  0.522466660  0.328266652
     0.556666692  0.595533307  0.421199989
     0.470933342  0.406800016  0.416200002
     0.495733325  0.393400002  0.571533330
     0.470133336  0.590733337  0.583266640
     0.483533319  0.507866669  0.678266652

  ion indices of the primitive-cell ions
   primitive index   ion index
                 1           1
                 2           2
                 3           3
                 4           4
                 5           5
                 6           6
                 7           7
                 8           8
                 9           9
                10          10

----------------------------------------------------------------------------------------

 
 
 KPOINTS: K-Spacing Value to Generate K-Mesh: 1.00

Automatic generation of k-mesh.
 Grid dimensions read from file:
 generate k-points for:    1    1    1

 Generating k-lattice:

  Cartesian coordinates                     Fractional coordinates (reciprocal lattice)
     0.066666667  0.000000000  0.000000000     1.000000000  0.000000000  0.000000000
     0.000000000  0.066666667  0.000000000     0.000000000  1.000000000  0.000000000
     0.000000000  0.000000000  0.066666667     0.000000000  0.000000000  1.000000000

  Length of vectors
     0.066666667  0.066666667  0.066666667

  Shift w.r.t. Gamma in fractional coordinates (k-lattice)
     0.000000000  0.000000000  0.000000000

 
 Subroutine IBZKPT returns following result:
 ===========================================
 
 Found      1 irreducible k-points:
 
 Following reciprocal coordinates:
            Coordinates               Weight
  0.000000  0.000000  0.000000      1.000000
 
 Following cartesian coordinates:
            Coordinates               Weight
  0.000000  0.000000  0.000000      1.000000
 


--------------------------------------------------------------------------------------------------------




 Dimension of arrays:
   k-points           NKPTS =      1   k-points in BZ     NKDIM =      1   number of bands    NBANDS=     24
   number of dos      NEDOS =    301   number of ions     NIONS =     10
   non local maximal  LDIM  =      4   non local SUM 2l+1 LMDIM =      8
   total plane-waves  NPLWV = ******
   max r-space proj   IRMAX =   3145   max aug-charges    IRDMAX=  39494
   dimension x,y,z NGX =   112 NGY =  112 NGZ =  112
   dimension x,y,z NGXF=   224 NGYF=  224 NGZF=  224
   support grid    NGXF=   448 NGYF=  448 NGZF=  448
   ions per type =               4   6
   NGX,Y,Z   is equivalent  to a cutoff of  12.41, 12.41, 12.41 a.u.
   NGXF,Y,Z  is equivalent  to a cutoff of  24.83, 24.83, 24.83 a.u.

 SYSTEM =  unknown system                          
 POSCAR =   C  H                                   

 Startparameter for this run:
   NWRITE =      2    write-flag & timer
   PREC   = accura    normal or accurate (medium, high low for compatibility)
   ISTART =      0    job   : 0-new  1-cont  2-samecut
   ICHARG =      2    charge: 1-file 2-atom 10-const
   ISPIN  =      1    spin polarized calculation?
   LNONCOLLINEAR =      F non collinear calculations
   LSORBIT =      F    spin-orbit coupling
   INIWAV =      1    electr: 0-lowe 1-rand  2-diag
   LASPH  =      T    aspherical Exc in radial PAW
 Electronic Relaxation 1
   ENCUT  =  520.0 eV  38.22 Ry    6.18 a.u.  27.89 27.89 27.89*2*pi/ulx,y,z
   ENINI  =  520.0     initial cutoff
   ENAUG  =  644.9 eV  augmentation charge cutoff
   NELM   =     60;   NELMIN=  2; NELMDL= -5     # of ELM steps 
   EDIFF  = 0.1E-05   stopping-criterion for ELM
   LREAL  =      T    real-space projection
   NLSPLINE    = F    spline interpolate recip. space projectors
   LCOMPAT=      F    compatible to vasp.4.4
   GGA_COMPAT  = T    GGA compatible to vasp.4.4-vasp.4.6
   LMAXPAW     = -100 max onsite density
   LMAXMIX     =    2 max onsite mixed and CHGCAR
   VOSKOWN=      0    Vosko Wilk Nusair interpolation
   ROPT   =   -0.00025  -0.00025
 Ionic relaxation
   EDIFFG = 0.1E-04   stopping-criterion for IOM
   NSW    =      0    number of steps for IOM
   NBLOCK =      1;   KBLOCK =      1    inner block; outer block 
   IBRION =     -1    ionic relax: 0-MD 1-quasi-New 2-CG
   NFREE  =      0    steps in history (QN), initial steepest desc. (CG)
   ISIF   =      2    stress and relaxation
   IWAVPR =     10    prediction:  0-non 1-charg 2-wave 3-comb
   ISYM   =      0    0-nonsym 1-usesym 2-fastsym
   LCORR  =      T    Harris-Foulkes like correction to forces

   POTIM  = 0.5000    time-step for ionic-motion
   TEIN   =    0.0    initial temperature
   TEBEG  =  300.0;   TEEND  = 700.0 temperature during run
   SMASS  =  -3.00    Nose mass-parameter (am)
   estimated Nose-frequenzy (Omega)   =  0.10E-29 period in steps = 0.13E+47 mass=  -0.514E-26a.u.
   SCALEE = 1.0000    scale energy and forces
   NPACO  =    256;   APACO  = 10.0  distance and # of slots for P.C.
   PSTRESS=    0.0 pullay stress

  Mass of Ions in am
   POMASS =  12.01  1.00
  Ionic Valenz
   ZVAL   =   4.00  1.00
  Atomic Wigner-Seitz radii
   RWIGS  =  -1.00 -1.00
  virtual crystal weights 
   VCA    =   1.00  1.00
   NELECT =      22.0000    total number of electrons
   NUPDOWN=      -1.0000    fix difference up-down

 DOS related values:
   EMIN   =  10.00;   EMAX   =-10.00  energy-range for DOS
   EFERMI =   0.00;   METHOD = LEGACY      
   ISMEAR =     0;   SIGMA  =   0.05  broadening in eV -4-tet -1-fermi 0-gaus

 Electronic relaxation 2 (details)
   IALGO  =     38    algorithm
   LDIAG  =      T    sub-space diagonalisation (order eigenvalues)
   LSUBROT=      F    optimize rotation matrix (better conditioning)
   TURBO    =      0    0=normal 1=particle mesh
   IRESTART =      0    0=no restart 2=restart with 2 vectors
   NREBOOT  =      0    no. of reboots
   NMIN     =      0    reboot dimension
   EREF     =   0.00    reference energy to select bands
   IMIX   =      4    mixing-type and parameters
     AMIX     =   0.40;   BMIX     =  1.00
     AMIX_MAG =   1.60;   BMIX_MAG =  1.00
     AMIN     =   0.10
     WC   =   100.;   INIMIX=   1;  MIXPRE=   1;  MAXMIX= -45

 Intra band minimization:
   WEIMIN = 0.0000     energy-eigenvalue tresh-hold
   EBREAK =  0.10E-07  absolut break condition
   DEPER  =   0.30     relativ break condition  

   TIME   =   0.40     timestep for ELM

  volume/ion in A,a.u.               =     337.50      2277.56
  Fermi-wavevector in a.u.,A,eV,Ry     =   0.305814  0.577905  1.272449  0.093522
  Thomas-Fermi vector in A             =   1.179187
 
 Write flags
   LWAVE        =      F    write WAVECAR
   LDOWNSAMPLE  =      F    k-point downsampling of WAVECAR
   LCHARG       =      F    write CHGCAR
   LVTOT        =      F    write LOCPOT, total local potential
   LVHAR        =      F    write LOCPOT, Hartree potential only
   LELF         =      F    write electronic localiz. function (ELF)
   LORBIT       =      0    0 simple, 1 ext, 2 COOP (PROOUT), +10 PAW based schemes


 Dipole corrections
   LMONO  =      F    monopole corrections only (constant potential shift)
   LDIPOL =      F    correct potential (dipole corrections)
   IDIPOL =      0    1-x, 2-y, 3-z, 4-all directions 
   EPSILON=  1.0000000 bulk dielectric constant

 Exchange correlation treatment:
   GGA     =    --    GGA type
   LEXCH   =     8    internal setting for exchange type
   LIBXC   =     F    Libxc                    
   VOSKOWN =     0    Vosko Wilk Nusair interpolation
   LHFCALC =     F    Hartree Fock is set to
   LHFONE  =     F    Hartree Fock one center treatment
   AEXX    =    0.0000 exact exchange contribution

 Linear response parameters
   LEPSILON=     F    determine dielectric tensor
   LRPA    =     F    only Hartree local field effects (RPA)
   LNABLA  =     F    use nabla operator in PAW spheres
   LVEL    =     F    velocity operator in full k-point grid
   CSHIFT  =0.1000    complex shift for real part using Kramers Kronig
   OMEGAMAX=  -1.0    maximum frequency
   DEG_THRESHOLD= 0.2000000E-02 threshold for treating states as degnerate
   RTIME   =   -0.100 relaxation time in fs
  (WPLASMAI=    0.000 imaginary part of plasma frequency in eV, 0.658/RTIME)
   DFIELD  = 0.0000000 0.0000000 0.0000000 field for delta impulse in time
 
  Optional k-point grid parameters
   LKPOINTS_OPT  =     F    use optional k-point grid
   KPOINTS_OPT_MODE=     1    mode for optional k-point grid
 
 Orbital magnetization related:
   ORBITALMAG=     F  switch on orbital magnetization
   LCHIMAG   =     F  perturbation theory with respect to B field
   DQ        =  0.001000  dq finite difference perturbation B field
   LLRAUG    =     F  two centre corrections for induced B field
   LBONE     =     F  B-component reconstruction in AE one-centre
   LVGVCALC  =     T  calculate vGv susceptibility
   LVGVAPPL  =     F  apply vGv susceptibility instead of pGv for G=0

 Random number generation:
   RANDOM_GENERATOR = DEFAULT
   PCG_SEED         = not used


--------------------------------------------------------------------------------------------------------


 Static calculation
 charge density and potential will be updated during run
 non-spin polarized calculation
 Variant of blocked Davidson
 Davidson routine will perform the subspace rotation
 perform sub-space diagonalisation
    after iterative eigenvector-optimisation
 modified Broyden-mixing scheme, WC =      100.0
 initial mixing is a Kerker type mixing with AMIX =  0.4000 and BMIX =      1.0000
 Hartree-type preconditioning will be used
 using additional bands           13
 real space projection scheme for non local part
 calculate Harris-corrections to forces 
   (improved forces if not selfconsistent)
 use gradient corrections 
 use of overlap-Matrix (Vanderbilt PP)
 Gauss-broadening in eV      SIGMA  =   0.05


--------------------------------------------------------------------------------------------------------


  energy-cutoff  :      520.00
  volume of cell :     3375.00
      direct lattice vectors                 reciprocal lattice vectors
    15.000000000  0.000000000  0.000000000     0.066666667  0.000000000  0.000000000
     0.000000000 15.000000000  0.000000000     0.000000000  0.066666667  0.000000000
     0.000000000  0.000000000 15.000000000     0.000000000  0.000000000  0.066666667

  length of vectors
    15.000000000 15.000000000 15.000000000     0.066666667  0.066666667  0.066666667


 
 k-points in units of 2pi/SCALE and weight: K-Spacing Value to Generate K-Mesh: 1.00
   0.00000000  0.00000000  0.00000000       1.000
 
 k-points in reciprocal lattice and weights: K-Spacing Value to Generate K-Mesh: 1.00
   0.00000000  0.00000000  0.00000000       1.000
 
 position of ions in fractional coordinates (direct lattice) 
   0.52866666  0.53326667  0.40006666
   0.49626665  0.46706667  0.44786666
   0.48993333  0.45926666  0.54713332
   0.47773333  0.52373333  0.60620003
   0.53046665  0.52246666  0.32826665
   0.55666669  0.59553331  0.42119999
   0.47093334  0.40680002  0.41620000
   0.49573332  0.39340000  0.57153333
   0.47013334  0.59073334  0.58326664
   0.48353332  0.50786667  0.67826665
 
 position of ions in cartesian coordinates  (Angst):
   7.92999983  7.99900007  6.00099993
   7.44399977  7.00600004  6.71799994
   7.34899998  6.88899994  8.20699978
   7.16599989  7.85599995  9.09300041
   7.95699978  7.83699989  4.92399979
   8.35000038  8.93299961  6.31799984
   7.06400013  6.10200024  6.24300003
   7.43599987  5.90100002  8.57299995
   7.05200005  8.86100006  8.74899960
   7.25299978  7.61800003 10.17399979
 


--------------------------------------------------------------------------------------------------------


 k-point   1 :   0.0000 0.0000 0.0000  plane waves:   90879

 maximum and minimum number of plane-waves per node :     45467    45412

 maximum number of plane-waves:     90879
 maximum index in each direction: 
   IXMAX=   27   IYMAX=   27   IZMAX=   27
   IXMIN=  -27   IYMIN=  -27   IZMIN=  -27


 real space projection operators:
  total allocation   :       1184.57 KBytes
  max/ min on nodes  :        592.39        592.18


 parallel 3D FFT for wavefunctions:
    minimum data exchange during FFTs selected (reduces bandwidth)
 parallel 3D FFT for charge:
    minimum data exchange during FFTs selected (reduces bandwidth)


 total amount of memory used by VASP MPI-rank0   224781. kBytes
=======================================================================

   base      :      30000. kBytes
   nonlr-proj:       1257. kBytes
   fftplans  :     123538. kBytes
   grid      :      67787. kBytes
   one-center:         15. kBytes
   wavefun   :       2184. kBytes
 
     INWAV:  cpu time      0.0000: real time      0.0000
 Broyden mixing: mesh for mixing (old mesh)
   NGX = 55   NGY = 55   NGZ = 55
  (NGX  =224   NGY  =224   NGZ  =224)
  gives a total of 166375 points

 initial charge density was supplied:
 charge density of overlapping atoms calculated
 number of electron      22.0000000 magnetization 
 keeping initial charge density in first step


--------------------------------------------------------------------------------------------------------


 Maximum index for non-local projection operator         1506
 Maximum index for augmentation-charges         2472 (set IRDMAX)


--------------------------------------------------------------------------------------------------------


 First call to EWALD:  gamma=   0.118
 Maximum number of real-space cells 3x 3x 3
 Maximum number of reciprocal cells 3x 3x 3

    FEWALD:  cpu time      0.0011: real time      0.0011


--------------------------------------- Ionic step        1  -------------------------------------------




--------------------------------------- Iteration      1(   1)  ---------------------------------------


    POTLOK:  cpu time      0.3361: real time      0.3380
    SETDIJ:  cpu time      0.1938: real time      0.1946
     EDDAV:  cpu time      0.4174: real time      0.4197
       DOS:  cpu time      0.0002: real time      0.0002
    --------------------------------------------
      LOOP:  cpu time      0.9477: real time      0.9526

 eigenvalue-minimisations  :    64
 total energy-change (2. order) : 0.1084916E+03  (-0.5294592E+03)
 number of electron      22.0000000 magnetization 
 augmentation part       22.0000000 magnetization 

 Free energy of the ion-electron system (eV)
  ---------------------------------------------------
  alpha Z        PSCENC =         0.62641250
  Ewald energy   TEWEN  =       892.81143775
  -Hartree energ DENC   =     -1312.36823600
  -exchange      EXHF   =         0.00000000
  -V(xc)+E(xc)   XCENC  =        67.43955801
  PAW double counting   =       156.01372664     -160.66969168
  entropy T*S    EENTRO =        -0.00001701
  eigenvalues    EBANDS =      -198.87902471
  atomic energy  EATOM  =       663.51739852
  Solvation  Ediel_sol  =         0.00000000
  ---------------------------------------------------
  free energy    TOTEN  =       108.49156403 eV

  energy without entropy =      108.49158103  energy(sigma->0) =      108.49157253


--------------------------------------------------------------------------------------------------------




--------------------------------------- Iteration      1(   2)  ---------------------------------------


     EDDAV:  cpu time      0.4843: real time      0.4870
       DOS:  cpu time      0.0001: real time      0.0001
    --------------------------------------------
      LOOP:  cpu time      0.4844: real time      0.4871

 eigenvalue-minimisations  :    80
 total energy-change (2. order) :-0.1287918E+03  (-0.1249607E+03)
 number of electron      22.0000000 magnetization 
 augmentation part       22.0000000 magnetization 

 Free energy of the ion-electron system (eV)
  ---------------------------------------------------
  alpha Z        PSCENC =         0.62641250
  Ewald energy   TEWEN  =       892.81143775
  -Hartree energ DENC   =     -1312.36823600
  -exchange      EXHF   =         0.00000000
  -V(xc)+E(xc)   XCENC  =        67.43955801
  PAW double counting   =       156.01372664     -160.66969168
  entropy T*S    EENTRO =        -0.00000000
  eigenvalues    EBANDS =      -327.67082441
  atomic energy  EATOM  =       663.51739852
  Solvation  Ediel_sol  =         0.00000000
  ---------------------------------------------------
  free energy    TOTEN  =       -20.30021867 eV

  energy without entropy =      -20.30021867  energy(sigma->0) =      -20.30021867


--------------------------------------------------------------------------------------------------------




--------------------------------------- Iteration      1(   3)  ---------------------------------------


     EDDAV:  cpu time      0.4037: real time      0.4060
       DOS:  cpu time      0.0001: real time      0.0001
    --------------------------------------------
      LOOP:  cpu time      0.4039: real time      0.4061

 eigenvalue-minimisations  :    64
 total energy-change (2. order) :-0.4008334E+02  (-0.3996761E+02)
 number of electron      22.0000000 magnetization 
 augmentation part       22.0000000 magnetization 

 Free energy of the ion-electron system (eV)
  ---------------------------------------------------
  alpha Z        PSCENC =         0.62641250
  Ewald energy   TEWEN  =       892.81143775
  -Hartree energ DENC   =     -1312.36823600
  -exchange      EXHF   =         0.00000000
  -V(xc)+E(xc)   XCENC  =        67.43955801
  PAW double counting   =       156.01372664     -160.66969168
  entropy T*S    EENTRO =        -0.00000000
  eigenvalues    EBANDS =      -367.75416366
  atomic energy  EATOM  =       663.51739852
  Solvation  Ediel_sol  =         0.00000000
  ---------------------------------------------------
  free energy    TOTEN  =       -60.38355791 eV

  energy without entropy =      -60.38355791  energy(sigma->0) =      -60.38355791


--------------------------------------------------------------------------------------------------------




--------------------------------------- Iteration      1(   4)  ---------------------------------------


     EDDAV:  cpu time      0.4442: real time      0.4467
       DOS:  cpu time      0.0001: real time      0.0001
    --------------------------------------------
      LOOP:  cpu time      0.4443: real time      0.4468

 eigenvalue-minimisations  :    72
 total energy-change (2. order) :-0.3406889E+01  (-0.3401432E+01)
 number of electron      22.0000000 magnetization 
 augmentation part       22.0000000 magnetization 

 Free energy of the ion-electron system (eV)
  ---------------------------------------------------
  alpha Z        PSCENC =         0.62641250
  Ewald energy   TEWEN  =       892.81143775
  -Hartree energ DENC   =     -1312.36823600
  -exchange      EXHF   =         0.00000000
  -V(xc)+E(xc)   XCENC  =        67.43955801
  PAW double counting   =       156.01372664     -160.66969168
  entropy T*S    EENTRO =        -0.00000000
  eigenvalues    EBANDS =      -371.16105226
  atomic energy  EATOM  =       663.51739852
  Solvation  Ediel_sol  =         0.00000000
  ---------------------------------------------------
  free energy    TOTEN  =       -63.79044651 eV

  energy without entropy =      -63.79044651  energy(sigma->0) =      -63.79044651


--------------------------------------------------------------------------------------------------------




--------------------------------------- Iteration      1(   5)  ---------------------------------------


     EDDAV:  cpu time      0.4061: real time      0.4085
       DOS:  cpu time      0.0001: real time      0.0001
    CHARGE:  cpu time      0.2064: real time      0.2072
    MIXING:  cpu time      0.0076: real time      0.0076
    --------------------------------------------
      LOOP:  cpu time      0.6202: real time      0.6234

 eigenvalue-minimisations  :    64
 total energy-change (2. order) :-0.3355869E-01  (-0.3353466E-01)
 number of electron      22.0000000 magnetization 
 augmentation part        0.5984715 magnetization 

 Broyden mixing:
  rms(total) = 0.12372E+01    rms(broyden)= 0.12370E+01
  rms(prec ) = 0.14801E+01
  weight for this iteration     100.00

 Free energy of the ion-electron system (eV)
  ---------------------------------------------------
  alpha Z        PSCENC =         0.62641250
  Ewald energy   TEWEN  =       892.81143775
  -Hartree energ DENC   =     -1312.36823600
  -exchange      EXHF   =         0.00000000
  -V(xc)+E(xc)   XCENC  =        67.43955801
  PAW double counting   =       156.01372664     -160.66969168
  entropy T*S    EENTRO =        -0.00000000
  eigenvalues    EBANDS =      -371.19461095
  atomic energy  EATOM  =       663.51739852
  Solvation  Ediel_sol  =         0.00000000
  ---------------------------------------------------
  free energy    TOTEN  =       -63.82400520 eV

  energy without entropy =      -63.82400520  energy(sigma->0) =      -63.82400520


--------------------------------------------------------------------------------------------------------




--------------------------------------- Iteration      1(   6)  ---------------------------------------


    POTLOK:  cpu time      0.3088: real time      0.3104
    SETDIJ:  cpu time      0.1949: real time      0.1958
     EDDAV:  cpu time      0.4475: real time      0.4500
       DOS:  cpu time      0.0001: real time      0.0001
    CHARGE:  cpu time      0.2007: real time      0.2015
    MIXING:  cpu time      0.0077: real time      0.0078
    --------------------------------------------
      LOOP:  cpu time      1.1597: real time      1.1655

 eigenvalue-minimisations  :    72
 total energy-change (2. order) : 0.5634544E+01  (-0.8169654E+00)
 number of electron      22.0000000 magnetization 
 augmentation part        0.5477931 magnetization 

 Broyden mixing:
  rms(total) = 0.59376E+00    rms(broyden)= 0.59373E+00
  rms(prec ) = 0.70359E+00
  weight for this iteration     100.00

 eigenvalues of (default mixing * dielectric matrix)
  average eigenvalue GAMMA=   1.6277
  1.6277

 Free energy of the ion-electron system (eV)
  ---------------------------------------------------
  alpha Z        PSCENC =         0.62641250
  Ewald energy   TEWEN  =       892.81143775
  -Hartree energ DENC   =     -1360.86460627
  -exchange      EXHF   =         0.00000000
  -V(xc)+E(xc)   XCENC  =        69.97727496
  PAW double counting   =       233.81005776     -239.05095533
  entropy T*S    EENTRO =        -0.00000000
  eigenvalues    EBANDS =      -319.01648069
  atomic energy  EATOM  =       663.51739852
  Solvation  Ediel_sol  =         0.00000000
  ---------------------------------------------------
  free energy    TOTEN  =       -58.18946080 eV

  energy without entropy =      -58.18946080  energy(sigma->0) =      -58.18946080


--------------------------------------------------------------------------------------------------------




--------------------------------------- Iteration      1(   7)  ---------------------------------------


    POTLOK:  cpu time      0.3092: real time      0.3109
    SETDIJ:  cpu time      0.1898: real time      0.1907
     EDDAV:  cpu time      0.4154: real time      0.4177
       DOS:  cpu time      0.0001: real time      0.0001
    CHARGE:  cpu time      0.1965: real time      0.1972
    MIXING:  cpu time      0.0112: real time      0.0112
    --------------------------------------------
      LOOP:  cpu time      1.1222: real time      1.1277

 eigenvalue-minimisations  :    64
 total energy-change (2. order) : 0.1341841E+01  (-0.4780019E+00)
 number of electron      22.0000000 magnetization 
 augmentation part        0.5130529 magnetization 

 Broyden mixing:
  rms(total) = 0.22678E+00    rms(broyden)= 0.22670E+00
  rms(prec ) = 0.25981E+00
  weight for this iteration     100.00

 eigenvalues of (default mixing * dielectric matrix)
  average eigenvalue GAMMA=   1.7786
  1.7786  1.7786

 Free energy of the ion-electron system (eV)
  ---------------------------------------------------
  alpha Z        PSCENC =         0.62641250
  Ewald energy   TEWEN  =       892.81143775
  -Hartree energ DENC   =     -1400.85922887
  -exchange      EXHF   =         0.00000000
  -V(xc)+E(xc)   XCENC  =        72.27724247
  PAW double counting   =       300.99829453     -306.51977216
  entropy T*S    EENTRO =        -0.00000000
  eigenvalues    EBANDS =      -279.69940411
  atomic energy  EATOM  =       663.51739852
  Solvation  Ediel_sol  =         0.00000000
  ---------------------------------------------------
  free energy    TOTEN  =       -56.84761936 eV

  energy without entropy =      -56.84761936  energy(sigma->0) =      -56.84761936


--------------------------------------------------------------------------------------------------------




--------------------------------------- Iteration      1(   8)  ---------------------------------------


    POTLOK:  cpu time      0.3135: real time      0.3151
    SETDIJ:  cpu time      0.1941: real time      0.1949
     EDDAV:  cpu time      0.3646: real time      0.3666
       DOS:  cpu time      0.0001: real time      0.0001
    CHARGE:  cpu time      0.1991: real time      0.1998
    MIXING:  cpu time      0.0080: real time      0.0080
    --------------------------------------------
      LOOP:  cpu time      1.0793: real time      1.0845

 eigenvalue-minimisations  :    56
 total energy-change (2. order) : 0.1575405E+00  (-0.2386818E-01)
 number of electron      22.0000000 magnetization 
 augmentation part        0.5131989 magnetization 

 Broyden mixing:
  rms(total) = 0.59600E-01    rms(broyden)= 0.59594E-01
  rms(prec ) = 0.86690E-01
  weight for this iteration     100.00

 eigenvalues of (default mixing * dielectric matrix)
  average eigenvalue GAMMA=   1.6349
  2.3919  0.9102  1.6026

 Free energy of the ion-electron system (eV)
  ---------------------------------------------------
  alpha Z        PSCENC =         0.62641250
  Ewald energy   TEWEN  =       892.81143775
  -Hartree energ DENC   =     -1407.19224073
  -exchange      EXHF   =         0.00000000
  -V(xc)+E(xc)   XCENC  =        72.77527923
  PAW double counting   =       307.24423337     -312.64497645
  entropy T*S    EENTRO =        -0.00000000
  eigenvalues    EBANDS =      -273.82762307
  atomic energy  EATOM  =       663.51739852
  Solvation  Ediel_sol  =         0.00000000
  ---------------------------------------------------
  free energy    TOTEN  =       -56.69007886 eV

  energy without entropy =      -56.69007886  energy(sigma->0) =      -56.69007886


--------------------------------------------------------------------------------------------------------




--------------------------------------- Iteration      1(   9)  ---------------------------------------


    POTLOK:  cpu time      0.3136: real time      0.3153
    SETDIJ:  cpu time      0.1889: real time      0.1896
     EDDAV:  cpu time      0.4887: real time      0.4914
       DOS:  cpu time      0.0001: real time      0.0001
    CHARGE:  cpu time      0.2025: real time      0.2033
    MIXING:  cpu time      0.0080: real time      0.0081
    --------------------------------------------
      LOOP:  cpu time      1.2018: real time      1.2078

 eigenvalue-minimisations  :    80
 total energy-change (2. order) : 0.3444093E-01  (-0.4976120E-02)
 number of electron      22.0000000 magnetization 
 augmentation part        0.5108748 magnetization 

 Broyden mixing:
  rms(total) = 0.23966E-01    rms(broyden)= 0.23963E-01
  rms(prec ) = 0.47265E-01
  weight for this iteration     100.00

 eigenvalues of (default mixing * dielectric matrix)
  average eigenvalue GAMMA=   1.4576
  2.2694  1.6168  0.9720  0.9720

 Free energy of the ion-electron system (eV)
  ---------------------------------------------------
  alpha Z        PSCENC =         0.62641250
  Ewald energy   TEWEN  =       892.81143775
  -Hartree energ DENC   =     -1413.13324125
  -exchange      EXHF   =         0.00000000
  -V(xc)+E(xc)   XCENC  =        73.10340109
  PAW double counting   =       312.48860332     -317.86865710
  entropy T*S    EENTRO =        -0.00000000
  eigenvalues    EBANDS =      -268.20099278
  atomic energy  EATOM  =       663.51739852
  Solvation  Ediel_sol  =         0.00000000
  ---------------------------------------------------
  free energy    TOTEN  =       -56.65563794 eV

  energy without entropy =      -56.65563794  energy(sigma->0) =      -56.65563794


--------------------------------------------------------------------------------------------------------




--------------------------------------- Iteration      1(  10)  ---------------------------------------


    POTLOK:  cpu time      0.3156: real time      0.3172
    SETDIJ:  cpu time      0.1904: real time      0.1912
     EDDAV:  cpu time      0.4072: real time      0.4095
       DOS:  cpu time      0.0001: real time      0.0001
    CHARGE:  cpu time      0.2019: real time      0.2027
    MIXING:  cpu time      0.0082: real time      0.0083
    --------------------------------------------
      LOOP:  cpu time      1.1234: real time      1.1289

 eigenvalue-minimisations  :    64
 total energy-change (2. order) : 0.5075400E-02  (-0.1763035E-02)
 number of electron      22.0000000 magnetization 
 augmentation part        0.5091602 magnetization 

 Broyden mixing:
  rms(total) = 0.17732E-01    rms(broyden)= 0.17729E-01
  rms(prec ) = 0.34436E-01
  weight for this iteration     100.00

 eigenvalues of (default mixing * dielectric matrix)
  average eigenvalue GAMMA=   1.6991
  2.7945  2.3083  1.0251  1.0251  1.3429

 Free energy of the ion-electron system (eV)
  ---------------------------------------------------
  alpha Z        PSCENC =         0.62641250
  Ewald energy   TEWEN  =       892.81143775
  -Hartree energ DENC   =     -1416.08126129
  -exchange      EXHF   =         0.00000000
  -V(xc)+E(xc)   XCENC  =        73.16079838
  PAW double counting   =       312.06103756     -317.45166354
  entropy T*S    EENTRO =        -0.00000000
  eigenvalues    EBANDS =      -265.29472242
  atomic energy  EATOM  =       663.51739852
  Solvation  Ediel_sol  =         0.00000000
  ---------------------------------------------------
  free energy    TOTEN  =       -56.65056254 eV

  energy without entropy =      -56.65056254  energy(sigma->0) =      -56.65056254


--------------------------------------------------------------------------------------------------------




--------------------------------------- Iteration      1(  11)  ---------------------------------------


    POTLOK:  cpu time      0.3147: real time      0.3164
    SETDIJ:  cpu time      0.1914: real time      0.1922
     EDDAV:  cpu time      0.4072: real time      0.4095
       DOS:  cpu time      0.0001: real time      0.0001
    CHARGE:  cpu time      0.1951: real time      0.1959
    MIXING:  cpu time      0.0145: real time      0.0145
    --------------------------------------------
      LOOP:  cpu time      1.1231: real time      1.1286

 eigenvalue-minimisations  :    64
 total energy-change (2. order) : 0.1196777E-01  (-0.7221355E-03)
 number of electron      22.0000000 magnetization 
 augmentation part        0.5089059 magnetization 

 Broyden mixing:
  rms(total) = 0.73723E-02    rms(broyden)= 0.73721E-02
  rms(prec ) = 0.16920E-01
  weight for this iteration     100.00

 eigenvalues of (default mixing * dielectric matrix)
  average eigenvalue GAMMA=   1.7710
  3.3595  2.5187  1.4989  1.1067  1.0710  1.0710

 Free energy of the ion-electron system (eV)
  ---------------------------------------------------
  alpha Z        PSCENC =         0.62641250
  Ewald energy   TEWEN  =       892.81143775
  -Hartree energ DENC   =     -1420.24815340
  -exchange      EXHF   =         0.00000000
  -V(xc)+E(xc)   XCENC  =        73.27444458
  PAW double counting   =       310.75589101     -316.12993078
  entropy T*S    EENTRO =        -0.00000000
  eigenvalues    EBANDS =      -261.24609494
  atomic energy  EATOM  =       663.51739852
  Solvation  Ediel_sol  =         0.00000000
  ---------------------------------------------------
  free energy    TOTEN  =       -56.63859476 eV

  energy without entropy =      -56.63859476  energy(sigma->0) =      -56.63859476


--------------------------------------------------------------------------------------------------------




--------------------------------------- Iteration      1(  12)  ---------------------------------------


    POTLOK:  cpu time      0.3132: real time      0.3149
    SETDIJ:  cpu time      0.1912: real time      0.1920
     EDDAV:  cpu time      0.4142: real time      0.4166
       DOS:  cpu time      0.0001: real time      0.0001
    CHARGE:  cpu time      0.1940: real time      0.1948
    MIXING:  cpu time      0.0137: real time      0.0138
    --------------------------------------------
      LOOP:  cpu time      1.1265: real time      1.1321

 eigenvalue-minimisations  :    64
 total energy-change (2. order) :-0.3661215E-02  (-0.1734342E-03)
 number of electron      22.0000000 magnetization 
 augmentation part        0.5085953 magnetization 

 Broyden mixing:
  rms(total) = 0.58171E-02    rms(broyden)= 0.58170E-02
  rms(prec ) = 0.10899E-01
  weight for this iteration     100.00

 eigenvalues of (default mixing * dielectric matrix)
  average eigenvalue GAMMA=   1.9259
  4.3641  2.4348  2.2296  1.4853  0.9530  1.0073  1.0073

 Free energy of the ion-electron system (eV)
  ---------------------------------------------------
  alpha Z        PSCENC =         0.62641250
  Ewald energy   TEWEN  =       892.81143775
  -Hartree energ DENC   =     -1422.14386946
  -exchange      EXHF   =         0.00000000
  -V(xc)+E(xc)   XCENC  =        73.29957855
  PAW double counting   =       310.20361945     -315.57985148
  entropy T*S    EENTRO =        -0.00000000
  eigenvalues    EBANDS =      -259.37698182
  atomic energy  EATOM  =       663.51739852
  Solvation  Ediel_sol  =         0.00000000
  ---------------------------------------------------
  free energy    TOTEN  =       -56.64225598 eV

  energy without entropy =      -56.64225598  energy(sigma->0) =      -56.64225598


--------------------------------------------------------------------------------------------------------




--------------------------------------- Iteration      1(  13)  ---------------------------------------


    POTLOK:  cpu time      0.3104: real time      0.3120
    SETDIJ:  cpu time      0.1911: real time      0.1919
     EDDAV:  cpu time      0.3267: real time      0.3285
       DOS:  cpu time      0.0001: real time      0.0001
    CHARGE:  cpu time      0.1941: real time      0.1948
    MIXING:  cpu time      0.0148: real time      0.0149
    --------------------------------------------
      LOOP:  cpu time      1.0371: real time      1.0421

 eigenvalue-minimisations  :    48
 total energy-change (2. order) :-0.9400526E-02  (-0.1642669E-03)
 number of electron      22.0000000 magnetization 
 augmentation part        0.5086402 magnetization 

 Broyden mixing:
  rms(total) = 0.28828E-02    rms(broyden)= 0.28825E-02
  rms(prec ) = 0.61597E-02
  weight for this iteration     100.00

 eigenvalues of (default mixing * dielectric matrix)
  average eigenvalue GAMMA=   2.0154
  5.1300  2.7990  2.2336  1.4961  1.4961  0.9425  1.0128  1.0128

 Free energy of the ion-electron system (eV)
  ---------------------------------------------------
  alpha Z        PSCENC =         0.62641250
  Ewald energy   TEWEN  =       892.81143775
  -Hartree energ DENC   =     -1422.64457881
  -exchange      EXHF   =         0.00000000
  -V(xc)+E(xc)   XCENC  =        73.29515336
  PAW double counting   =       310.26178267     -315.63705009
  entropy T*S    EENTRO =        -0.00000000
  eigenvalues    EBANDS =      -258.88221242
  atomic energy  EATOM  =       663.51739852
  Solvation  Ediel_sol  =         0.00000000
  ---------------------------------------------------
  free energy    TOTEN  =       -56.65165651 eV

  energy without entropy =      -56.65165651  energy(sigma->0) =      -56.65165651


--------------------------------------------------------------------------------------------------------




--------------------------------------- Iteration      1(  14)  ---------------------------------------


    POTLOK:  cpu time      0.3099: real time      0.3115
    SETDIJ:  cpu time      0.1916: real time      0.1925
     EDDAV:  cpu time      0.4108: real time      0.4130
       DOS:  cpu time      0.0001: real time      0.0001
    CHARGE:  cpu time      0.1941: real time      0.1948
    MIXING:  cpu time      0.0145: real time      0.0145
    --------------------------------------------
      LOOP:  cpu time      1.1211: real time      1.1265

 eigenvalue-minimisations  :    64
 total energy-change (2. order) :-0.6033043E-02  (-0.8875237E-04)
 number of electron      22.0000000 magnetization 
 augmentation part        0.5085141 magnetization 

 Broyden mixing:
  rms(total) = 0.16868E-02    rms(broyden)= 0.16867E-02
  rms(prec ) = 0.34537E-02
  weight for this iteration     100.00

 eigenvalues of (default mixing * dielectric matrix)
  average eigenvalue GAMMA=   2.1656
  6.2492  3.3965  2.2328  2.1575  1.3896  1.1883  0.9886  0.9886  0.8995

 Free energy of the ion-electron system (eV)
  ---------------------------------------------------
  alpha Z        PSCENC =         0.62641250
  Ewald energy   TEWEN  =       892.81143775
  -Hartree energ DENC   =     -1423.02886799
  -exchange      EXHF   =         0.00000000
  -V(xc)+E(xc)   XCENC  =        73.28961681
  PAW double counting   =       310.33936537     -315.71547315
  entropy T*S    EENTRO =        -0.00000000
  eigenvalues    EBANDS =      -258.49757938
  atomic energy  EATOM  =       663.51739852
  Solvation  Ediel_sol  =         0.00000000
  ---------------------------------------------------
  free energy    TOTEN  =       -56.65768955 eV

  energy without entropy =      -56.65768955  energy(sigma->0) =      -56.65768955


--------------------------------------------------------------------------------------------------------




--------------------------------------- Iteration      1(  15)  ---------------------------------------


    POTLOK:  cpu time      0.3040: real time      0.3056
    SETDIJ:  cpu time      0.1907: real time      0.1915
     EDDAV:  cpu time      0.4085: real time      0.4109
       DOS:  cpu time      0.0001: real time      0.0001
    CHARGE:  cpu time      0.1936: real time      0.1943
    MIXING:  cpu time      0.0138: real time      0.0138
    --------------------------------------------
      LOOP:  cpu time      1.1107: real time      1.1162

 eigenvalue-minimisations  :    64
 total energy-change (2. order) :-0.3672151E-02  (-0.5253059E-04)
 number of electron      22.0000000 magnetization 
 augmentation part        0.5085157 magnetization 

 Broyden mixing:
  rms(total) = 0.10111E-02    rms(broyden)= 0.10111E-02
  rms(prec ) = 0.18173E-02
  weight for this iteration     100.00

 eigenvalues of (default mixing * dielectric matrix)
  average eigenvalue GAMMA=   2.2419
  6.8558  4.0512  2.4459  2.0229  1.5589  1.5589  1.0045  1.0045  1.0130  0.9034

 Free energy of the ion-electron system (eV)
  ---------------------------------------------------
  alpha Z        PSCENC =         0.62641250
  Ewald energy   TEWEN  =       892.81143775
  -Hartree energ DENC   =     -1422.98905724
  -exchange      EXHF   =         0.00000000
  -V(xc)+E(xc)   XCENC  =        73.27855317
  PAW double counting   =       310.31911205     -315.69420404
  entropy T*S    EENTRO =        -0.00000000
  eigenvalues    EBANDS =      -258.53101441
  atomic energy  EATOM  =       663.51739852
  Solvation  Ediel_sol  =         0.00000000
  ---------------------------------------------------
  free energy    TOTEN  =       -56.66136170 eV

  energy without entropy =      -56.66136170  energy(sigma->0) =      -56.66136170


--------------------------------------------------------------------------------------------------------




--------------------------------------- Iteration      1(  16)  ---------------------------------------


    POTLOK:  cpu time      0.3027: real time      0.3043
    SETDIJ:  cpu time      0.1921: real time      0.1929
     EDDAV:  cpu time      0.3694: real time      0.3714
       DOS:  cpu time      0.0002: real time      0.0002
    CHARGE:  cpu time      0.1948: real time      0.1956
    MIXING:  cpu time      0.0162: real time      0.0162
    --------------------------------------------
      LOOP:  cpu time      1.0754: real time      1.0806

 eigenvalue-minimisations  :    56
 total energy-change (2. order) :-0.1251759E-02  (-0.1156643E-04)
 number of electron      22.0000000 magnetization 
 augmentation part        0.5084759 magnetization 

 Broyden mixing:
  rms(total) = 0.61759E-03    rms(broyden)= 0.61748E-03
  rms(prec ) = 0.10318E-02
  weight for this iteration     100.00

 eigenvalues of (default mixing * dielectric matrix)
  average eigenvalue GAMMA=   2.2995
  7.7504  4.4117  2.4721  2.3915  1.8319  1.4441  1.0073  1.0073  0.9637  1.0072
  1.0072

 Free energy of the ion-electron system (eV)
  ---------------------------------------------------
  alpha Z        PSCENC =         0.62641250
  Ewald energy   TEWEN  =       892.81143775
  -Hartree energ DENC   =     -1423.04663615
  -exchange      EXHF   =         0.00000000
  -V(xc)+E(xc)   XCENC  =        73.27875078
  PAW double counting   =       310.35769326     -315.73274282
  entropy T*S    EENTRO =        -0.00000000
  eigenvalues    EBANDS =      -258.47492732
  atomic energy  EATOM  =       663.51739852
  Solvation  Ediel_sol  =         0.00000000
  ---------------------------------------------------
  free energy    TOTEN  =       -56.66261346 eV

  energy without entropy =      -56.66261346  energy(sigma->0) =      -56.66261346


--------------------------------------------------------------------------------------------------------




--------------------------------------- Iteration      1(  17)  ---------------------------------------


    POTLOK:  cpu time      0.3006: real time      0.3022
    SETDIJ:  cpu time      0.1908: real time      0.1917
     EDDAV:  cpu time      0.4053: real time      0.4075
       DOS:  cpu time      0.0001: real time      0.0001
    CHARGE:  cpu time      0.1934: real time      0.1942
    MIXING:  cpu time      0.0172: real time      0.0172
    --------------------------------------------
      LOOP:  cpu time      1.1074: real time      1.1130

 eigenvalue-minimisations  :    64
 total energy-change (2. order) :-0.5037884E-03  (-0.2736459E-05)
 number of electron      22.0000000 magnetization 
 augmentation part        0.5084517 magnetization 

 Broyden mixing:
  rms(total) = 0.31411E-03    rms(broyden)= 0.31404E-03
  rms(prec ) = 0.58487E-03
  weight for this iteration     100.00

 eigenvalues of (default mixing * dielectric matrix)
  average eigenvalue GAMMA=   2.3521
  8.0997  4.8972  2.7678  2.3650  1.7813  1.7813  1.2967  1.2967  1.0091  1.0091
  0.9156  1.0063

 Free energy of the ion-electron system (eV)
  ---------------------------------------------------
  alpha Z        PSCENC =         0.62641250
  Ewald energy   TEWEN  =       892.81143775
  -Hartree energ DENC   =     -1423.05856769
  -exchange      EXHF   =         0.00000000
  -V(xc)+E(xc)   XCENC  =        73.27785418
  PAW double counting   =       310.33454003     -315.70978688
  entropy T*S    EENTRO =        -0.00000000
  eigenvalues    EBANDS =      -258.46240567
  atomic energy  EATOM  =       663.51739852
  Solvation  Ediel_sol  =         0.00000000
  ---------------------------------------------------
  free energy    TOTEN  =       -56.66311725 eV

  energy without entropy =      -56.66311725  energy(sigma->0) =      -56.66311725


--------------------------------------------------------------------------------------------------------




--------------------------------------- Iteration      1(  18)  ---------------------------------------


    POTLOK:  cpu time      0.2982: real time      0.2998
    SETDIJ:  cpu time      0.1913: real time      0.1921
     EDDAV:  cpu time      0.3673: real time      0.3694
       DOS:  cpu time      0.0002: real time      0.0001
    CHARGE:  cpu time      0.1942: real time      0.1949
    MIXING:  cpu time      0.0162: real time      0.0162
    --------------------------------------------
      LOOP:  cpu time      1.0674: real time      1.0726

 eigenvalue-minimisations  :    56
 total energy-change (2. order) :-0.2775193E-03  (-0.1343920E-05)
 number of electron      22.0000000 magnetization 
 augmentation part        0.5084511 magnetization 

 Broyden mixing:
  rms(total) = 0.16236E-03    rms(broyden)= 0.16227E-03
  rms(prec ) = 0.30308E-03
  weight for this iteration     100.00

 eigenvalues of (default mixing * dielectric matrix)
  average eigenvalue GAMMA=   2.3450
  8.5229  5.1867  3.1399  2.4299  2.1292  1.4952  1.4952  1.1248  1.1248  1.0001
  1.0001  0.9184  0.9184

 Free energy of the ion-electron system (eV)
  ---------------------------------------------------
  alpha Z        PSCENC =         0.62641250
  Ewald energy   TEWEN  =       892.81143775
  -Hartree energ DENC   =     -1423.06315692
  -exchange      EXHF   =         0.00000000
  -V(xc)+E(xc)   XCENC  =        73.27759197
  PAW double counting   =       310.32349212     -315.69868509
  entropy T*S    EENTRO =        -0.00000000
  eigenvalues    EBANDS =      -258.45788563
  atomic energy  EATOM  =       663.51739852
  Solvation  Ediel_sol  =         0.00000000
  ---------------------------------------------------
  free energy    TOTEN  =       -56.66339477 eV

  energy without entropy =      -56.66339477  energy(sigma->0) =      -56.66339477


--------------------------------------------------------------------------------------------------------




--------------------------------------- Iteration      1(  19)  ---------------------------------------


    POTLOK:  cpu time      0.2991: real time      0.3007
    SETDIJ:  cpu time      0.1915: real time      0.1923
     EDDAV:  cpu time      0.3660: real time      0.3681
       DOS:  cpu time      0.0001: real time      0.0001
    CHARGE:  cpu time      0.1951: real time      0.1959
    MIXING:  cpu time      0.0165: real time      0.0166
    --------------------------------------------
      LOOP:  cpu time      1.0684: real time      1.0737

 eigenvalue-minimisations  :    56
 total energy-change (2. order) :-0.7436100E-04  (-0.1937049E-06)
 number of electron      22.0000000 magnetization 
 augmentation part        0.5084459 magnetization 

 Broyden mixing:
  rms(total) = 0.13118E-03    rms(broyden)= 0.13109E-03
  rms(prec ) = 0.21851E-03
  weight for this iteration     100.00

 eigenvalues of (default mixing * dielectric matrix)
  average eigenvalue GAMMA=   2.3636
  8.6743  5.4134  3.3859  2.4819  1.9666  1.7965  1.5412  1.4443  1.4443  1.0100
  1.0100  0.9958  0.9958  0.9311

 Free energy of the ion-electron system (eV)
  ---------------------------------------------------
  alpha Z        PSCENC =         0.62641250
  Ewald energy   TEWEN  =       892.81143775
  -Hartree energ DENC   =     -1423.07177348
  -exchange      EXHF   =         0.00000000
  -V(xc)+E(xc)   XCENC  =        73.27768049
  PAW double counting   =       310.32254534     -315.69781578
  entropy T*S    EENTRO =        -0.00000000
  eigenvalues    EBANDS =      -258.44935448
  atomic energy  EATOM  =       663.51739852
  Solvation  Ediel_sol  =         0.00000000
  ---------------------------------------------------
  free energy    TOTEN  =       -56.66346913 eV

  energy without entropy =      -56.66346913  energy(sigma->0) =      -56.66346913


--------------------------------------------------------------------------------------------------------




--------------------------------------- Iteration      1(  20)  ---------------------------------------


    POTLOK:  cpu time      0.3017: real time      0.3033
    SETDIJ:  cpu time      0.1913: real time      0.1921
     EDDAV:  cpu time      0.3694: real time      0.3714
       DOS:  cpu time      0.0001: real time      0.0001
    CHARGE:  cpu time      0.1937: real time      0.1945
    MIXING:  cpu time      0.0177: real time      0.0178
    --------------------------------------------
      LOOP:  cpu time      1.0739: real time      1.0793

 eigenvalue-minimisations  :    56
 total energy-change (2. order) :-0.5545965E-04  (-0.1169751E-06)
 number of electron      22.0000000 magnetization 
 augmentation part        0.5084474 magnetization 

 Broyden mixing:
  rms(total) = 0.79015E-04    rms(broyden)= 0.78874E-04
  rms(prec ) = 0.12249E-03
  weight for this iteration     100.00

 eigenvalues of (default mixing * dielectric matrix)
  average eigenvalue GAMMA=   2.3752
  8.8106  5.6976  3.8793  2.7433  2.4136  1.9858  1.2572  1.2572  1.3461  1.3461
  1.0038  1.0038  0.9145  0.9848  0.9848

 Free energy of the ion-electron system (eV)
  ---------------------------------------------------
  alpha Z        PSCENC =         0.62641250
  Ewald energy   TEWEN  =       892.81143775
  -Hartree energ DENC   =     -1423.07338869
  -exchange      EXHF   =         0.00000000
  -V(xc)+E(xc)   XCENC  =        73.27749739
  PAW double counting   =       310.32226164     -315.69750965
  entropy T*S    EENTRO =        -0.00000000
  eigenvalues    EBANDS =      -258.44763406
  atomic energy  EATOM  =       663.51739852
  Solvation  Ediel_sol  =         0.00000000
  ---------------------------------------------------
  free energy    TOTEN  =       -56.66352459 eV

  energy without entropy =      -56.66352459  energy(sigma->0) =      -56.66352459


--------------------------------------------------------------------------------------------------------




--------------------------------------- Iteration      1(  21)  ---------------------------------------


    POTLOK:  cpu time      0.3075: real time      0.3091
    SETDIJ:  cpu time      0.1908: real time      0.1915
     EDDAV:  cpu time      0.3690: real time      0.3712
       DOS:  cpu time      0.0001: real time      0.0001
    CHARGE:  cpu time      0.1946: real time      0.1954
    MIXING:  cpu time      0.0168: real time      0.0168
    --------------------------------------------
      LOOP:  cpu time      1.0788: real time      1.0841

 eigenvalue-minimisations  :    56
 total energy-change (2. order) :-0.1583287E-04  (-0.2617430E-07)
 number of electron      22.0000000 magnetization 
 augmentation part        0.5084497 magnetization 

 Broyden mixing:
  rms(total) = 0.55767E-04    rms(broyden)= 0.55571E-04
  rms(prec ) = 0.79644E-04
  weight for this iteration     100.00

 eigenvalues of (default mixing * dielectric matrix)
  average eigenvalue GAMMA=   2.4097
  8.9865  6.0057  4.3146  2.8439  2.4837  1.8639  1.8639  1.3963  1.3963  1.4328
  1.0101  1.0101  1.0440  1.0440  0.9296  0.9296

 Free energy of the ion-electron system (eV)
  ---------------------------------------------------
  alpha Z        PSCENC =         0.62641250
  Ewald energy   TEWEN  =       892.81143775
  -Hartree energ DENC   =     -1423.07416535
  -exchange      EXHF   =         0.00000000
  -V(xc)+E(xc)   XCENC  =        73.27745573
  PAW double counting   =       310.32242402     -315.69763772
  entropy T*S    EENTRO =        -0.00000000
  eigenvalues    EBANDS =      -258.44686588
  atomic energy  EATOM  =       663.51739852
  Solvation  Ediel_sol  =         0.00000000
  ---------------------------------------------------
  free energy    TOTEN  =       -56.66354042 eV

  energy without entropy =      -56.66354042  energy(sigma->0) =      -56.66354042


--------------------------------------------------------------------------------------------------------




--------------------------------------- Iteration      1(  22)  ---------------------------------------


    POTLOK:  cpu time      0.3106: real time      0.3122
    SETDIJ:  cpu time      0.1910: real time      0.1918
     EDDAV:  cpu time      0.3741: real time      0.3761
       DOS:  cpu time      0.0001: real time      0.0001
    CHARGE:  cpu time      0.1947: real time      0.1955
    MIXING:  cpu time      0.0175: real time      0.0176
    --------------------------------------------
      LOOP:  cpu time      1.0880: real time      1.0933

 eigenvalue-minimisations  :    56
 total energy-change (2. order) :-0.9510441E-05  (-0.1731222E-07)
 number of electron      22.0000000 magnetization 
 augmentation part        0.5084496 magnetization 

 Broyden mixing:
  rms(total) = 0.32854E-04    rms(broyden)= 0.32524E-04
  rms(prec ) = 0.45414E-04
  weight for this iteration     100.00

 eigenvalues of (default mixing * dielectric matrix)
  average eigenvalue GAMMA=   2.4497
  9.0643  6.3825  4.7560  3.2329  2.4989  2.4989  1.9027  1.3162  1.3162  1.4001
  1.2828  1.0088  1.0088  1.0485  1.0485  0.9371  0.9415

 Free energy of the ion-electron system (eV)
  ---------------------------------------------------
  alpha Z        PSCENC =         0.62641250
  Ewald energy   TEWEN  =       892.81143775
  -Hartree energ DENC   =     -1423.07600616
  -exchange      EXHF   =         0.00000000
  -V(xc)+E(xc)   XCENC  =        73.27749310
  PAW double counting   =       310.32403816     -315.69926013
  entropy T*S    EENTRO =        -0.00000000
  eigenvalues    EBANDS =      -258.44506368
  atomic energy  EATOM  =       663.51739852
  Solvation  Ediel_sol  =         0.00000000
  ---------------------------------------------------
  free energy    TOTEN  =       -56.66354993 eV

  energy without entropy =      -56.66354993  energy(sigma->0) =      -56.66354993


--------------------------------------------------------------------------------------------------------




--------------------------------------- Iteration      1(  23)  ---------------------------------------


    POTLOK:  cpu time      0.3100: real time      0.3117
    SETDIJ:  cpu time      0.1905: real time      0.1913
     EDDAV:  cpu time      0.3670: real time      0.3691
       DOS:  cpu time      0.0002: real time      0.0002
    CHARGE:  cpu time      0.1942: real time      0.1950
    MIXING:  cpu time      0.0168: real time      0.0169
    --------------------------------------------
      LOOP:  cpu time      1.0788: real time      1.0841

 eigenvalue-minimisations  :    56
 total energy-change (2. order) :-0.3916288E-05  (-0.7807847E-08)
 number of electron      22.0000000 magnetization 
 augmentation part        0.5084490 magnetization 

 Broyden mixing:
  rms(total) = 0.19083E-04    rms(broyden)= 0.18515E-04
  rms(prec ) = 0.24740E-04
  weight for this iteration     100.00

 eigenvalues of (default mixing * dielectric matrix)
  average eigenvalue GAMMA=   2.4519
  9.1303  6.5851  4.9033  3.4618  2.6342  2.4239  1.9126  1.9126  1.3570  1.3570
  1.4042  1.0097  1.0097  1.1257  0.9252  0.9919  0.9950  0.9950

 Free energy of the ion-electron system (eV)
  ---------------------------------------------------
  alpha Z        PSCENC =         0.62641250
  Ewald energy   TEWEN  =       892.81143775
  -Hartree energ DENC   =     -1423.07672828
  -exchange      EXHF   =         0.00000000
  -V(xc)+E(xc)   XCENC  =        73.27748150
  PAW double counting   =       310.32359986     -315.69883007
  entropy T*S    EENTRO =        -0.00000000
  eigenvalues    EBANDS =      -258.44432563
  atomic energy  EATOM  =       663.51739852
  Solvation  Ediel_sol  =         0.00000000
  ---------------------------------------------------
  free energy    TOTEN  =       -56.66355385 eV

  energy without entropy =      -56.66355385  energy(sigma->0) =      -56.66355385


--------------------------------------------------------------------------------------------------------




--------------------------------------- Iteration      1(  24)  ---------------------------------------


    POTLOK:  cpu time      0.3131: real time      0.3147
    SETDIJ:  cpu time      0.1907: real time      0.1915
     EDDAV:  cpu time      0.3678: real time      0.3699
       DOS:  cpu time      0.0001: real time      0.0001
    CHARGE:  cpu time      0.1942: real time      0.1950
    MIXING:  cpu time      0.0165: real time      0.0165
    --------------------------------------------
      LOOP:  cpu time      1.0825: real time      1.0878

 eigenvalue-minimisations  :    56
 total energy-change (2. order) :-0.1448703E-05  (-0.3535678E-08)
 number of electron      22.0000000 magnetization 
 augmentation part        0.5084487 magnetization 

 Broyden mixing:
  rms(total) = 0.88190E-05    rms(broyden)= 0.75147E-05
  rms(prec ) = 0.12009E-04
  weight for this iteration     100.00
  WARNING: grid for Broyden might be to small

 eigenvalues of (default mixing * dielectric matrix)
  average eigenvalue GAMMA=   2.4539
  9.1754  6.8318  5.1376  3.7255  2.7585  2.4252  2.2501  1.9280  1.3375  1.3375
  1.4215  1.2020  1.2020  1.0087  1.0087  1.0089  1.0089  0.9284  0.9284

 Free energy of the ion-electron system (eV)
  ---------------------------------------------------
  alpha Z        PSCENC =         0.62641250
  Ewald energy   TEWEN  =       892.81143775
  -Hartree energ DENC   =     -1423.07663737
  -exchange      EXHF   =         0.00000000
  -V(xc)+E(xc)   XCENC  =        73.27748371
  PAW double counting   =       310.32362968     -315.69885760
  entropy T*S    EENTRO =        -0.00000000
  eigenvalues    EBANDS =      -258.44442249
  atomic energy  EATOM  =       663.51739852
  Solvation  Ediel_sol  =         0.00000000
  ---------------------------------------------------
  free energy    TOTEN  =       -56.66355530 eV

  energy without entropy =      -56.66355530  energy(sigma->0) =      -56.66355530


--------------------------------------------------------------------------------------------------------




--------------------------------------- Iteration      1(  25)  ---------------------------------------


    POTLOK:  cpu time      0.3156: real time      0.3173
    SETDIJ:  cpu time      0.1906: real time      0.1914
     EDDAV:  cpu time      0.4076: real time      0.4098
       DOS:  cpu time      0.0001: real time      0.0001
    --------------------------------------------
      LOOP:  cpu time      0.9138: real time      0.9186

 eigenvalue-minimisations  :    64
 total energy-change (2. order) :-0.5366622E-06  (-0.9445493E-09)
 number of electron      22.0000000 magnetization 
 augmentation part        0.5084487 magnetization 

 Free energy of the ion-electron system (eV)
  ---------------------------------------------------
  alpha Z        PSCENC =         0.62641250
  Ewald energy   TEWEN  =       892.81143775
  -Hartree energ DENC   =     -1423.07701283
  -exchange      EXHF   =         0.00000000
  -V(xc)+E(xc)   XCENC  =        73.27749431
  PAW double counting   =       310.32351520     -315.69874275
  entropy T*S    EENTRO =        -0.00000000
  eigenvalues    EBANDS =      -258.44405854
  atomic energy  EATOM  =       663.51739852
  Solvation  Ediel_sol  =         0.00000000
  ---------------------------------------------------
  free energy    TOTEN  =       -56.66355583 eV

  energy without entropy =      -56.66355583  energy(sigma->0) =      -56.66355583


--------------------------------------------------------------------------------------------------------




 average (electrostatic) potential at core
  the test charge radii are     0.6991  0.5201
  (the norm of the test charge is              1.0000)
       1 -58.4931       2 -58.7713       3 -58.6401       4 -58.4350       5 -41.8506
       6 -42.2355       7 -42.0029       8 -42.2310       9 -42.1074      10 -41.8073
 
 
 
 E-fermi :  -5.6605     XC(G=0):  -0.4360     alpha+bet : -0.1681

 Fermi energy:        -5.6605295555

 k-point     1 :       0.0000    0.0000    0.0000
  band No.  band energies     occupation 
      1     -19.8330      2.00000
      2     -18.1018      2.00000
      3     -15.1414      2.00000
      4     -12.9388      2.00000
      5     -11.8744      2.00000
      6     -10.6926      2.00000
      7     -10.2155      2.00000
      8      -8.9267      2.00000
      9      -8.0471      2.00000
     10      -7.5373      2.00000
     11      -5.9134      2.00000
     12      -1.7500      0.00000
     13      -0.3996      0.00000
     14       0.0928      0.00000
     15       0.2355      0.00000
     16       0.3482      0.00000
     17       0.4536      0.00000
     18       0.4655      0.00000
     19       0.5511      0.00000
     20       0.7337      0.00000
     21       0.9070      0.00000
     22       0.9505      0.00000
     23       1.0115      0.00000
     24       1.1251      0.00000


--------------------------------------------------------------------------------------------------------


 soft charge-density along one line, spin component           1
         0         1         2         3         4         5         6         7         8         9
 total charge-density along one line
 
 pseudopotential strength for first ion, spin component:           1
 10.252   0.020   0.001  -0.002   0.001   0.002  -0.001   0.001
  0.020  -0.001  -0.000   0.000  -0.000   0.000  -0.000   0.000
  0.001  -0.000  -4.363   0.004  -0.010  -0.019   0.001  -0.003
 -0.002   0.000   0.004  -4.359   0.003   0.001  -0.019   0.001
  0.001  -0.000  -0.010   0.003  -4.346  -0.003   0.001  -0.015
  0.002   0.000  -0.019   0.001  -0.003  -0.773   0.000  -0.000
 -0.001  -0.000   0.001  -0.019   0.001   0.000  -0.773   0.000
  0.001   0.000  -0.003   0.001  -0.015  -0.000   0.000  -0.772
 total augmentation occupancy for first ion, spin component:           1
  1.496  -1.140  -0.036   0.037  -0.016  -0.023   0.015  -0.009
 -1.140   0.956   0.105  -0.058   0.041   0.045  -0.025   0.018
 -0.036   0.105   1.200  -0.039   0.143   0.208  -0.015   0.055
  0.037  -0.058  -0.039   1.213  -0.037  -0.015   0.203  -0.016
 -0.016   0.041   0.143  -0.037   0.982   0.054  -0.016   0.118
 -0.023   0.045   0.208  -0.015   0.054   0.039  -0.005   0.014
  0.015  -0.025  -0.015   0.203  -0.016  -0.005   0.036  -0.004
 -0.009   0.018   0.055  -0.016   0.118   0.014  -0.004   0.016


------------------------ aborting loop because EDIFF is reached ----------------------------------------


    CHARGE:  cpu time      0.1947: real time      0.1955
    FORLOC:  cpu time      0.0359: real time      0.0360
    FORNL :  cpu time      1.0758: real time      1.0809
    STRESS:  cpu time      3.3945: real time      3.4102
    FORHAR:  cpu time      0.1101: real time      0.1107
    MIXING:  cpu time      0.0119: real time      0.0120
    OFIELD:  cpu time      0.0001: real time      0.0001

  FORCE on cell =-STRESS in cart. coord.  units (eV):
  Direction    XX          YY          ZZ          XY          YZ          ZX
  --------------------------------------------------------------------------------------
  Alpha Z     0.62641     0.62641     0.62641
  Ewald    -144.42360   353.98246   683.25225    86.50907   -10.17316  -120.20797
  Hartree   232.14796   456.34435   734.58466    40.57392    -7.96027   -81.49765
  E(xc)     -78.21519   -76.37452   -76.20560     0.30365    -0.00978    -0.16058
  Local    -309.91449  -992.91072 -1606.97054  -120.72600    17.26878   200.14190
  n-local   -29.34404   -32.44948   -31.58444    -0.32580    -0.16085     0.02195
  augment    -0.56185    -0.79517    -0.71588    -0.03717     0.00843     0.00501
  Kinetic   329.77869   295.57770   297.24890    -6.19435     1.41311     1.53582
  Fock        0.00000     0.00000     0.00000     0.00000     0.00000     0.00000
  -------------------------------------------------------------------------------------
  Total       0.09390     4.00103     0.23578     0.10332     0.38627    -0.16154
  in kB       0.04458     1.89937     0.11193     0.04905     0.18337    -0.07668
  external pressure =        0.69 kB  Pullay stress =        0.00 kB


 VOLUME and BASIS-vectors are now :
 -----------------------------------------------------------------------------
  energy-cutoff  :      520.00
  volume of cell :     3375.00
      direct lattice vectors                 reciprocal lattice vectors
    15.000000000  0.000000000  0.000000000     0.066666667  0.000000000  0.000000000
     0.000000000 15.000000000  0.000000000     0.000000000  0.066666667  0.000000000
     0.000000000  0.000000000 15.000000000     0.000000000  0.000000000  0.066666667

  length of vectors
    15.000000000 15.000000000 15.000000000     0.066666667  0.066666667  0.066666667


 FORCES acting on ions
    electron-ion (+dipol)            ewald-force                    non-local-force                 convergence-correction
 -----------------------------------------------------------------------------------------------
   -.492E+02 -.919E+02 0.103E+03   0.496E+02 0.929E+02 -.104E+03   -.280E+00 -.993E+00 -.597E+00   -.436E-04 -.788E-04 0.830E-04
   0.282E+02 0.785E+02 0.483E+02   -.287E+02 -.790E+02 -.474E+02   -.181E+00 -.344E+00 0.131E+01   0.139E-05 0.623E-05 -.503E-04
   0.880E-02 0.897E+02 -.318E+02   0.524E+00 -.892E+02 0.311E+02   -.396E+00 0.653E-01 -.868E+00   0.268E-04 -.569E-04 -.142E-03
   0.294E+02 -.823E+02 -.126E+03   -.297E+02 0.829E+02 0.127E+03   0.774E+00 -.866E+00 -.333E+00   0.101E-04 0.270E-04 -.285E-04
   -.626E+01 0.266E+00 0.676E+02   0.637E+01 -.966E+00 -.735E+02   -.150E+00 0.912E+00 0.564E+01   -.292E-05 -.132E-05 0.251E-04
   -.291E+02 -.598E+02 -.208E+01   0.317E+02 0.655E+02 0.438E+01   -.238E+01 -.527E+01 -.167E+01   -.858E-05 -.165E-04 0.178E-05
   0.241E+02 0.582E+02 0.348E+02   -.260E+02 -.630E+02 -.377E+02   0.205E+01 0.478E+01 0.247E+01   0.138E-04 0.331E-04 0.198E-04
   -.510E+01 0.680E+02 -.277E+02   0.576E+01 -.752E+02 0.304E+02   -.511E+00 0.583E+01 -.225E+01   0.377E-05 -.116E-04 -.854E-05
   0.110E+02 -.652E+02 -.293E+00   -.118E+02 0.717E+02 -.167E+01   0.650E+00 -.567E+01 0.204E+01   0.943E-06 0.189E-04 -.143E-04
   -.218E+01 0.487E+01 -.663E+02   0.233E+01 -.571E+01 0.710E+02   -.485E+00 0.122E+01 -.527E+01   0.460E-05 -.421E-05 0.140E-04
 -----------------------------------------------------------------------------------------------
   0.906E+00 0.332E+00 -.482E+00   0.888E-15 -.400E-13 0.142E-13   -.903E+00 -.339E+00 0.483E+00   0.630E-05 -.840E-04 -.994E-04
 
 
 POSITION                                       TOTAL-FORCE (eV/Angst)
 -----------------------------------------------------------------------------------
      7.93000      7.99900      6.00100         0.189493      0.020693     -1.525104
      7.44400      7.00600      6.71800        -0.690579     -0.858555      2.165130
      7.34900      6.88900      8.20700         0.137373      0.542088     -1.551413
      7.16600      7.85600      9.09300         0.420414     -0.230850      1.002011
      7.95700      7.83700      4.92400        -0.038616      0.212684     -0.190931
      8.35000      8.93300      6.31800         0.201433      0.405604      0.635811
      7.06400      6.10200      6.24300         0.112526     -0.036780     -0.426573
      7.43600      5.90100      8.57300         0.157077     -1.331241      0.374594
      7.05200      8.86100      8.74900        -0.163438      0.894950      0.083632
      7.25300      7.61800     10.17400        -0.325683      0.381407     -0.567158
 -----------------------------------------------------------------------------------
    total drift:                                0.003062     -0.007275      0.000558


--------------------------------------------------------------------------------------------------------



  FREE ENERGIE OF THE ION-ELECTRON SYSTEM (eV)
  ---------------------------------------------------
  free  energy   TOTEN  =       -56.66355583 eV

  energy  without entropy=      -56.66355583  energy(sigma->0) =      -56.66355583
 


--------------------------------------------------------------------------------------------------------


    POTLOK:  cpu time      0.5070: real time      0.5094


--------------------------------------------------------------------------------------------------------


 stress matrix after NEB project (eV)
      0.09390      0.10332     -0.16154
      0.10332      4.00103      0.38627
     -0.16154      0.38627      0.23578
  FORCES: max atom, RMS     2.429363    1.282627
  FORCE total and by dimension    4.056022    2.165130
  Stress total and by dimension    4.055198    4.001034
     LOOP+:  cpu time     30.2632: real time     30.4124
    4ORBIT:  cpu time      0.0000: real time      0.0000

 total amount of memory used by VASP MPI-rank0   224781. kBytes
=======================================================================

   base      :      30000. kBytes
   nonlr-proj:       1257. kBytes
   fftplans  :     123538. kBytes
   grid      :      67787. kBytes
   one-center:         15. kBytes
   wavefun   :       2184. kBytes
 
  
  
 General timing and accounting informations for this job:
 ========================================================
  
                  Total CPU time used (sec):       36.883
                            User time (sec):       33.690
                          System time (sec):        3.193
                         Elapsed time (sec):       37.900
  
                   Maximum memory used (kb):      560784.
                   Average memory used (kb):          N/A
  
                          Minor page faults:       167242
                          Major page faults:         5450
                 Voluntary context switches:         3143
