 vasp.6.4.2 20Jul23 (build Apr 10 2024 13:39:58) complex                        
  
 executed on             LinuxIFC date 2024.05.17  16:34:55
 running   16 mpi-ranks, on    1 nodes
 distrk:  each k-point on   16 cores,    1 groups
 distr:  one band on NCORE=   2 cores,    8 groups


--------------------------------------------------------------------------------------------------------


 INCAR:
   ISTART = 0
   ISPIN = 1
   LREAL = Auto
   ENCUT = 520
   NPAR = 8
   LPLANE = .TRUE.
   LSCALU = .FALSE.
   NSIM = 4
   LWAVE = .FALSE.
   LCHARG = .FALSE.
   ADDGRID = .TRUE.
   LASPH = .TRUE.
   PREC = Accurate
   ISMEAR = 0
   SIGMA = 0.05
   EDIFF = 1E-06
   NSW = 0
   TEBEG = 300
   TEEND = 700     	
   ISYM = 0
   NWRITE = 2

 POTCAR:   PAW_PBE C 08Apr2002                    
 POTCAR:   PAW_PBE H 15Jun2001                    
 POTCAR:   PAW_PBE C 08Apr2002                    
   VRHFIN =C: s2p2                                                                                  
   LEXCH  = PE                                                                                      
   EATOM  =   147.1560 eV,   10.8157 Ry                                                             
                                                                                                    
   TITEL  = PAW_PBE C 08Apr2002                                                                     
   LULTRA =        F    use ultrasoft PP ?                                                          
   IUNSCR =        0    unscreen: 0-lin 1-nonlin 2-no                                               
   RPACOR =     .000    partial core radius                                                         
   POMASS =   12.011; ZVAL   =    4.000    mass and valenz                                          
   RCORE  =    1.500    outmost cutoff radius                                                       
   RWIGS  =    1.630; RWIGS  =     .863    wigner-seitz radius (au A)                               
   ENMAX  =  400.000; ENMIN  =  300.000 eV                                                          
   ICORE  =        2    local potential                                                             
   LCOR   =        T    correct aug charges                                                         
   LPAW   =        T    paw PP                                                                      
   EAUG   =  644.873                                                                                
   DEXC   =     .000                                                                                
   RMAX   =    2.266    core radius for proj-oper                                                   
   RAUG   =    1.300    factor for augmentation sphere                                              
   RDEP   =    1.501    radius for radial grids                                                     
   RDEPT  =    1.300    core radius for aug-charge                                                  
   QCUT   =   -5.516; QGAM   =   11.032    optimization parameters                                  
                                                                                                    
   Description                                                                                      
     l     E      TYP  RCUT    TYP  RCUT                                                            
     0   .000     23  1.200                                                                         
     0   .000     23  1.200                                                                         
     1   .000     23  1.500                                                                         
     1  2.500     23  1.500                                                                         
     2   .000      7  1.500                                                                         
  local pseudopotential read in
  atomic valenz-charges read in
  non local Contribution for L=           0  read in
    real space projection operators read in
  non local Contribution for L=           0  read in
    real space projection operators read in
  non local Contribution for L=           1  read in
    real space projection operators read in
  non local Contribution for L=           1  read in
    real space projection operators read in
    PAW grid and wavefunctions read in
 
   number of l-projection  operators is LMAX  =           4
   number of lm-projection operators is LMMAX =           8
 
 POTCAR:   PAW_PBE H 15Jun2001                    
   VRHFIN =H: ultrasoft test                                                                        
   LEXCH  = PE                                                                                      
   EATOM  =    12.4884 eV,     .9179 Ry                                                             
                                                                                                    
   TITEL  = PAW_PBE H 15Jun2001                                                                     
   LULTRA =        F    use ultrasoft PP ?                                                          
   IUNSCR =        0    unscreen: 0-lin 1-nonlin 2-no                                               
   RPACOR =     .000    partial core radius                                                         
   POMASS =    1.000; ZVAL   =    1.000    mass and valenz                                          
   RCORE  =    1.100    outmost cutoff radius                                                       
   RWIGS  =     .700; RWIGS  =     .370    wigner-seitz radius (au A)                               
   ENMAX  =  250.000; ENMIN  =  200.000 eV                                                          
   RCLOC  =     .701    cutoff for local pot                                                        
   LCOR   =        T    correct aug charges                                                         
   LPAW   =        T    paw PP                                                                      
   EAUG   =  400.000                                                                                
   RMAX   =    2.174    core radius for proj-oper                                                   
   RAUG   =    1.200    factor for augmentation sphere                                              
   RDEP   =    1.112    radius for radial grids                                                     
   QCUT   =   -5.749; QGAM   =   11.498    optimization parameters                                  
                                                                                                    
   Description                                                                                      
     l     E      TYP  RCUT    TYP  RCUT                                                            
     0   .000     23  1.100                                                                         
     0   .500     23  1.100                                                                         
     1  -.300     23  1.100                                                                         
  local pseudopotential read in
  atomic valenz-charges read in
  non local Contribution for L=           0  read in
    real space projection operators read in
  non local Contribution for L=           0  read in
    real space projection operators read in
  non local Contribution for L=           1  read in
    real space projection operators read in
    PAW grid and wavefunctions read in
 
   number of l-projection  operators is LMAX  =           3
   number of lm-projection operators is LMMAX =           5
 
 Optimization of the real space projectors (new method)

 maximal supplied QI-value         = 25.13
 optimisation between [QCUT,QGAM] = [ 11.56, 23.12] = [ 37.43,149.72] Ry 
 Optimized for a Real-space Cutoff    1.04 Angstroem

   l    n(q)    QCUT    max X(q) W(low)/X(q) W(high)/X(q)  e(spline) 
   0      7    11.561     5.582    0.47E-04    0.94E-04    0.17E-07
   0      7    11.561    69.432    0.20E-03    0.59E-03    0.21E-06
   1      7    11.561     2.780    0.24E-04    0.70E-04    0.44E-07
   1      7    11.561     4.549    0.18E-03    0.25E-03    0.12E-06
 Optimization of the real space projectors (new method)

 maximal supplied QI-value         = 34.20
 optimisation between [QCUT,QGAM] = [ 11.63, 23.26] = [ 37.87,151.49] Ry 
 Optimized for a Real-space Cutoff    1.21 Angstroem

   l    n(q)    QCUT    max X(q) W(low)/X(q) W(high)/X(q)  e(spline) 
   0      8    11.629     4.436    0.19E-04    0.32E-04    0.47E-07
   0      8    11.629    16.131    0.16E-03    0.33E-03    0.21E-06
   1      8    11.629     4.654    0.18E-03    0.16E-03    0.26E-06
 PAW_PBE C 08Apr2002                    :
 energy of atom  1       EATOM= -147.1560
 kinetic energy error for atom=    0.0071 (will be added to EATOM!!)
 PAW_PBE H 15Jun2001                    :
 energy of atom  2       EATOM=  -12.4884
 kinetic energy error for atom=    0.0014 (will be added to EATOM!!)
 
 
 POSCAR:  C  H
  positions in cartesian coordinates
  No initial velocities read in
 exchange correlation table for  LEXCH =        8
   RHO(1)=    0.500       N(1)  =     2000
   RHO(2)=  100.500       N(2)  =     4000

 VTST: version 4.1, (05/19/21)

 CHAIN: initializing optimizer
 
 OPT: Using VASP Dynamics algorithm
 CHAIN: Read ICHAIN            0
 
 POSCAR:  C  H
  positions in cartesian coordinates
  No initial velocities read in
 


--------------------------------------------------------------------------------------------------------


 ion  position               nearest neighbor table
   1  0.537  0.480  0.397-   6 1.11   5 1.13   2 1.32
   2  0.489  0.534  0.445-   7 1.12   1 1.32   3 1.59
   3  0.480  0.536  0.551-   8 1.09   4 1.34   2 1.59
   4  0.487  0.466  0.607-   9 1.07  10 1.09   3 1.34
   5  0.537  0.481  0.321-   1 1.13
   6  0.589  0.435  0.425-   1 1.11
   7  0.442  0.585  0.417-   2 1.12
   8  0.468  0.605  0.570-   3 1.09
   9  0.491  0.397  0.589-   4 1.07
  10  0.480  0.481  0.677-   4 1.09
 

IMPORTANT INFORMATION: All symmetrisations will be switched off!
NOSYMM: (Re-)initialisation of all symmetry stuff for point group C_1.


----------------------------------------------------------------------------------------

                                     Primitive cell                                     

  volume of cell :    3375.0000

  direct lattice vectors                    reciprocal lattice vectors
    15.000000000  0.000000000  0.000000000     0.066666667  0.000000000  0.000000000
     0.000000000 15.000000000  0.000000000     0.000000000  0.066666667  0.000000000
     0.000000000  0.000000000 15.000000000     0.000000000  0.000000000  0.066666667

  length of vectors
    15.000000000 15.000000000 15.000000000     0.066666667  0.066666667  0.066666667

  position of ions in fractional coordinates (direct lattice)
     0.537266668  0.479733340  0.396533330
     0.488799985  0.534333356  0.445266660
     0.480466652  0.535866674  0.550733312
     0.486533324  0.466399988  0.606599998
     0.537333361  0.480933348  0.321466668
     0.588733355  0.434600004  0.425333341
     0.441933346  0.584800021  0.417199993
     0.468199984  0.604733340  0.569933319
     0.491200002  0.397266674  0.589466667
     0.479533323  0.481333319  0.677466647

  ion indices of the primitive-cell ions
   primitive index   ion index
                 1           1
                 2           2
                 3           3
                 4           4
                 5           5
                 6           6
                 7           7
                 8           8
                 9           9
                10          10

----------------------------------------------------------------------------------------

 
 
 KPOINTS: K-Spacing Value to Generate K-Mesh: 1.00

Automatic generation of k-mesh.
 Grid dimensions read from file:
 generate k-points for:    1    1    1

 Generating k-lattice:

  Cartesian coordinates                     Fractional coordinates (reciprocal lattice)
     0.066666667  0.000000000  0.000000000     1.000000000  0.000000000  0.000000000
     0.000000000  0.066666667  0.000000000     0.000000000  1.000000000  0.000000000
     0.000000000  0.000000000  0.066666667     0.000000000  0.000000000  1.000000000

  Length of vectors
     0.066666667  0.066666667  0.066666667

  Shift w.r.t. Gamma in fractional coordinates (k-lattice)
     0.000000000  0.000000000  0.000000000

 
 Subroutine IBZKPT returns following result:
 ===========================================
 
 Found      1 irreducible k-points:
 
 Following reciprocal coordinates:
            Coordinates               Weight
  0.000000  0.000000  0.000000      1.000000
 
 Following cartesian coordinates:
            Coordinates               Weight
  0.000000  0.000000  0.000000      1.000000
 


--------------------------------------------------------------------------------------------------------




 Dimension of arrays:
   k-points           NKPTS =      1   k-points in BZ     NKDIM =      1   number of bands    NBANDS=     24
   number of dos      NEDOS =    301   number of ions     NIONS =     10
   non local maximal  LDIM  =      4   non local SUM 2l+1 LMDIM =      8
   total plane-waves  NPLWV = ******
   max r-space proj   IRMAX =   3145   max aug-charges    IRDMAX=  39494
   dimension x,y,z NGX =   112 NGY =  112 NGZ =  112
   dimension x,y,z NGXF=   224 NGYF=  224 NGZF=  224
   support grid    NGXF=   448 NGYF=  448 NGZF=  448
   ions per type =               4   6
   NGX,Y,Z   is equivalent  to a cutoff of  12.41, 12.41, 12.41 a.u.
   NGXF,Y,Z  is equivalent  to a cutoff of  24.83, 24.83, 24.83 a.u.

 SYSTEM =  unknown system                          
 POSCAR =   C  H                                   

 Startparameter for this run:
   NWRITE =      2    write-flag & timer
   PREC   = accura    normal or accurate (medium, high low for compatibility)
   ISTART =      0    job   : 0-new  1-cont  2-samecut
   ICHARG =      2    charge: 1-file 2-atom 10-const
   ISPIN  =      1    spin polarized calculation?
   LNONCOLLINEAR =      F non collinear calculations
   LSORBIT =      F    spin-orbit coupling
   INIWAV =      1    electr: 0-lowe 1-rand  2-diag
   LASPH  =      T    aspherical Exc in radial PAW
 Electronic Relaxation 1
   ENCUT  =  520.0 eV  38.22 Ry    6.18 a.u.  27.89 27.89 27.89*2*pi/ulx,y,z
   ENINI  =  520.0     initial cutoff
   ENAUG  =  644.9 eV  augmentation charge cutoff
   NELM   =     60;   NELMIN=  2; NELMDL= -5     # of ELM steps 
   EDIFF  = 0.1E-05   stopping-criterion for ELM
   LREAL  =      T    real-space projection
   NLSPLINE    = F    spline interpolate recip. space projectors
   LCOMPAT=      F    compatible to vasp.4.4
   GGA_COMPAT  = T    GGA compatible to vasp.4.4-vasp.4.6
   LMAXPAW     = -100 max onsite density
   LMAXMIX     =    2 max onsite mixed and CHGCAR
   VOSKOWN=      0    Vosko Wilk Nusair interpolation
   ROPT   =   -0.00025  -0.00025
 Ionic relaxation
   EDIFFG = 0.1E-04   stopping-criterion for IOM
   NSW    =      0    number of steps for IOM
   NBLOCK =      1;   KBLOCK =      1    inner block; outer block 
   IBRION =     -1    ionic relax: 0-MD 1-quasi-New 2-CG
   NFREE  =      0    steps in history (QN), initial steepest desc. (CG)
   ISIF   =      2    stress and relaxation
   IWAVPR =     10    prediction:  0-non 1-charg 2-wave 3-comb
   ISYM   =      0    0-nonsym 1-usesym 2-fastsym
   LCORR  =      T    Harris-Foulkes like correction to forces

   POTIM  = 0.5000    time-step for ionic-motion
   TEIN   =    0.0    initial temperature
   TEBEG  =  300.0;   TEEND  = 700.0 temperature during run
   SMASS  =  -3.00    Nose mass-parameter (am)
   estimated Nose-frequenzy (Omega)   =  0.10E-29 period in steps = 0.13E+47 mass=  -0.514E-26a.u.
   SCALEE = 1.0000    scale energy and forces
   NPACO  =    256;   APACO  = 10.0  distance and # of slots for P.C.
   PSTRESS=    0.0 pullay stress

  Mass of Ions in am
   POMASS =  12.01  1.00
  Ionic Valenz
   ZVAL   =   4.00  1.00
  Atomic Wigner-Seitz radii
   RWIGS  =  -1.00 -1.00
  virtual crystal weights 
   VCA    =   1.00  1.00
   NELECT =      22.0000    total number of electrons
   NUPDOWN=      -1.0000    fix difference up-down

 DOS related values:
   EMIN   =  10.00;   EMAX   =-10.00  energy-range for DOS
   EFERMI =   0.00;   METHOD = LEGACY      
   ISMEAR =     0;   SIGMA  =   0.05  broadening in eV -4-tet -1-fermi 0-gaus

 Electronic relaxation 2 (details)
   IALGO  =     38    algorithm
   LDIAG  =      T    sub-space diagonalisation (order eigenvalues)
   LSUBROT=      F    optimize rotation matrix (better conditioning)
   TURBO    =      0    0=normal 1=particle mesh
   IRESTART =      0    0=no restart 2=restart with 2 vectors
   NREBOOT  =      0    no. of reboots
   NMIN     =      0    reboot dimension
   EREF     =   0.00    reference energy to select bands
   IMIX   =      4    mixing-type and parameters
     AMIX     =   0.40;   BMIX     =  1.00
     AMIX_MAG =   1.60;   BMIX_MAG =  1.00
     AMIN     =   0.10
     WC   =   100.;   INIMIX=   1;  MIXPRE=   1;  MAXMIX= -45

 Intra band minimization:
   WEIMIN = 0.0000     energy-eigenvalue tresh-hold
   EBREAK =  0.10E-07  absolut break condition
   DEPER  =   0.30     relativ break condition  

   TIME   =   0.40     timestep for ELM

  volume/ion in A,a.u.               =     337.50      2277.56
  Fermi-wavevector in a.u.,A,eV,Ry     =   0.305814  0.577905  1.272449  0.093522
  Thomas-Fermi vector in A             =   1.179187
 
 Write flags
   LWAVE        =      F    write WAVECAR
   LDOWNSAMPLE  =      F    k-point downsampling of WAVECAR
   LCHARG       =      F    write CHGCAR
   LVTOT        =      F    write LOCPOT, total local potential
   LVHAR        =      F    write LOCPOT, Hartree potential only
   LELF         =      F    write electronic localiz. function (ELF)
   LORBIT       =      0    0 simple, 1 ext, 2 COOP (PROOUT), +10 PAW based schemes


 Dipole corrections
   LMONO  =      F    monopole corrections only (constant potential shift)
   LDIPOL =      F    correct potential (dipole corrections)
   IDIPOL =      0    1-x, 2-y, 3-z, 4-all directions 
   EPSILON=  1.0000000 bulk dielectric constant

 Exchange correlation treatment:
   GGA     =    --    GGA type
   LEXCH   =     8    internal setting for exchange type
   LIBXC   =     F    Libxc                    
   VOSKOWN =     0    Vosko Wilk Nusair interpolation
   LHFCALC =     F    Hartree Fock is set to
   LHFONE  =     F    Hartree Fock one center treatment
   AEXX    =    0.0000 exact exchange contribution

 Linear response parameters
   LEPSILON=     F    determine dielectric tensor
   LRPA    =     F    only Hartree local field effects (RPA)
   LNABLA  =     F    use nabla operator in PAW spheres
   LVEL    =     F    velocity operator in full k-point grid
   CSHIFT  =0.1000    complex shift for real part using Kramers Kronig
   OMEGAMAX=  -1.0    maximum frequency
   DEG_THRESHOLD= 0.2000000E-02 threshold for treating states as degnerate
   RTIME   =   -0.100 relaxation time in fs
  (WPLASMAI=    0.000 imaginary part of plasma frequency in eV, 0.658/RTIME)
   DFIELD  = 0.0000000 0.0000000 0.0000000 field for delta impulse in time
 
  Optional k-point grid parameters
   LKPOINTS_OPT  =     F    use optional k-point grid
   KPOINTS_OPT_MODE=     1    mode for optional k-point grid
 
 Orbital magnetization related:
   ORBITALMAG=     F  switch on orbital magnetization
   LCHIMAG   =     F  perturbation theory with respect to B field
   DQ        =  0.001000  dq finite difference perturbation B field
   LLRAUG    =     F  two centre corrections for induced B field
   LBONE     =     F  B-component reconstruction in AE one-centre
   LVGVCALC  =     T  calculate vGv susceptibility
   LVGVAPPL  =     F  apply vGv susceptibility instead of pGv for G=0

 Random number generation:
   RANDOM_GENERATOR = DEFAULT
   PCG_SEED         = not used


--------------------------------------------------------------------------------------------------------


 Static calculation
 charge density and potential will be updated during run
 non-spin polarized calculation
 Variant of blocked Davidson
 Davidson routine will perform the subspace rotation
 perform sub-space diagonalisation
    after iterative eigenvector-optimisation
 modified Broyden-mixing scheme, WC =      100.0
 initial mixing is a Kerker type mixing with AMIX =  0.4000 and BMIX =      1.0000
 Hartree-type preconditioning will be used
 using additional bands           13
 real space projection scheme for non local part
 calculate Harris-corrections to forces 
   (improved forces if not selfconsistent)
 use gradient corrections 
 use of overlap-Matrix (Vanderbilt PP)
 Gauss-broadening in eV      SIGMA  =   0.05


--------------------------------------------------------------------------------------------------------


  energy-cutoff  :      520.00
  volume of cell :     3375.00
      direct lattice vectors                 reciprocal lattice vectors
    15.000000000  0.000000000  0.000000000     0.066666667  0.000000000  0.000000000
     0.000000000 15.000000000  0.000000000     0.000000000  0.066666667  0.000000000
     0.000000000  0.000000000 15.000000000     0.000000000  0.000000000  0.066666667

  length of vectors
    15.000000000 15.000000000 15.000000000     0.066666667  0.066666667  0.066666667


 
 k-points in units of 2pi/SCALE and weight: K-Spacing Value to Generate K-Mesh: 1.00
   0.00000000  0.00000000  0.00000000       1.000
 
 k-points in reciprocal lattice and weights: K-Spacing Value to Generate K-Mesh: 1.00
   0.00000000  0.00000000  0.00000000       1.000
 
 position of ions in fractional coordinates (direct lattice) 
   0.53726667  0.47973334  0.39653333
   0.48879999  0.53433336  0.44526666
   0.48046665  0.53586667  0.55073331
   0.48653332  0.46639999  0.60660000
   0.53733336  0.48093335  0.32146667
   0.58873336  0.43460000  0.42533334
   0.44193335  0.58480002  0.41719999
   0.46819998  0.60473334  0.56993332
   0.49120000  0.39726667  0.58946667
   0.47953332  0.48133332  0.67746665
 
 position of ions in cartesian coordinates  (Angst):
   8.05900002  7.19600010  5.94799995
   7.33199978  8.01500034  6.67899990
   7.20699978  8.03800011  8.26099968
   7.29799986  6.99599981  9.09899998
   8.06000042  7.21400023  4.82200003
   8.83100033  6.51900005  6.38000011
   6.62900019  8.77200031  6.25799990
   7.02299976  9.07100010  8.54899979
   7.36800003  5.95900011  8.84200001
   7.19299984  7.21999979 10.16199970
 


--------------------------------------------------------------------------------------------------------


 k-point   1 :   0.0000 0.0000 0.0000  plane waves:   90879

 maximum and minimum number of plane-waves per node :     45467    45412

 maximum number of plane-waves:     90879
 maximum index in each direction: 
   IXMAX=   27   IYMAX=   27   IZMAX=   27
   IXMIN=  -27   IYMIN=  -27   IZMIN=  -27


 real space projection operators:
  total allocation   :       1185.22 KBytes
  max/ min on nodes  :        593.00        592.22


 parallel 3D FFT for wavefunctions:
    minimum data exchange during FFTs selected (reduces bandwidth)
 parallel 3D FFT for charge:
    minimum data exchange during FFTs selected (reduces bandwidth)


 total amount of memory used by VASP MPI-rank0   224783. kBytes
=======================================================================

   base      :      30000. kBytes
   nonlr-proj:       1259. kBytes
   fftplans  :     123538. kBytes
   grid      :      67787. kBytes
   one-center:         15. kBytes
   wavefun   :       2184. kBytes
 
     INWAV:  cpu time      0.0000: real time      0.0000
 Broyden mixing: mesh for mixing (old mesh)
   NGX = 55   NGY = 55   NGZ = 55
  (NGX  =224   NGY  =224   NGZ  =224)
  gives a total of 166375 points

 initial charge density was supplied:
 charge density of overlapping atoms calculated
 number of electron      22.0000000 magnetization 
 keeping initial charge density in first step


--------------------------------------------------------------------------------------------------------


 Maximum index for non-local projection operator         1518
 Maximum index for augmentation-charges         2500 (set IRDMAX)


--------------------------------------------------------------------------------------------------------


 First call to EWALD:  gamma=   0.118
 Maximum number of real-space cells 3x 3x 3
 Maximum number of reciprocal cells 3x 3x 3

    FEWALD:  cpu time      0.0013: real time      0.0013


--------------------------------------- Ionic step        1  -------------------------------------------




--------------------------------------- Iteration      1(   1)  ---------------------------------------


    POTLOK:  cpu time      0.3366: real time      0.3385
    SETDIJ:  cpu time      0.1940: real time      0.1948
     EDDAV:  cpu time      0.4164: real time      0.4186
       DOS:  cpu time      0.0003: real time      0.0003
    --------------------------------------------
      LOOP:  cpu time      0.9472: real time      0.9522

 eigenvalue-minimisations  :    64
 total energy-change (2. order) : 0.1010502E+03  (-0.5291851E+03)
 number of electron      22.0000000 magnetization 
 augmentation part       22.0000000 magnetization 

 Free energy of the ion-electron system (eV)
  ---------------------------------------------------
  alpha Z        PSCENC =         0.62641250
  Ewald energy   TEWEN  =       859.21984673
  -Hartree energ DENC   =     -1286.12550377
  -exchange      EXHF   =         0.00000000
  -V(xc)+E(xc)   XCENC  =        66.96799105
  PAW double counting   =       156.01372664     -160.66969168
  entropy T*S    EENTRO =        -0.00274414
  eigenvalues    EBANDS =      -198.49719269
  atomic energy  EATOM  =       663.51739852
  Solvation  Ediel_sol  =         0.00000000
  ---------------------------------------------------
  free energy    TOTEN  =       101.05024318 eV

  energy without entropy =      101.05298732  energy(sigma->0) =      101.05161525


--------------------------------------------------------------------------------------------------------




--------------------------------------- Iteration      1(   2)  ---------------------------------------


     EDDAV:  cpu time      0.4831: real time      0.4857
       DOS:  cpu time      0.0001: real time      0.0001
    --------------------------------------------
      LOOP:  cpu time      0.4832: real time      0.4859

 eigenvalue-minimisations  :    80
 total energy-change (2. order) :-0.1239382E+03  (-0.1215101E+03)
 number of electron      22.0000000 magnetization 
 augmentation part       22.0000000 magnetization 

 Free energy of the ion-electron system (eV)
  ---------------------------------------------------
  alpha Z        PSCENC =         0.62641250
  Ewald energy   TEWEN  =       859.21984673
  -Hartree energ DENC   =     -1286.12550377
  -exchange      EXHF   =         0.00000000
  -V(xc)+E(xc)   XCENC  =        66.96799105
  PAW double counting   =       156.01372664     -160.66969168
  entropy T*S    EENTRO =        -0.00000000
  eigenvalues    EBANDS =      -322.43808748
  atomic energy  EATOM  =       663.51739852
  Solvation  Ediel_sol  =         0.00000000
  ---------------------------------------------------
  free energy    TOTEN  =       -22.88790747 eV

  energy without entropy =      -22.88790747  energy(sigma->0) =      -22.88790747


--------------------------------------------------------------------------------------------------------




--------------------------------------- Iteration      1(   3)  ---------------------------------------


     EDDAV:  cpu time      0.4418: real time      0.4442
       DOS:  cpu time      0.0001: real time      0.0001
    --------------------------------------------
      LOOP:  cpu time      0.4419: real time      0.4443

 eigenvalue-minimisations  :    72
 total energy-change (2. order) :-0.3794547E+02  (-0.3786739E+02)
 number of electron      22.0000000 magnetization 
 augmentation part       22.0000000 magnetization 

 Free energy of the ion-electron system (eV)
  ---------------------------------------------------
  alpha Z        PSCENC =         0.62641250
  Ewald energy   TEWEN  =       859.21984673
  -Hartree energ DENC   =     -1286.12550377
  -exchange      EXHF   =         0.00000000
  -V(xc)+E(xc)   XCENC  =        66.96799105
  PAW double counting   =       156.01372664     -160.66969168
  entropy T*S    EENTRO =        -0.00000000
  eigenvalues    EBANDS =      -360.38355583
  atomic energy  EATOM  =       663.51739852
  Solvation  Ediel_sol  =         0.00000000
  ---------------------------------------------------
  free energy    TOTEN  =       -60.83337583 eV

  energy without entropy =      -60.83337583  energy(sigma->0) =      -60.83337583


--------------------------------------------------------------------------------------------------------




--------------------------------------- Iteration      1(   4)  ---------------------------------------


     EDDAV:  cpu time      0.4421: real time      0.4445
       DOS:  cpu time      0.0001: real time      0.0001
    --------------------------------------------
      LOOP:  cpu time      0.4422: real time      0.4446

 eigenvalue-minimisations  :    72
 total energy-change (2. order) :-0.2172749E+01  (-0.2170675E+01)
 number of electron      22.0000000 magnetization 
 augmentation part       22.0000000 magnetization 

 Free energy of the ion-electron system (eV)
  ---------------------------------------------------
  alpha Z        PSCENC =         0.62641250
  Ewald energy   TEWEN  =       859.21984673
  -Hartree energ DENC   =     -1286.12550377
  -exchange      EXHF   =         0.00000000
  -V(xc)+E(xc)   XCENC  =        66.96799105
  PAW double counting   =       156.01372664     -160.66969168
  entropy T*S    EENTRO =        -0.00000000
  eigenvalues    EBANDS =      -362.55630472
  atomic energy  EATOM  =       663.51739852
  Solvation  Ediel_sol  =         0.00000000
  ---------------------------------------------------
  free energy    TOTEN  =       -63.00612472 eV

  energy without entropy =      -63.00612472  energy(sigma->0) =      -63.00612472


--------------------------------------------------------------------------------------------------------




--------------------------------------- Iteration      1(   5)  ---------------------------------------


     EDDAV:  cpu time      0.4052: real time      0.4074
       DOS:  cpu time      0.0001: real time      0.0001
    CHARGE:  cpu time      0.1996: real time      0.2004
    MIXING:  cpu time      0.0121: real time      0.0121
    --------------------------------------------
      LOOP:  cpu time      0.6170: real time      0.6200

 eigenvalue-minimisations  :    64
 total energy-change (2. order) :-0.1771249E-01  (-0.1770566E-01)
 number of electron      22.0000000 magnetization 
 augmentation part        0.5758910 magnetization 

 Broyden mixing:
  rms(total) = 0.11836E+01    rms(broyden)= 0.11834E+01
  rms(prec ) = 0.14185E+01
  weight for this iteration     100.00

 Free energy of the ion-electron system (eV)
  ---------------------------------------------------
  alpha Z        PSCENC =         0.62641250
  Ewald energy   TEWEN  =       859.21984673
  -Hartree energ DENC   =     -1286.12550377
  -exchange      EXHF   =         0.00000000
  -V(xc)+E(xc)   XCENC  =        66.96799105
  PAW double counting   =       156.01372664     -160.66969168
  entropy T*S    EENTRO =        -0.00000000
  eigenvalues    EBANDS =      -362.57401721
  atomic energy  EATOM  =       663.51739852
  Solvation  Ediel_sol  =         0.00000000
  ---------------------------------------------------
  free energy    TOTEN  =       -63.02383721 eV

  energy without entropy =      -63.02383721  energy(sigma->0) =      -63.02383721


--------------------------------------------------------------------------------------------------------




--------------------------------------- Iteration      1(   6)  ---------------------------------------


    POTLOK:  cpu time      0.3080: real time      0.3097
    SETDIJ:  cpu time      0.1942: real time      0.1950
     EDDAV:  cpu time      0.4446: real time      0.4471
       DOS:  cpu time      0.0002: real time      0.0001
    CHARGE:  cpu time      0.1948: real time      0.1955
    MIXING:  cpu time      0.0135: real time      0.0135
    --------------------------------------------
      LOOP:  cpu time      1.1553: real time      1.1610

 eigenvalue-minimisations  :    72
 total energy-change (2. order) : 0.5129133E+01  (-0.7881665E+00)
 number of electron      22.0000000 magnetization 
 augmentation part        0.5263825 magnetization 

 Broyden mixing:
  rms(total) = 0.56988E+00    rms(broyden)= 0.56985E+00
  rms(prec ) = 0.67465E+00
  weight for this iteration     100.00

 eigenvalues of (default mixing * dielectric matrix)
  average eigenvalue GAMMA=   1.5814
  1.5814

 Free energy of the ion-electron system (eV)
  ---------------------------------------------------
  alpha Z        PSCENC =         0.62641250
  Ewald energy   TEWEN  =       859.21984673
  -Hartree energ DENC   =     -1332.05997884
  -exchange      EXHF   =         0.00000000
  -V(xc)+E(xc)   XCENC  =        69.39782728
  PAW double counting   =       228.13728196     -233.33745588
  entropy T*S    EENTRO =        -0.00000000
  eigenvalues    EBANDS =      -313.39603692
  atomic energy  EATOM  =       663.51739852
  Solvation  Ediel_sol  =         0.00000000
  ---------------------------------------------------
  free energy    TOTEN  =       -57.89470464 eV

  energy without entropy =      -57.89470464  energy(sigma->0) =      -57.89470464


--------------------------------------------------------------------------------------------------------




--------------------------------------- Iteration      1(   7)  ---------------------------------------


    POTLOK:  cpu time      0.3102: real time      0.3119
    SETDIJ:  cpu time      0.1932: real time      0.1940
     EDDAV:  cpu time      0.4133: real time      0.4155
       DOS:  cpu time      0.0002: real time      0.0002
    CHARGE:  cpu time      0.1950: real time      0.1957
    MIXING:  cpu time      0.0135: real time      0.0136
    --------------------------------------------
      LOOP:  cpu time      1.1254: real time      1.1309

 eigenvalue-minimisations  :    64
 total energy-change (2. order) : 0.1213391E+01  (-0.3890706E+00)
 number of electron      22.0000000 magnetization 
 augmentation part        0.4953915 magnetization 

 Broyden mixing:
  rms(total) = 0.22327E+00    rms(broyden)= 0.22320E+00
  rms(prec ) = 0.25667E+00
  weight for this iteration     100.00

 eigenvalues of (default mixing * dielectric matrix)
  average eigenvalue GAMMA=   1.5991
  1.4760  1.7222

 Free energy of the ion-electron system (eV)
  ---------------------------------------------------
  alpha Z        PSCENC =         0.62641250
  Ewald energy   TEWEN  =       859.21984673
  -Hartree energ DENC   =     -1368.38496842
  -exchange      EXHF   =         0.00000000
  -V(xc)+E(xc)   XCENC  =        71.50103511
  PAW double counting   =       286.65075870     -292.09301881
  entropy T*S    EENTRO =        -0.00000000
  eigenvalues    EBANDS =      -277.71877794
  atomic energy  EATOM  =       663.51739852
  Solvation  Ediel_sol  =         0.00000000
  ---------------------------------------------------
  free energy    TOTEN  =       -56.68131360 eV

  energy without entropy =      -56.68131360  energy(sigma->0) =      -56.68131360


--------------------------------------------------------------------------------------------------------




--------------------------------------- Iteration      1(   8)  ---------------------------------------


    POTLOK:  cpu time      0.3131: real time      0.3147
    SETDIJ:  cpu time      0.1928: real time      0.1936
     EDDAV:  cpu time      0.4065: real time      0.4087
       DOS:  cpu time      0.0001: real time      0.0001
    CHARGE:  cpu time      0.1949: real time      0.1957
    MIXING:  cpu time      0.0119: real time      0.0120
    --------------------------------------------
      LOOP:  cpu time      1.1194: real time      1.1248

 eigenvalue-minimisations  :    64
 total energy-change (2. order) : 0.1444332E+00  (-0.1984548E-01)
 number of electron      22.0000000 magnetization 
 augmentation part        0.4935101 magnetization 

 Broyden mixing:
  rms(total) = 0.87288E-01    rms(broyden)= 0.87283E-01
  rms(prec ) = 0.11121E+00
  weight for this iteration     100.00

 eigenvalues of (default mixing * dielectric matrix)
  average eigenvalue GAMMA=   1.6372
  2.4197  0.8891  1.6030

 Free energy of the ion-electron system (eV)
  ---------------------------------------------------
  alpha Z        PSCENC =         0.62641250
  Ewald energy   TEWEN  =       859.21984673
  -Hartree energ DENC   =     -1375.33721019
  -exchange      EXHF   =         0.00000000
  -V(xc)+E(xc)   XCENC  =        72.00569696
  PAW double counting   =       294.14017512     -299.50322479
  entropy T*S    EENTRO =        -0.00000000
  eigenvalues    EBANDS =      -271.20597528
  atomic energy  EATOM  =       663.51739852
  Solvation  Ediel_sol  =         0.00000000
  ---------------------------------------------------
  free energy    TOTEN  =       -56.53688041 eV

  energy without entropy =      -56.53688041  energy(sigma->0) =      -56.53688041


--------------------------------------------------------------------------------------------------------




--------------------------------------- Iteration      1(   9)  ---------------------------------------


    POTLOK:  cpu time      0.3143: real time      0.3160
    SETDIJ:  cpu time      0.1939: real time      0.1946
     EDDAV:  cpu time      0.4839: real time      0.4866
       DOS:  cpu time      0.0001: real time      0.0001
    CHARGE:  cpu time      0.1950: real time      0.1958
    MIXING:  cpu time      0.0130: real time      0.0131
    --------------------------------------------
      LOOP:  cpu time      1.2003: real time      1.2062

 eigenvalue-minimisations  :    80
 total energy-change (2. order) : 0.4706332E-01  (-0.6436186E-02)
 number of electron      22.0000000 magnetization 
 augmentation part        0.4920841 magnetization 

 Broyden mixing:
  rms(total) = 0.25604E-01    rms(broyden)= 0.25598E-01
  rms(prec ) = 0.48119E-01
  weight for this iteration     100.00

 eigenvalues of (default mixing * dielectric matrix)
  average eigenvalue GAMMA=   1.4414
  2.2571  1.6118  0.9483  0.9483

 Free energy of the ion-electron system (eV)
  ---------------------------------------------------
  alpha Z        PSCENC =         0.62641250
  Ewald energy   TEWEN  =       859.21984673
  -Hartree energ DENC   =     -1381.59276370
  -exchange      EXHF   =         0.00000000
  -V(xc)+E(xc)   XCENC  =        72.38228491
  PAW double counting   =       298.50281541     -303.81488342
  entropy T*S    EENTRO =        -0.00000000
  eigenvalues    EBANDS =      -265.33092804
  atomic energy  EATOM  =       663.51739852
  Solvation  Ediel_sol  =         0.00000000
  ---------------------------------------------------
  free energy    TOTEN  =       -56.48981709 eV

  energy without entropy =      -56.48981709  energy(sigma->0) =      -56.48981709


--------------------------------------------------------------------------------------------------------




--------------------------------------- Iteration      1(  10)  ---------------------------------------


    POTLOK:  cpu time      0.3153: real time      0.3169
    SETDIJ:  cpu time      0.1946: real time      0.1954
     EDDAV:  cpu time      0.4845: real time      0.4872
       DOS:  cpu time      0.0002: real time      0.0002
    CHARGE:  cpu time      0.1956: real time      0.1964
    MIXING:  cpu time      0.0136: real time      0.0136
    --------------------------------------------
      LOOP:  cpu time      1.2037: real time      1.2097

 eigenvalue-minimisations  :    80
 total energy-change (2. order) : 0.4156202E-02  (-0.1551222E-02)
 number of electron      22.0000000 magnetization 
 augmentation part        0.4910277 magnetization 

 Broyden mixing:
  rms(total) = 0.17190E-01    rms(broyden)= 0.17187E-01
  rms(prec ) = 0.35510E-01
  weight for this iteration     100.00

 eigenvalues of (default mixing * dielectric matrix)
  average eigenvalue GAMMA=   1.6596
  2.6926  2.2857  0.9995  0.9995  1.3210

 Free energy of the ion-electron system (eV)
  ---------------------------------------------------
  alpha Z        PSCENC =         0.62641250
  Ewald energy   TEWEN  =       859.21984673
  -Hartree energ DENC   =     -1383.77853006
  -exchange      EXHF   =         0.00000000
  -V(xc)+E(xc)   XCENC  =        72.41506623
  PAW double counting   =       298.06451335     -303.38743672
  entropy T*S    EENTRO =        -0.00000000
  eigenvalues    EBANDS =      -263.16293144
  atomic energy  EATOM  =       663.51739852
  Solvation  Ediel_sol  =         0.00000000
  ---------------------------------------------------
  free energy    TOTEN  =       -56.48566089 eV

  energy without entropy =      -56.48566089  energy(sigma->0) =      -56.48566089


--------------------------------------------------------------------------------------------------------




--------------------------------------- Iteration      1(  11)  ---------------------------------------


    POTLOK:  cpu time      0.3145: real time      0.3161
    SETDIJ:  cpu time      0.1927: real time      0.1935
     EDDAV:  cpu time      0.4514: real time      0.4538
       DOS:  cpu time      0.0001: real time      0.0001
    CHARGE:  cpu time      0.1999: real time      0.2007
    MIXING:  cpu time      0.0115: real time      0.0115
    --------------------------------------------
      LOOP:  cpu time      1.1701: real time      1.1757

 eigenvalue-minimisations  :    72
 total energy-change (2. order) : 0.1181199E-01  (-0.8774925E-03)
 number of electron      22.0000000 magnetization 
 augmentation part        0.4906377 magnetization 

 Broyden mixing:
  rms(total) = 0.77917E-02    rms(broyden)= 0.77912E-02
  rms(prec ) = 0.17491E-01
  weight for this iteration     100.00

 eigenvalues of (default mixing * dielectric matrix)
  average eigenvalue GAMMA=   1.6789
  3.0719  2.4693  1.3231  1.1942  1.0074  1.0074

 Free energy of the ion-electron system (eV)
  ---------------------------------------------------
  alpha Z        PSCENC =         0.62641250
  Ewald energy   TEWEN  =       859.21984673
  -Hartree energ DENC   =     -1388.33523900
  -exchange      EXHF   =         0.00000000
  -V(xc)+E(xc)   XCENC  =        72.54078031
  PAW double counting   =       296.79747462     -302.10581645
  entropy T*S    EENTRO =        -0.00000000
  eigenvalues    EBANDS =      -258.73470613
  atomic energy  EATOM  =       663.51739852
  Solvation  Ediel_sol  =         0.00000000
  ---------------------------------------------------
  free energy    TOTEN  =       -56.47384890 eV

  energy without entropy =      -56.47384890  energy(sigma->0) =      -56.47384890


--------------------------------------------------------------------------------------------------------




--------------------------------------- Iteration      1(  12)  ---------------------------------------


    POTLOK:  cpu time      0.3134: real time      0.3151
    SETDIJ:  cpu time      0.1922: real time      0.1931
     EDDAV:  cpu time      0.4449: real time      0.4475
       DOS:  cpu time      0.0001: real time      0.0001
    CHARGE:  cpu time      0.1980: real time      0.1988
    MIXING:  cpu time      0.0095: real time      0.0095
    --------------------------------------------
      LOOP:  cpu time      1.1580: real time      1.1642

 eigenvalue-minimisations  :    72
 total energy-change (2. order) :-0.1600978E-02  (-0.1265374E-03)
 number of electron      22.0000000 magnetization 
 augmentation part        0.4903750 magnetization 

 Broyden mixing:
  rms(total) = 0.55138E-02    rms(broyden)= 0.55136E-02
  rms(prec ) = 0.11845E-01
  weight for this iteration     100.00

 eigenvalues of (default mixing * dielectric matrix)
  average eigenvalue GAMMA=   1.8941
  4.2690  2.4869  2.1116  1.4743  0.9214  0.9978  0.9978

 Free energy of the ion-electron system (eV)
  ---------------------------------------------------
  alpha Z        PSCENC =         0.62641250
  Ewald energy   TEWEN  =       859.21984673
  -Hartree energ DENC   =     -1389.81333157
  -exchange      EXHF   =         0.00000000
  -V(xc)+E(xc)   XCENC  =        72.56216047
  PAW double counting   =       296.33552229     -301.64473248
  entropy T*S    EENTRO =        -0.00000000
  eigenvalues    EBANDS =      -257.27872634
  atomic energy  EATOM  =       663.51739852
  Solvation  Ediel_sol  =         0.00000000
  ---------------------------------------------------
  free energy    TOTEN  =       -56.47544988 eV

  energy without entropy =      -56.47544988  energy(sigma->0) =      -56.47544988


--------------------------------------------------------------------------------------------------------




--------------------------------------- Iteration      1(  13)  ---------------------------------------


    POTLOK:  cpu time      0.3103: real time      0.3120
    SETDIJ:  cpu time      0.1914: real time      0.1922
     EDDAV:  cpu time      0.3757: real time      0.3778
       DOS:  cpu time      0.0001: real time      0.0001
    CHARGE:  cpu time      0.1983: real time      0.1991
    MIXING:  cpu time      0.0106: real time      0.0106
    --------------------------------------------
      LOOP:  cpu time      1.0864: real time      1.0918

 eigenvalue-minimisations  :    56
 total energy-change (2. order) :-0.9036110E-02  (-0.1462176E-03)
 number of electron      22.0000000 magnetization 
 augmentation part        0.4903064 magnetization 

 Broyden mixing:
  rms(total) = 0.30873E-02    rms(broyden)= 0.30871E-02
  rms(prec ) = 0.64932E-02
  weight for this iteration     100.00

 eigenvalues of (default mixing * dielectric matrix)
  average eigenvalue GAMMA=   1.9690
  5.0080  2.6666  2.1047  1.5259  1.5259  0.9283  0.9963  0.9963

 Free energy of the ion-electron system (eV)
  ---------------------------------------------------
  alpha Z        PSCENC =         0.62641250
  Ewald energy   TEWEN  =       859.21984673
  -Hartree energ DENC   =     -1390.82993286
  -exchange      EXHF   =         0.00000000
  -V(xc)+E(xc)   XCENC  =        72.56632075
  PAW double counting   =       296.20321177     -301.51277419
  entropy T*S    EENTRO =        -0.00000000
  eigenvalues    EBANDS =      -256.27496921
  atomic energy  EATOM  =       663.51739852
  Solvation  Ediel_sol  =         0.00000000
  ---------------------------------------------------
  free energy    TOTEN  =       -56.48448599 eV

  energy without entropy =      -56.48448599  energy(sigma->0) =      -56.48448599


--------------------------------------------------------------------------------------------------------




--------------------------------------- Iteration      1(  14)  ---------------------------------------


    POTLOK:  cpu time      0.3092: real time      0.3108
    SETDIJ:  cpu time      0.1926: real time      0.1934
     EDDAV:  cpu time      0.4055: real time      0.4078
       DOS:  cpu time      0.0002: real time      0.0002
    CHARGE:  cpu time      0.1993: real time      0.2001
    MIXING:  cpu time      0.0099: real time      0.0100
    --------------------------------------------
      LOOP:  cpu time      1.1165: real time      1.1222

 eigenvalue-minimisations  :    64
 total energy-change (2. order) :-0.6434026E-02  (-0.8810797E-04)
 number of electron      22.0000000 magnetization 
 augmentation part        0.4901506 magnetization 

 Broyden mixing:
  rms(total) = 0.20580E-02    rms(broyden)= 0.20579E-02
  rms(prec ) = 0.39236E-02
  weight for this iteration     100.00

 eigenvalues of (default mixing * dielectric matrix)
  average eigenvalue GAMMA=   2.1623
  6.1924  3.5006  2.3384  1.9058  1.3262  1.3262  0.9100  0.9806  0.9806

 Free energy of the ion-electron system (eV)
  ---------------------------------------------------
  alpha Z        PSCENC =         0.62641250
  Ewald energy   TEWEN  =       859.21984673
  -Hartree energ DENC   =     -1391.22280472
  -exchange      EXHF   =         0.00000000
  -V(xc)+E(xc)   XCENC  =        72.56171502
  PAW double counting   =       296.36507473     -301.67592605
  entropy T*S    EENTRO =        -0.00000000
  eigenvalues    EBANDS =      -255.88263676
  atomic energy  EATOM  =       663.51739852
  Solvation  Ediel_sol  =         0.00000000
  ---------------------------------------------------
  free energy    TOTEN  =       -56.49092002 eV

  energy without entropy =      -56.49092002  energy(sigma->0) =      -56.49092002


--------------------------------------------------------------------------------------------------------




--------------------------------------- Iteration      1(  15)  ---------------------------------------


    POTLOK:  cpu time      0.3041: real time      0.3058
    SETDIJ:  cpu time      0.1916: real time      0.1925
     EDDAV:  cpu time      0.4059: real time      0.4082
       DOS:  cpu time      0.0001: real time      0.0001
    CHARGE:  cpu time      0.1979: real time      0.1988
    MIXING:  cpu time      0.0115: real time      0.0116
    --------------------------------------------
      LOOP:  cpu time      1.1113: real time      1.1170

 eigenvalue-minimisations  :    64
 total energy-change (2. order) :-0.4179239E-02  (-0.7414403E-04)
 number of electron      22.0000000 magnetization 
 augmentation part        0.4902126 magnetization 

 Broyden mixing:
  rms(total) = 0.12092E-02    rms(broyden)= 0.12091E-02
  rms(prec ) = 0.20084E-02
  weight for this iteration     100.00

 eigenvalues of (default mixing * dielectric matrix)
  average eigenvalue GAMMA=   2.1530
  6.5163  3.7868  2.3932  1.7418  1.5843  1.5843  0.9996  0.9996  0.9174  1.0071

 Free energy of the ion-electron system (eV)
  ---------------------------------------------------
  alpha Z        PSCENC =         0.62641250
  Ewald energy   TEWEN  =       859.21984673
  -Hartree energ DENC   =     -1391.17906847
  -exchange      EXHF   =         0.00000000
  -V(xc)+E(xc)   XCENC  =        72.54981856
  PAW double counting   =       296.33888920     -301.64798941
  entropy T*S    EENTRO =        -0.00000000
  eigenvalues    EBANDS =      -255.92040689
  atomic energy  EATOM  =       663.51739852
  Solvation  Ediel_sol  =         0.00000000
  ---------------------------------------------------
  free energy    TOTEN  =       -56.49509926 eV

  energy without entropy =      -56.49509926  energy(sigma->0) =      -56.49509926


--------------------------------------------------------------------------------------------------------




--------------------------------------- Iteration      1(  16)  ---------------------------------------


    POTLOK:  cpu time      0.3032: real time      0.3048
    SETDIJ:  cpu time      0.1966: real time      0.1975
     EDDAV:  cpu time      0.4473: real time      0.4498
       DOS:  cpu time      0.0001: real time      0.0001
    CHARGE:  cpu time      0.1994: real time      0.2002
    MIXING:  cpu time      0.0106: real time      0.0106
    --------------------------------------------
      LOOP:  cpu time      1.1573: real time      1.1631

 eigenvalue-minimisations  :    72
 total energy-change (2. order) :-0.1125197E-02  (-0.1053689E-04)
 number of electron      22.0000000 magnetization 
 augmentation part        0.4901626 magnetization 

 Broyden mixing:
  rms(total) = 0.71287E-03    rms(broyden)= 0.71276E-03
  rms(prec ) = 0.11847E-02
  weight for this iteration     100.00

 eigenvalues of (default mixing * dielectric matrix)
  average eigenvalue GAMMA=   2.2405
  7.6046  4.2464  2.4362  2.2773  1.5987  1.5037  1.0682  1.0682  0.9662  0.9662
  0.9104

 Free energy of the ion-electron system (eV)
  ---------------------------------------------------
  alpha Z        PSCENC =         0.62641250
  Ewald energy   TEWEN  =       859.21984673
  -Hartree energ DENC   =     -1391.24958788
  -exchange      EXHF   =         0.00000000
  -V(xc)+E(xc)   XCENC  =        72.55055002
  PAW double counting   =       296.35845367     -301.66754123
  entropy T*S    EENTRO =        -0.00000000
  eigenvalues    EBANDS =      -255.85175679
  atomic energy  EATOM  =       663.51739852
  Solvation  Ediel_sol  =         0.00000000
  ---------------------------------------------------
  free energy    TOTEN  =       -56.49622445 eV

  energy without entropy =      -56.49622445  energy(sigma->0) =      -56.49622445


--------------------------------------------------------------------------------------------------------




--------------------------------------- Iteration      1(  17)  ---------------------------------------


    POTLOK:  cpu time      0.3012: real time      0.3029
    SETDIJ:  cpu time      0.1919: real time      0.1928
     EDDAV:  cpu time      0.4048: real time      0.4073
       DOS:  cpu time      0.0001: real time      0.0001
    CHARGE:  cpu time      0.2003: real time      0.2011
    MIXING:  cpu time      0.0097: real time      0.0097
    --------------------------------------------
      LOOP:  cpu time      1.1082: real time      1.1140

 eigenvalue-minimisations  :    64
 total energy-change (2. order) :-0.6399479E-03  (-0.4379779E-05)
 number of electron      22.0000000 magnetization 
 augmentation part        0.4901512 magnetization 

 Broyden mixing:
  rms(total) = 0.40416E-03    rms(broyden)= 0.40409E-03
  rms(prec ) = 0.70546E-03
  weight for this iteration     100.00

 eigenvalues of (default mixing * dielectric matrix)
  average eigenvalue GAMMA=   2.2691
  7.8168  4.6936  2.6991  2.2575  1.5252  1.5252  1.4002  0.9023  0.9872  0.9872
  1.2175  1.2175

 Free energy of the ion-electron system (eV)
  ---------------------------------------------------
  alpha Z        PSCENC =         0.62641250
  Ewald energy   TEWEN  =       859.21984673
  -Hartree energ DENC   =     -1391.25096152
  -exchange      EXHF   =         0.00000000
  -V(xc)+E(xc)   XCENC  =        72.54886464
  PAW double counting   =       296.34354209     -301.65272685
  entropy T*S    EENTRO =        -0.00000000
  eigenvalues    EBANDS =      -255.84924052
  atomic energy  EATOM  =       663.51739852
  Solvation  Ediel_sol  =         0.00000000
  ---------------------------------------------------
  free energy    TOTEN  =       -56.49686440 eV

  energy without entropy =      -56.49686440  energy(sigma->0) =      -56.49686440


--------------------------------------------------------------------------------------------------------




--------------------------------------- Iteration      1(  18)  ---------------------------------------


    POTLOK:  cpu time      0.2995: real time      0.3012
    SETDIJ:  cpu time      0.1931: real time      0.1939
     EDDAV:  cpu time      0.4040: real time      0.4062
       DOS:  cpu time      0.0001: real time      0.0001
    CHARGE:  cpu time      0.1994: real time      0.2003
    MIXING:  cpu time      0.0104: real time      0.0105
    --------------------------------------------
      LOOP:  cpu time      1.1065: real time      1.1122

 eigenvalue-minimisations  :    64
 total energy-change (2. order) :-0.3301089E-03  (-0.1954358E-05)
 number of electron      22.0000000 magnetization 
 augmentation part        0.4901321 magnetization 

 Broyden mixing:
  rms(total) = 0.22120E-03    rms(broyden)= 0.22114E-03
  rms(prec ) = 0.38744E-03
  weight for this iteration     100.00

 eigenvalues of (default mixing * dielectric matrix)
  average eigenvalue GAMMA=   2.2973
  8.4681  5.0554  3.0273  2.4575  1.9993  1.3560  1.3560  1.1519  1.1519  0.9826
  0.9826  0.8873  0.9895

 Free energy of the ion-electron system (eV)
  ---------------------------------------------------
  alpha Z        PSCENC =         0.62641250
  Ewald energy   TEWEN  =       859.21984673
  -Hartree energ DENC   =     -1391.27469283
  -exchange      EXHF   =         0.00000000
  -V(xc)+E(xc)   XCENC  =        72.54931316
  PAW double counting   =       296.34205721     -301.65136521
  entropy T*S    EENTRO =        -0.00000000
  eigenvalues    EBANDS =      -255.82616459
  atomic energy  EATOM  =       663.51739852
  Solvation  Ediel_sol  =         0.00000000
  ---------------------------------------------------
  free energy    TOTEN  =       -56.49719451 eV

  energy without entropy =      -56.49719451  energy(sigma->0) =      -56.49719451


--------------------------------------------------------------------------------------------------------




--------------------------------------- Iteration      1(  19)  ---------------------------------------


    POTLOK:  cpu time      0.2979: real time      0.2996
    SETDIJ:  cpu time      0.1909: real time      0.1918
     EDDAV:  cpu time      0.4037: real time      0.4059
       DOS:  cpu time      0.0001: real time      0.0001
    CHARGE:  cpu time      0.2000: real time      0.2009
    MIXING:  cpu time      0.0100: real time      0.0100
    --------------------------------------------
      LOOP:  cpu time      1.1026: real time      1.1082

 eigenvalue-minimisations  :    64
 total energy-change (2. order) :-0.1090064E-03  (-0.4114692E-06)
 number of electron      22.0000000 magnetization 
 augmentation part        0.4901344 magnetization 

 Broyden mixing:
  rms(total) = 0.17222E-03    rms(broyden)= 0.17216E-03
  rms(prec ) = 0.26961E-03
  weight for this iteration     100.00

 eigenvalues of (default mixing * dielectric matrix)
  average eigenvalue GAMMA=   2.2915
  8.4941  5.2892  3.1844  2.4068  2.1440  1.6950  1.2264  1.2264  1.4608  0.8961
  1.0115  1.0115  1.0172  1.0172

 Free energy of the ion-electron system (eV)
  ---------------------------------------------------
  alpha Z        PSCENC =         0.62641250
  Ewald energy   TEWEN  =       859.21984673
  -Hartree energ DENC   =     -1391.26662900
  -exchange      EXHF   =         0.00000000
  -V(xc)+E(xc)   XCENC  =        72.54859965
  PAW double counting   =       296.32688654     -301.63624125
  entropy T*S    EENTRO =        -0.00000000
  eigenvalues    EBANDS =      -255.83357720
  atomic energy  EATOM  =       663.51739852
  Solvation  Ediel_sol  =         0.00000000
  ---------------------------------------------------
  free energy    TOTEN  =       -56.49730352 eV

  energy without entropy =      -56.49730352  energy(sigma->0) =      -56.49730352


--------------------------------------------------------------------------------------------------------




--------------------------------------- Iteration      1(  20)  ---------------------------------------


    POTLOK:  cpu time      0.3027: real time      0.3044
    SETDIJ:  cpu time      0.1911: real time      0.1919
     EDDAV:  cpu time      0.4053: real time      0.4075
       DOS:  cpu time      0.0002: real time      0.0002
    CHARGE:  cpu time      0.1997: real time      0.2005
    MIXING:  cpu time      0.0109: real time      0.0109
    --------------------------------------------
      LOOP:  cpu time      1.1098: real time      1.1156

 eigenvalue-minimisations  :    64
 total energy-change (2. order) :-0.6097413E-04  (-0.1445092E-06)
 number of electron      22.0000000 magnetization 
 augmentation part        0.4901368 magnetization 

 Broyden mixing:
  rms(total) = 0.64491E-04    rms(broyden)= 0.64372E-04
  rms(prec ) = 0.12888E-03
  weight for this iteration     100.00

 eigenvalues of (default mixing * dielectric matrix)
  average eigenvalue GAMMA=   2.3462
  8.8170  5.6889  3.7796  2.6581  2.3645  1.9263  1.4206  1.2053  1.2053  1.1333
  1.1333  0.9963  0.9963  0.8900  0.9783

 Free energy of the ion-electron system (eV)
  ---------------------------------------------------
  alpha Z        PSCENC =         0.62641250
  Ewald energy   TEWEN  =       859.21984673
  -Hartree energ DENC   =     -1391.27140648
  -exchange      EXHF   =         0.00000000
  -V(xc)+E(xc)   XCENC  =        72.54863727
  PAW double counting   =       296.33070869     -301.64004688
  entropy T*S    EENTRO =        -0.00000000
  eigenvalues    EBANDS =      -255.82891484
  atomic energy  EATOM  =       663.51739852
  Solvation  Ediel_sol  =         0.00000000
  ---------------------------------------------------
  free energy    TOTEN  =       -56.49736449 eV

  energy without entropy =      -56.49736449  energy(sigma->0) =      -56.49736449


--------------------------------------------------------------------------------------------------------




--------------------------------------- Iteration      1(  21)  ---------------------------------------


    POTLOK:  cpu time      0.3074: real time      0.3091
    SETDIJ:  cpu time      0.1912: real time      0.1920
     EDDAV:  cpu time      0.3636: real time      0.3656
       DOS:  cpu time      0.0001: real time      0.0001
    CHARGE:  cpu time      0.1982: real time      0.1990
    MIXING:  cpu time      0.0108: real time      0.0108
    --------------------------------------------
      LOOP:  cpu time      1.0714: real time      1.0767

 eigenvalue-minimisations  :    56
 total energy-change (2. order) :-0.3025185E-04  (-0.5952333E-07)
 number of electron      22.0000000 magnetization 
 augmentation part        0.4901392 magnetization 

 Broyden mixing:
  rms(total) = 0.74607E-04    rms(broyden)= 0.74512E-04
  rms(prec ) = 0.10230E-03
  weight for this iteration     100.00

 eigenvalues of (default mixing * dielectric matrix)
  average eigenvalue GAMMA=   2.3477
  8.9283  5.8377  4.0645  2.7536  2.4251  1.9093  1.7005  1.2706  1.2706  1.4472
  1.0070  1.0070  1.0463  1.0463  0.8935  0.9557

 Free energy of the ion-electron system (eV)
  ---------------------------------------------------
  alpha Z        PSCENC =         0.62641250
  Ewald energy   TEWEN  =       859.21984673
  -Hartree energ DENC   =     -1391.27109944
  -exchange      EXHF   =         0.00000000
  -V(xc)+E(xc)   XCENC  =        72.54844647
  PAW double counting   =       296.32978452     -301.63911151
  entropy T*S    EENTRO =        -0.00000000
  eigenvalues    EBANDS =      -255.82907254
  atomic energy  EATOM  =       663.51739852
  Solvation  Ediel_sol  =         0.00000000
  ---------------------------------------------------
  free energy    TOTEN  =       -56.49739474 eV

  energy without entropy =      -56.49739474  energy(sigma->0) =      -56.49739474


--------------------------------------------------------------------------------------------------------




--------------------------------------- Iteration      1(  22)  ---------------------------------------


    POTLOK:  cpu time      0.3143: real time      0.3160
    SETDIJ:  cpu time      0.1931: real time      0.1938
     EDDAV:  cpu time      0.4471: real time      0.4496
       DOS:  cpu time      0.0001: real time      0.0001
    CHARGE:  cpu time      0.1992: real time      0.2000
    MIXING:  cpu time      0.0115: real time      0.0116
    --------------------------------------------
      LOOP:  cpu time      1.1654: real time      1.1711

 eigenvalue-minimisations  :    72
 total energy-change (2. order) :-0.1106495E-04  (-0.1716285E-07)
 number of electron      22.0000000 magnetization 
 augmentation part        0.4901396 magnetization 

 Broyden mixing:
  rms(total) = 0.26979E-04    rms(broyden)= 0.26725E-04
  rms(prec ) = 0.42073E-04
  weight for this iteration     100.00

 eigenvalues of (default mixing * dielectric matrix)
  average eigenvalue GAMMA=   2.4059
  9.0137  6.3170  4.6134  3.0906  2.5462  2.2613  1.9324  1.2777  1.2777  1.4124
  1.1683  1.1683  0.9992  0.9992  0.9634  0.9634  0.8969

 Free energy of the ion-electron system (eV)
  ---------------------------------------------------
  alpha Z        PSCENC =         0.62641250
  Ewald energy   TEWEN  =       859.21984673
  -Hartree energ DENC   =     -1391.27316335
  -exchange      EXHF   =         0.00000000
  -V(xc)+E(xc)   XCENC  =        72.54848280
  PAW double counting   =       296.33050977     -301.63982113
  entropy T*S    EENTRO =        -0.00000000
  eigenvalues    EBANDS =      -255.82707165
  atomic energy  EATOM  =       663.51739852
  Solvation  Ediel_sol  =         0.00000000
  ---------------------------------------------------
  free energy    TOTEN  =       -56.49740581 eV

  energy without entropy =      -56.49740581  energy(sigma->0) =      -56.49740581


--------------------------------------------------------------------------------------------------------




--------------------------------------- Iteration      1(  23)  ---------------------------------------


    POTLOK:  cpu time      0.3105: real time      0.3121
    SETDIJ:  cpu time      0.1905: real time      0.1913
     EDDAV:  cpu time      0.3652: real time      0.3673
       DOS:  cpu time      0.0001: real time      0.0001
    CHARGE:  cpu time      0.1997: real time      0.2005
    MIXING:  cpu time      0.0117: real time      0.0118
    --------------------------------------------
      LOOP:  cpu time      1.0778: real time      1.0831

 eigenvalue-minimisations  :    56
 total energy-change (2. order) :-0.4519868E-05  (-0.1256940E-07)
 number of electron      22.0000000 magnetization 
 augmentation part        0.4901389 magnetization 

 Broyden mixing:
  rms(total) = 0.35932E-04    rms(broyden)= 0.35743E-04
  rms(prec ) = 0.44510E-04
  weight for this iteration     100.00

 eigenvalues of (default mixing * dielectric matrix)
  average eigenvalue GAMMA=   2.3751
  9.0887  6.4081  4.7848  3.2046  2.3935  2.3935  1.8375  1.6262  1.3065  1.3065
  1.2869  1.2869  1.0158  1.0158  0.9835  0.9835  0.8948  0.9343

 Free energy of the ion-electron system (eV)
  ---------------------------------------------------
  alpha Z        PSCENC =         0.62641250
  Ewald energy   TEWEN  =       859.21984673
  -Hartree energ DENC   =     -1391.27508417
  -exchange      EXHF   =         0.00000000
  -V(xc)+E(xc)   XCENC  =        72.54852815
  PAW double counting   =       296.33156085     -301.64088090
  entropy T*S    EENTRO =        -0.00000000
  eigenvalues    EBANDS =      -255.82519200
  atomic energy  EATOM  =       663.51739852
  Solvation  Ediel_sol  =         0.00000000
  ---------------------------------------------------
  free energy    TOTEN  =       -56.49741033 eV

  energy without entropy =      -56.49741033  energy(sigma->0) =      -56.49741033


--------------------------------------------------------------------------------------------------------




--------------------------------------- Iteration      1(  24)  ---------------------------------------


    POTLOK:  cpu time      0.3098: real time      0.3115
    SETDIJ:  cpu time      0.1913: real time      0.1921
     EDDAV:  cpu time      0.4456: real time      0.4481
       DOS:  cpu time      0.0001: real time      0.0001
    CHARGE:  cpu time      0.1970: real time      0.1977
    MIXING:  cpu time      0.0130: real time      0.0131
    --------------------------------------------
      LOOP:  cpu time      1.1568: real time      1.1626

 eigenvalue-minimisations  :    72
 total energy-change (2. order) :-0.1458033E-05  (-0.3290342E-08)
 number of electron      22.0000000 magnetization 
 augmentation part        0.4901387 magnetization 

 Broyden mixing:
  rms(total) = 0.91083E-05    rms(broyden)= 0.83377E-05
  rms(prec ) = 0.14014E-04
  weight for this iteration     100.00

 eigenvalues of (default mixing * dielectric matrix)
  average eigenvalue GAMMA=   2.4047
  9.1442  6.7111  5.0421  3.5185  2.6455  2.4031  1.9981  1.9392  1.3455  1.3455
  1.3563  1.2150  1.2150  1.0060  1.0060  0.9851  0.9851  0.9021  0.9250

 Free energy of the ion-electron system (eV)
  ---------------------------------------------------
  alpha Z        PSCENC =         0.62641250
  Ewald energy   TEWEN  =       859.21984673
  -Hartree energ DENC   =     -1391.27506792
  -exchange      EXHF   =         0.00000000
  -V(xc)+E(xc)   XCENC  =        72.54850568
  PAW double counting   =       296.33100783     -301.64033461
  entropy T*S    EENTRO =        -0.00000000
  eigenvalues    EBANDS =      -255.82518052
  atomic energy  EATOM  =       663.51739852
  Solvation  Ediel_sol  =         0.00000000
  ---------------------------------------------------
  free energy    TOTEN  =       -56.49741178 eV

  energy without entropy =      -56.49741178  energy(sigma->0) =      -56.49741178


--------------------------------------------------------------------------------------------------------




--------------------------------------- Iteration      1(  25)  ---------------------------------------


    POTLOK:  cpu time      0.3143: real time      0.3160
    SETDIJ:  cpu time      0.1903: real time      0.1911
     EDDAV:  cpu time      0.3273: real time      0.3291
       DOS:  cpu time      0.0001: real time      0.0001
    --------------------------------------------
      LOOP:  cpu time      0.8320: real time      0.8363

 eigenvalue-minimisations  :    48
 total energy-change (2. order) :-0.8920692E-06  (-0.2860908E-08)
 number of electron      22.0000000 magnetization 
 augmentation part        0.4901387 magnetization 

 Free energy of the ion-electron system (eV)
  ---------------------------------------------------
  alpha Z        PSCENC =         0.62641250
  Ewald energy   TEWEN  =       859.21984673
  -Hartree energ DENC   =     -1391.27518553
  -exchange      EXHF   =         0.00000000
  -V(xc)+E(xc)   XCENC  =        72.54851086
  PAW double counting   =       296.33086802     -301.64019268
  entropy T*S    EENTRO =        -0.00000000
  eigenvalues    EBANDS =      -255.82507110
  atomic energy  EATOM  =       663.51739852
  Solvation  Ediel_sol  =         0.00000000
  ---------------------------------------------------
  free energy    TOTEN  =       -56.49741268 eV

  energy without entropy =      -56.49741268  energy(sigma->0) =      -56.49741268


--------------------------------------------------------------------------------------------------------




 average (electrostatic) potential at core
  the test charge radii are     0.6991  0.5201
  (the norm of the test charge is              1.0000)
       1 -58.5804       2 -58.8421       3 -58.8776       4 -58.5492       5 -41.7002
       6 -41.7807       7 -41.8463       8 -42.1036       9 -42.2574      10 -41.8945
 
 
 
 E-fermi :  -5.7156     XC(G=0):  -0.4443     alpha+bet : -0.1681

 Fermi energy:        -5.7155876328

 k-point     1 :       0.0000    0.0000    0.0000
  band No.  band energies     occupation 
      1     -19.5013      2.00000
      2     -18.0215      2.00000
      3     -14.9610      2.00000
      4     -12.8897      2.00000
      5     -11.4957      2.00000
      6     -10.7015      2.00000
      7     -10.2308      2.00000
      8      -9.0227      2.00000
      9      -7.6808      2.00000
     10      -7.4142      2.00000
     11      -5.9934      2.00000
     12      -1.7092      0.00000
     13      -0.3951      0.00000
     14       0.0534      0.00000
     15       0.1797      0.00000
     16       0.2222      0.00000
     17       0.3886      0.00000
     18       0.4499      0.00000
     19       0.5475      0.00000
     20       0.6777      0.00000
     21       0.8881      0.00000
     22       0.9418      0.00000
     23       1.0015      0.00000
     24       1.1083      0.00000


--------------------------------------------------------------------------------------------------------


 soft charge-density along one line, spin component           1
         0         1         2         3         4         5         6         7         8         9
 total charge-density along one line
 
 pseudopotential strength for first ion, spin component:           1
 10.253   0.020  -0.001  -0.002   0.002  -0.002  -0.002   0.001
  0.020  -0.001   0.000   0.000  -0.000  -0.000  -0.000   0.000
 -0.001   0.000  -4.361  -0.005   0.011  -0.015  -0.001   0.003
 -0.002   0.000  -0.005  -4.366   0.004  -0.001  -0.017   0.001
  0.002  -0.000   0.011   0.004  -4.360   0.003   0.001  -0.015
 -0.002  -0.000  -0.015  -0.001   0.003  -0.773  -0.000   0.000
 -0.002  -0.000  -0.001  -0.017   0.001  -0.000  -0.773   0.000
  0.001   0.000   0.003   0.001  -0.015   0.000   0.000  -0.773
 total augmentation occupancy for first ion, spin component:           1
  1.486  -1.088   0.039   0.044  -0.041   0.025   0.021  -0.016
 -1.088   0.887  -0.112  -0.087   0.058  -0.041  -0.034   0.028
  0.039  -0.112   1.070   0.048  -0.164   0.155   0.020  -0.065
  0.044  -0.087   0.048   1.175  -0.043   0.020   0.198  -0.015
 -0.041   0.058  -0.164  -0.043   1.083  -0.065  -0.015   0.156
  0.025  -0.041   0.155   0.020  -0.065   0.026   0.006  -0.016
  0.021  -0.034   0.020   0.198  -0.015   0.006   0.035  -0.005
 -0.016   0.028  -0.065  -0.015   0.156  -0.016  -0.005   0.025


------------------------ aborting loop because EDIFF is reached ----------------------------------------


    CHARGE:  cpu time      0.1991: real time      0.1999
    FORLOC:  cpu time      0.0306: real time      0.0307
    FORNL :  cpu time      1.0628: real time      1.0678
    STRESS:  cpu time      3.3744: real time      3.3907
    FORHAR:  cpu time      0.1108: real time      0.1113
    MIXING:  cpu time      0.0123: real time      0.0123
    OFIELD:  cpu time      0.0001: real time      0.0001

  FORCE on cell =-STRESS in cart. coord.  units (eV):
  Direction    XX          YY          ZZ          XY          YZ          ZX
  --------------------------------------------------------------------------------------
  Alpha Z     0.62641     0.62641     0.62641
  Ewald     -51.52671   263.11151   647.63470  -189.83461   -33.85528  -118.26295
  Hartree   267.33818   407.67912   716.25806   -85.74054   -24.35611   -80.62016
  E(xc)     -77.10519   -75.93060   -75.53371    -0.71805    -0.04694    -0.15331
  Local    -429.87204  -860.02972 -1556.25731   261.27480    58.93142   197.18271
  n-local   -28.84251   -30.45371   -30.21590     0.93237    -0.10743     0.00806
  augment    -0.55096    -0.68926    -0.63456     0.07497    -0.00922     0.00705
  Kinetic   319.34324   295.20903   294.15132    14.27797     0.85207     1.64730
  Fock        0.00000     0.00000     0.00000     0.00000     0.00000     0.00000
  -------------------------------------------------------------------------------------
  Total      -0.58957    -0.47721    -3.97097     0.26690     1.40851    -0.19132
  in kB      -0.27988    -0.22654    -1.88510     0.12670     0.66865    -0.09082
  external pressure =       -0.80 kB  Pullay stress =        0.00 kB


 VOLUME and BASIS-vectors are now :
 -----------------------------------------------------------------------------
  energy-cutoff  :      520.00
  volume of cell :     3375.00
      direct lattice vectors                 reciprocal lattice vectors
    15.000000000  0.000000000  0.000000000     0.066666667  0.000000000  0.000000000
     0.000000000 15.000000000  0.000000000     0.000000000  0.066666667  0.000000000
     0.000000000  0.000000000 15.000000000     0.000000000  0.000000000  0.066666667

  length of vectors
    15.000000000 15.000000000 15.000000000     0.066666667  0.066666667  0.066666667


 FORCES acting on ions
    electron-ion (+dipol)            ewald-force                    non-local-force                 convergence-correction
 -----------------------------------------------------------------------------------------------
   -.674E+02 0.726E+02 0.107E+03   0.683E+02 -.741E+02 -.109E+03   0.565E+00 0.719E+00 -.153E+00   0.143E-04 -.304E-04 0.339E-04
   0.467E+02 -.743E+02 0.380E+02   -.475E+02 0.751E+02 -.364E+02   -.896E+00 -.189E+00 0.136E+01   -.741E-04 0.710E-04 0.219E-03
   0.212E+02 -.830E+02 -.317E+02   -.210E+02 0.828E+02 0.305E+02   0.446E+00 -.160E+00 -.194E+01   0.143E-04 -.733E-04 0.108E-03
   -.376E+01 0.878E+02 -.109E+03   0.395E+01 -.881E+02 0.110E+03   -.594E+00 0.164E+01 -.101E+00   0.784E-05 0.891E-04 -.110E-03
   -.569E+01 0.473E+01 0.645E+02   0.559E+01 -.457E+01 -.686E+02   -.294E-01 -.567E-01 0.520E+01   0.326E-06 -.742E-06 -.372E-04
   -.483E+02 0.412E+02 -.608E+01   0.514E+02 -.441E+02 0.806E+01   -.378E+01 0.322E+01 -.205E+01   0.283E-04 -.284E-04 0.255E-04
   0.413E+02 -.465E+02 0.306E+02   -.442E+02 0.496E+02 -.327E+02   0.341E+01 -.365E+01 0.198E+01   -.189E-04 0.207E-04 0.561E-05
   0.125E+02 -.652E+02 -.238E+02   -.135E+02 0.707E+02 0.259E+02   0.975E+00 -.554E+01 -.142E+01   0.947E-05 -.461E-04 -.101E-04
   -.232E+01 0.657E+02 -.209E+01   0.290E+01 -.721E+02 0.219E+00   -.340E+00 0.588E+01 0.139E+01   -.875E-06 0.425E-04 0.569E-05
   0.547E+01 -.367E+01 -.666E+02   -.601E+01 0.473E+01 0.723E+02   0.552E+00 -.123E+01 -.553E+01   0.562E-05 -.616E-05 -.492E-04
 -----------------------------------------------------------------------------------------------
   -.322E+00 -.648E+00 0.126E+01   -.151E-13 0.249E-13 0.000E+00   0.316E+00 0.648E+00 -.127E+01   -.137E-04 0.382E-04 0.191E-03
 
 
 POSITION                                       TOTAL-FORCE (eV/Angst)
 -----------------------------------------------------------------------------------
      8.05900      7.19600      5.94800         1.451375     -0.834987     -1.461573
      7.33200      8.01500      6.67900        -1.707914      0.708585      2.976617
      7.20700      8.03800      8.26100         0.681149     -0.337477     -3.150062
      7.29800      6.99600      9.09900        -0.409051      1.317054      0.515139
      8.06000      7.21400      4.82200        -0.130825      0.106828      1.020120
      8.83100      6.51900      6.38000        -0.664709      0.277830     -0.066559
      6.62900      8.77200      6.25800         0.530993     -0.521144     -0.140227
      7.02300      9.07100      8.54900         0.003140     -0.021333      0.679738
      7.36800      5.95900      8.84200         0.233520     -0.527459     -0.485378
      7.19300      7.22000     10.16200         0.012323     -0.167897      0.112185
 -----------------------------------------------------------------------------------
    total drift:                               -0.006176     -0.000052     -0.013527


--------------------------------------------------------------------------------------------------------



  FREE ENERGIE OF THE ION-ELECTRON SYSTEM (eV)
  ---------------------------------------------------
  free  energy   TOTEN  =       -56.49741268 eV

  energy  without entropy=      -56.49741268  energy(sigma->0) =      -56.49741268
 


--------------------------------------------------------------------------------------------------------


    POTLOK:  cpu time      0.5094: real time      0.5118


--------------------------------------------------------------------------------------------------------


 stress matrix after NEB project (eV)
     -0.58957      0.26690     -0.19132
      0.26690     -0.47721      1.40851
     -0.19132      1.40851     -3.97097
  FORCES: max atom, RMS     3.504185    1.820024
  FORCE total and by dimension    5.755422    3.150062
  Stress total and by dimension    4.530722    3.970974
     LOOP+:  cpu time     30.7592: real time     30.9142
    4ORBIT:  cpu time      0.0000: real time      0.0000

 total amount of memory used by VASP MPI-rank0   224783. kBytes
=======================================================================

   base      :      30000. kBytes
   nonlr-proj:       1259. kBytes
   fftplans  :     123538. kBytes
   grid      :      67787. kBytes
   one-center:         15. kBytes
   wavefun   :       2184. kBytes
 
  
  
 General timing and accounting informations for this job:
 ========================================================
  
                  Total CPU time used (sec):       37.390
                            User time (sec):       34.163
                          System time (sec):        3.227
                         Elapsed time (sec):       38.379
  
                   Maximum memory used (kb):      561628.
                   Average memory used (kb):          N/A
  
                          Minor page faults:       157027
                          Major page faults:         5452
                 Voluntary context switches:         3105
