 vasp.6.4.2 20Jul23 (build Apr 10 2024 13:39:58) complex                        
  
 executed on             LinuxIFC date 2024.05.17  05:56:41
 running   16 mpi-ranks, on    1 nodes
 distrk:  each k-point on   16 cores,    1 groups
 distr:  one band on NCORE=   2 cores,    8 groups


--------------------------------------------------------------------------------------------------------


 INCAR:
   ISTART = 0
   ISPIN = 1
   LREAL = Auto
   ENCUT = 520
   NPAR = 8
   LPLANE = .TRUE.
   LSCALU = .FALSE.
   NSIM = 4
   LWAVE = .FALSE.
   LCHARG = .FALSE.
   ADDGRID = .TRUE.
   LASPH = .TRUE.
   PREC = Accurate
   ISMEAR = 0
   SIGMA = 0.05
   EDIFF = 1E-06
   NSW = 0
   TEBEG = 300
   TEEND = 700     	
   ISYM = 0
   NWRITE = 2

 POTCAR:   PAW_PBE C 08Apr2002                    
 POTCAR:   PAW_PBE H 15Jun2001                    
 POTCAR:   PAW_PBE C 08Apr2002                    
   VRHFIN =C: s2p2                                                                                  
   LEXCH  = PE                                                                                      
   EATOM  =   147.1560 eV,   10.8157 Ry                                                             
                                                                                                    
   TITEL  = PAW_PBE C 08Apr2002                                                                     
   LULTRA =        F    use ultrasoft PP ?                                                          
   IUNSCR =        0    unscreen: 0-lin 1-nonlin 2-no                                               
   RPACOR =     .000    partial core radius                                                         
   POMASS =   12.011; ZVAL   =    4.000    mass and valenz                                          
   RCORE  =    1.500    outmost cutoff radius                                                       
   RWIGS  =    1.630; RWIGS  =     .863    wigner-seitz radius (au A)                               
   ENMAX  =  400.000; ENMIN  =  300.000 eV                                                          
   ICORE  =        2    local potential                                                             
   LCOR   =        T    correct aug charges                                                         
   LPAW   =        T    paw PP                                                                      
   EAUG   =  644.873                                                                                
   DEXC   =     .000                                                                                
   RMAX   =    2.266    core radius for proj-oper                                                   
   RAUG   =    1.300    factor for augmentation sphere                                              
   RDEP   =    1.501    radius for radial grids                                                     
   RDEPT  =    1.300    core radius for aug-charge                                                  
   QCUT   =   -5.516; QGAM   =   11.032    optimization parameters                                  
                                                                                                    
   Description                                                                                      
     l     E      TYP  RCUT    TYP  RCUT                                                            
     0   .000     23  1.200                                                                         
     0   .000     23  1.200                                                                         
     1   .000     23  1.500                                                                         
     1  2.500     23  1.500                                                                         
     2   .000      7  1.500                                                                         
  local pseudopotential read in
  atomic valenz-charges read in
  non local Contribution for L=           0  read in
    real space projection operators read in
  non local Contribution for L=           0  read in
    real space projection operators read in
  non local Contribution for L=           1  read in
    real space projection operators read in
  non local Contribution for L=           1  read in
    real space projection operators read in
    PAW grid and wavefunctions read in
 
   number of l-projection  operators is LMAX  =           4
   number of lm-projection operators is LMMAX =           8
 
 POTCAR:   PAW_PBE H 15Jun2001                    
   VRHFIN =H: ultrasoft test                                                                        
   LEXCH  = PE                                                                                      
   EATOM  =    12.4884 eV,     .9179 Ry                                                             
                                                                                                    
   TITEL  = PAW_PBE H 15Jun2001                                                                     
   LULTRA =        F    use ultrasoft PP ?                                                          
   IUNSCR =        0    unscreen: 0-lin 1-nonlin 2-no                                               
   RPACOR =     .000    partial core radius                                                         
   POMASS =    1.000; ZVAL   =    1.000    mass and valenz                                          
   RCORE  =    1.100    outmost cutoff radius                                                       
   RWIGS  =     .700; RWIGS  =     .370    wigner-seitz radius (au A)                               
   ENMAX  =  250.000; ENMIN  =  200.000 eV                                                          
   RCLOC  =     .701    cutoff for local pot                                                        
   LCOR   =        T    correct aug charges                                                         
   LPAW   =        T    paw PP                                                                      
   EAUG   =  400.000                                                                                
   RMAX   =    2.174    core radius for proj-oper                                                   
   RAUG   =    1.200    factor for augmentation sphere                                              
   RDEP   =    1.112    radius for radial grids                                                     
   QCUT   =   -5.749; QGAM   =   11.498    optimization parameters                                  
                                                                                                    
   Description                                                                                      
     l     E      TYP  RCUT    TYP  RCUT                                                            
     0   .000     23  1.100                                                                         
     0   .500     23  1.100                                                                         
     1  -.300     23  1.100                                                                         
  local pseudopotential read in
  atomic valenz-charges read in
  non local Contribution for L=           0  read in
    real space projection operators read in
  non local Contribution for L=           0  read in
    real space projection operators read in
  non local Contribution for L=           1  read in
    real space projection operators read in
    PAW grid and wavefunctions read in
 
   number of l-projection  operators is LMAX  =           3
   number of lm-projection operators is LMMAX =           5
 
 Optimization of the real space projectors (new method)

 maximal supplied QI-value         = 25.13
 optimisation between [QCUT,QGAM] = [ 11.56, 23.12] = [ 37.43,149.72] Ry 
 Optimized for a Real-space Cutoff    1.04 Angstroem

   l    n(q)    QCUT    max X(q) W(low)/X(q) W(high)/X(q)  e(spline) 
   0      7    11.561     5.582    0.47E-04    0.94E-04    0.17E-07
   0      7    11.561    69.432    0.20E-03    0.59E-03    0.21E-06
   1      7    11.561     2.780    0.24E-04    0.70E-04    0.44E-07
   1      7    11.561     4.549    0.18E-03    0.25E-03    0.12E-06
 Optimization of the real space projectors (new method)

 maximal supplied QI-value         = 34.20
 optimisation between [QCUT,QGAM] = [ 11.63, 23.26] = [ 37.87,151.49] Ry 
 Optimized for a Real-space Cutoff    1.21 Angstroem

   l    n(q)    QCUT    max X(q) W(low)/X(q) W(high)/X(q)  e(spline) 
   0      8    11.629     4.436    0.19E-04    0.32E-04    0.47E-07
   0      8    11.629    16.131    0.16E-03    0.33E-03    0.21E-06
   1      8    11.629     4.654    0.18E-03    0.16E-03    0.26E-06
 PAW_PBE C 08Apr2002                    :
 energy of atom  1       EATOM= -147.1560
 kinetic energy error for atom=    0.0071 (will be added to EATOM!!)
 PAW_PBE H 15Jun2001                    :
 energy of atom  2       EATOM=  -12.4884
 kinetic energy error for atom=    0.0014 (will be added to EATOM!!)
 
 
 POSCAR:  C  H
  positions in cartesian coordinates
  No initial velocities read in
 exchange correlation table for  LEXCH =        8
   RHO(1)=    0.500       N(1)  =     2000
   RHO(2)=  100.500       N(2)  =     4000

 VTST: version 4.1, (05/19/21)

 CHAIN: initializing optimizer
 
 OPT: Using VASP Dynamics algorithm
 CHAIN: Read ICHAIN            0
 
 POSCAR:  C  H
  positions in cartesian coordinates
  No initial velocities read in
 


--------------------------------------------------------------------------------------------------------


 ion  position               nearest neighbor table
   1  0.532  0.533  0.399-   5 1.12   6 1.12   2 1.38
   2  0.493  0.464  0.444-   7 1.15   1 1.38   3 1.60
   3  0.475  0.456  0.550-   8 1.16   4 1.35   2 1.60
   4  0.485  0.524  0.609-  10 1.10   9 1.12   3 1.35
   5  0.542  0.530  0.325-   1 1.12
   6  0.554  0.597  0.431-   1 1.12
   7  0.479  0.402  0.401-   2 1.15
   8  0.467  0.384  0.576-   3 1.16
   9  0.498  0.592  0.583-   4 1.12
  10  0.476  0.517  0.681-   4 1.10
 

IMPORTANT INFORMATION: All symmetrisations will be switched off!
NOSYMM: (Re-)initialisation of all symmetry stuff for point group C_1.


----------------------------------------------------------------------------------------

                                     Primitive cell                                     

  volume of cell :    3375.0000

  direct lattice vectors                    reciprocal lattice vectors
    15.000000000  0.000000000  0.000000000     0.066666667  0.000000000  0.000000000
     0.000000000 15.000000000  0.000000000     0.000000000  0.066666667  0.000000000
     0.000000000  0.000000000 15.000000000     0.000000000  0.000000000  0.066666667

  length of vectors
    15.000000000 15.000000000 15.000000000     0.066666667  0.066666667  0.066666667

  position of ions in fractional coordinates (direct lattice)
     0.531933339  0.533400027  0.399266656
     0.492666658  0.463866679  0.444466654
     0.475266679  0.456400013  0.549733353
     0.484933345  0.523533344  0.608799998
     0.541599973  0.530266666  0.325466665
     0.554199982  0.597133319  0.431133334
     0.478533332  0.402199999  0.401066653
     0.467199993  0.383733336  0.575933329
     0.497666677  0.592066638  0.582733345
     0.475933329  0.517400010  0.681333351

  ion indices of the primitive-cell ions
   primitive index   ion index
                 1           1
                 2           2
                 3           3
                 4           4
                 5           5
                 6           6
                 7           7
                 8           8
                 9           9
                10          10

----------------------------------------------------------------------------------------

 
 
 KPOINTS: K-Spacing Value to Generate K-Mesh: 1.00

Automatic generation of k-mesh.
 Grid dimensions read from file:
 generate k-points for:    1    1    1

 Generating k-lattice:

  Cartesian coordinates                     Fractional coordinates (reciprocal lattice)
     0.066666667  0.000000000  0.000000000     1.000000000  0.000000000  0.000000000
     0.000000000  0.066666667  0.000000000     0.000000000  1.000000000  0.000000000
     0.000000000  0.000000000  0.066666667     0.000000000  0.000000000  1.000000000

  Length of vectors
     0.066666667  0.066666667  0.066666667

  Shift w.r.t. Gamma in fractional coordinates (k-lattice)
     0.000000000  0.000000000  0.000000000

 
 Subroutine IBZKPT returns following result:
 ===========================================
 
 Found      1 irreducible k-points:
 
 Following reciprocal coordinates:
            Coordinates               Weight
  0.000000  0.000000  0.000000      1.000000
 
 Following cartesian coordinates:
            Coordinates               Weight
  0.000000  0.000000  0.000000      1.000000
 


--------------------------------------------------------------------------------------------------------




 Dimension of arrays:
   k-points           NKPTS =      1   k-points in BZ     NKDIM =      1   number of bands    NBANDS=     24
   number of dos      NEDOS =    301   number of ions     NIONS =     10
   non local maximal  LDIM  =      4   non local SUM 2l+1 LMDIM =      8
   total plane-waves  NPLWV = ******
   max r-space proj   IRMAX =   3145   max aug-charges    IRDMAX=  39494
   dimension x,y,z NGX =   112 NGY =  112 NGZ =  112
   dimension x,y,z NGXF=   224 NGYF=  224 NGZF=  224
   support grid    NGXF=   448 NGYF=  448 NGZF=  448
   ions per type =               4   6
   NGX,Y,Z   is equivalent  to a cutoff of  12.41, 12.41, 12.41 a.u.
   NGXF,Y,Z  is equivalent  to a cutoff of  24.83, 24.83, 24.83 a.u.

 SYSTEM =  unknown system                          
 POSCAR =   C  H                                   

 Startparameter for this run:
   NWRITE =      2    write-flag & timer
   PREC   = accura    normal or accurate (medium, high low for compatibility)
   ISTART =      0    job   : 0-new  1-cont  2-samecut
   ICHARG =      2    charge: 1-file 2-atom 10-const
   ISPIN  =      1    spin polarized calculation?
   LNONCOLLINEAR =      F non collinear calculations
   LSORBIT =      F    spin-orbit coupling
   INIWAV =      1    electr: 0-lowe 1-rand  2-diag
   LASPH  =      T    aspherical Exc in radial PAW
 Electronic Relaxation 1
   ENCUT  =  520.0 eV  38.22 Ry    6.18 a.u.  27.89 27.89 27.89*2*pi/ulx,y,z
   ENINI  =  520.0     initial cutoff
   ENAUG  =  644.9 eV  augmentation charge cutoff
   NELM   =     60;   NELMIN=  2; NELMDL= -5     # of ELM steps 
   EDIFF  = 0.1E-05   stopping-criterion for ELM
   LREAL  =      T    real-space projection
   NLSPLINE    = F    spline interpolate recip. space projectors
   LCOMPAT=      F    compatible to vasp.4.4
   GGA_COMPAT  = T    GGA compatible to vasp.4.4-vasp.4.6
   LMAXPAW     = -100 max onsite density
   LMAXMIX     =    2 max onsite mixed and CHGCAR
   VOSKOWN=      0    Vosko Wilk Nusair interpolation
   ROPT   =   -0.00025  -0.00025
 Ionic relaxation
   EDIFFG = 0.1E-04   stopping-criterion for IOM
   NSW    =      0    number of steps for IOM
   NBLOCK =      1;   KBLOCK =      1    inner block; outer block 
   IBRION =     -1    ionic relax: 0-MD 1-quasi-New 2-CG
   NFREE  =      0    steps in history (QN), initial steepest desc. (CG)
   ISIF   =      2    stress and relaxation
   IWAVPR =     10    prediction:  0-non 1-charg 2-wave 3-comb
   ISYM   =      0    0-nonsym 1-usesym 2-fastsym
   LCORR  =      T    Harris-Foulkes like correction to forces

   POTIM  = 0.5000    time-step for ionic-motion
   TEIN   =    0.0    initial temperature
   TEBEG  =  300.0;   TEEND  = 700.0 temperature during run
   SMASS  =  -3.00    Nose mass-parameter (am)
   estimated Nose-frequenzy (Omega)   =  0.10E-29 period in steps = 0.13E+47 mass=  -0.514E-26a.u.
   SCALEE = 1.0000    scale energy and forces
   NPACO  =    256;   APACO  = 10.0  distance and # of slots for P.C.
   PSTRESS=    0.0 pullay stress

  Mass of Ions in am
   POMASS =  12.01  1.00
  Ionic Valenz
   ZVAL   =   4.00  1.00
  Atomic Wigner-Seitz radii
   RWIGS  =  -1.00 -1.00
  virtual crystal weights 
   VCA    =   1.00  1.00
   NELECT =      22.0000    total number of electrons
   NUPDOWN=      -1.0000    fix difference up-down

 DOS related values:
   EMIN   =  10.00;   EMAX   =-10.00  energy-range for DOS
   EFERMI =   0.00;   METHOD = LEGACY      
   ISMEAR =     0;   SIGMA  =   0.05  broadening in eV -4-tet -1-fermi 0-gaus

 Electronic relaxation 2 (details)
   IALGO  =     38    algorithm
   LDIAG  =      T    sub-space diagonalisation (order eigenvalues)
   LSUBROT=      F    optimize rotation matrix (better conditioning)
   TURBO    =      0    0=normal 1=particle mesh
   IRESTART =      0    0=no restart 2=restart with 2 vectors
   NREBOOT  =      0    no. of reboots
   NMIN     =      0    reboot dimension
   EREF     =   0.00    reference energy to select bands
   IMIX   =      4    mixing-type and parameters
     AMIX     =   0.40;   BMIX     =  1.00
     AMIX_MAG =   1.60;   BMIX_MAG =  1.00
     AMIN     =   0.10
     WC   =   100.;   INIMIX=   1;  MIXPRE=   1;  MAXMIX= -45

 Intra band minimization:
   WEIMIN = 0.0000     energy-eigenvalue tresh-hold
   EBREAK =  0.10E-07  absolut break condition
   DEPER  =   0.30     relativ break condition  

   TIME   =   0.40     timestep for ELM

  volume/ion in A,a.u.               =     337.50      2277.56
  Fermi-wavevector in a.u.,A,eV,Ry     =   0.305814  0.577905  1.272449  0.093522
  Thomas-Fermi vector in A             =   1.179187
 
 Write flags
   LWAVE        =      F    write WAVECAR
   LDOWNSAMPLE  =      F    k-point downsampling of WAVECAR
   LCHARG       =      F    write CHGCAR
   LVTOT        =      F    write LOCPOT, total local potential
   LVHAR        =      F    write LOCPOT, Hartree potential only
   LELF         =      F    write electronic localiz. function (ELF)
   LORBIT       =      0    0 simple, 1 ext, 2 COOP (PROOUT), +10 PAW based schemes


 Dipole corrections
   LMONO  =      F    monopole corrections only (constant potential shift)
   LDIPOL =      F    correct potential (dipole corrections)
   IDIPOL =      0    1-x, 2-y, 3-z, 4-all directions 
   EPSILON=  1.0000000 bulk dielectric constant

 Exchange correlation treatment:
   GGA     =    --    GGA type
   LEXCH   =     8    internal setting for exchange type
   LIBXC   =     F    Libxc                    
   VOSKOWN =     0    Vosko Wilk Nusair interpolation
   LHFCALC =     F    Hartree Fock is set to
   LHFONE  =     F    Hartree Fock one center treatment
   AEXX    =    0.0000 exact exchange contribution

 Linear response parameters
   LEPSILON=     F    determine dielectric tensor
   LRPA    =     F    only Hartree local field effects (RPA)
   LNABLA  =     F    use nabla operator in PAW spheres
   LVEL    =     F    velocity operator in full k-point grid
   CSHIFT  =0.1000    complex shift for real part using Kramers Kronig
   OMEGAMAX=  -1.0    maximum frequency
   DEG_THRESHOLD= 0.2000000E-02 threshold for treating states as degnerate
   RTIME   =   -0.100 relaxation time in fs
  (WPLASMAI=    0.000 imaginary part of plasma frequency in eV, 0.658/RTIME)
   DFIELD  = 0.0000000 0.0000000 0.0000000 field for delta impulse in time
 
  Optional k-point grid parameters
   LKPOINTS_OPT  =     F    use optional k-point grid
   KPOINTS_OPT_MODE=     1    mode for optional k-point grid
 
 Orbital magnetization related:
   ORBITALMAG=     F  switch on orbital magnetization
   LCHIMAG   =     F  perturbation theory with respect to B field
   DQ        =  0.001000  dq finite difference perturbation B field
   LLRAUG    =     F  two centre corrections for induced B field
   LBONE     =     F  B-component reconstruction in AE one-centre
   LVGVCALC  =     T  calculate vGv susceptibility
   LVGVAPPL  =     F  apply vGv susceptibility instead of pGv for G=0

 Random number generation:
   RANDOM_GENERATOR = DEFAULT
   PCG_SEED         = not used


--------------------------------------------------------------------------------------------------------


 Static calculation
 charge density and potential will be updated during run
 non-spin polarized calculation
 Variant of blocked Davidson
 Davidson routine will perform the subspace rotation
 perform sub-space diagonalisation
    after iterative eigenvector-optimisation
 modified Broyden-mixing scheme, WC =      100.0
 initial mixing is a Kerker type mixing with AMIX =  0.4000 and BMIX =      1.0000
 Hartree-type preconditioning will be used
 using additional bands           13
 real space projection scheme for non local part
 calculate Harris-corrections to forces 
   (improved forces if not selfconsistent)
 use gradient corrections 
 use of overlap-Matrix (Vanderbilt PP)
 Gauss-broadening in eV      SIGMA  =   0.05


--------------------------------------------------------------------------------------------------------


  energy-cutoff  :      520.00
  volume of cell :     3375.00
      direct lattice vectors                 reciprocal lattice vectors
    15.000000000  0.000000000  0.000000000     0.066666667  0.000000000  0.000000000
     0.000000000 15.000000000  0.000000000     0.000000000  0.066666667  0.000000000
     0.000000000  0.000000000 15.000000000     0.000000000  0.000000000  0.066666667

  length of vectors
    15.000000000 15.000000000 15.000000000     0.066666667  0.066666667  0.066666667


 
 k-points in units of 2pi/SCALE and weight: K-Spacing Value to Generate K-Mesh: 1.00
   0.00000000  0.00000000  0.00000000       1.000
 
 k-points in reciprocal lattice and weights: K-Spacing Value to Generate K-Mesh: 1.00
   0.00000000  0.00000000  0.00000000       1.000
 
 position of ions in fractional coordinates (direct lattice) 
   0.53193334  0.53340003  0.39926666
   0.49266666  0.46386668  0.44446665
   0.47526668  0.45640001  0.54973335
   0.48493334  0.52353334  0.60880000
   0.54159997  0.53026667  0.32546666
   0.55419998  0.59713332  0.43113333
   0.47853333  0.40220000  0.40106665
   0.46719999  0.38373334  0.57593333
   0.49766668  0.59206664  0.58273335
   0.47593333  0.51740001  0.68133335
 
 position of ions in cartesian coordinates  (Angst):
   7.97900009  8.00100040  5.98899984
   7.38999987  6.95800018  6.66699982
   7.12900019  6.84600019  8.24600029
   7.27400017  7.85300016  9.13199997
   8.12399960  7.95400000  4.88199997
   8.31299973  8.95699978  6.46700001
   7.17799997  6.03299999  6.01599979
   7.00799990  5.75600004  8.63899994
   7.46500015  8.88099957  8.74100018
   7.13899994  7.76100016 10.22000027
 


--------------------------------------------------------------------------------------------------------


 k-point   1 :   0.0000 0.0000 0.0000  plane waves:   90879

 maximum and minimum number of plane-waves per node :     45467    45412

 maximum number of plane-waves:     90879
 maximum index in each direction: 
   IXMAX=   27   IYMAX=   27   IZMAX=   27
   IXMIN=  -27   IYMIN=  -27   IZMIN=  -27


 real space projection operators:
  total allocation   :       1185.38 KBytes
  max/ min on nodes  :        593.59        591.79


 parallel 3D FFT for wavefunctions:
    minimum data exchange during FFTs selected (reduces bandwidth)
 parallel 3D FFT for charge:
    minimum data exchange during FFTs selected (reduces bandwidth)


 total amount of memory used by VASP MPI-rank0   224784. kBytes
=======================================================================

   base      :      30000. kBytes
   nonlr-proj:       1260. kBytes
   fftplans  :     123538. kBytes
   grid      :      67787. kBytes
   one-center:         15. kBytes
   wavefun   :       2184. kBytes
 
     INWAV:  cpu time      0.0000: real time      0.0000
 Broyden mixing: mesh for mixing (old mesh)
   NGX = 55   NGY = 55   NGZ = 55
  (NGX  =224   NGY  =224   NGZ  =224)
  gives a total of 166375 points

 initial charge density was supplied:
 charge density of overlapping atoms calculated
 number of electron      22.0000000 magnetization 
 keeping initial charge density in first step


--------------------------------------------------------------------------------------------------------


 Maximum index for non-local projection operator         1512
 Maximum index for augmentation-charges         2476 (set IRDMAX)


--------------------------------------------------------------------------------------------------------


 First call to EWALD:  gamma=   0.118
 Maximum number of real-space cells 3x 3x 3
 Maximum number of reciprocal cells 3x 3x 3

    FEWALD:  cpu time      0.0010: real time      0.0010


--------------------------------------- Ionic step        1  -------------------------------------------




--------------------------------------- Iteration      1(   1)  ---------------------------------------


    POTLOK:  cpu time      0.3365: real time      0.3384
    SETDIJ:  cpu time      0.1942: real time      0.1950
     EDDAV:  cpu time      0.4145: real time      0.4172
       DOS:  cpu time      0.0002: real time      0.0002
    --------------------------------------------
      LOOP:  cpu time      0.9453: real time      0.9508

 eigenvalue-minimisations  :    64
 total energy-change (2. order) : 0.9907746E+02  (-0.5218247E+03)
 number of electron      22.0000000 magnetization 
 augmentation part       22.0000000 magnetization 

 Free energy of the ion-electron system (eV)
  ---------------------------------------------------
  alpha Z        PSCENC =         0.62641250
  Ewald energy   TEWEN  =       834.25290113
  -Hartree energ DENC   =     -1269.63718743
  -exchange      EXHF   =         0.00000000
  -V(xc)+E(xc)   XCENC  =        66.51327507
  PAW double counting   =       156.01372664     -160.66969168
  entropy T*S    EENTRO =        -0.00000527
  eigenvalues    EBANDS =      -191.53937049
  atomic energy  EATOM  =       663.51739852
  Solvation  Ediel_sol  =         0.00000000
  ---------------------------------------------------
  free energy    TOTEN  =        99.07745900 eV

  energy without entropy =       99.07746427  energy(sigma->0) =       99.07746163


--------------------------------------------------------------------------------------------------------




--------------------------------------- Iteration      1(   2)  ---------------------------------------


     EDDAV:  cpu time      0.4848: real time      0.4880
       DOS:  cpu time      0.0001: real time      0.0001
    --------------------------------------------
      LOOP:  cpu time      0.4849: real time      0.4881

 eigenvalue-minimisations  :    80
 total energy-change (2. order) :-0.1224703E+03  (-0.1196715E+03)
 number of electron      22.0000000 magnetization 
 augmentation part       22.0000000 magnetization 

 Free energy of the ion-electron system (eV)
  ---------------------------------------------------
  alpha Z        PSCENC =         0.62641250
  Ewald energy   TEWEN  =       834.25290113
  -Hartree energ DENC   =     -1269.63718743
  -exchange      EXHF   =         0.00000000
  -V(xc)+E(xc)   XCENC  =        66.51327507
  PAW double counting   =       156.01372664     -160.66969168
  entropy T*S    EENTRO =        -0.00000000
  eigenvalues    EBANDS =      -314.00963710
  atomic energy  EATOM  =       663.51739852
  Solvation  Ediel_sol  =         0.00000000
  ---------------------------------------------------
  free energy    TOTEN  =       -23.39280235 eV

  energy without entropy =      -23.39280235  energy(sigma->0) =      -23.39280235


--------------------------------------------------------------------------------------------------------




--------------------------------------- Iteration      1(   3)  ---------------------------------------


     EDDAV:  cpu time      0.4429: real time      0.4459
       DOS:  cpu time      0.0001: real time      0.0001
    --------------------------------------------
      LOOP:  cpu time      0.4430: real time      0.4460

 eigenvalue-minimisations  :    72
 total energy-change (2. order) :-0.3692382E+02  (-0.3685668E+02)
 number of electron      22.0000000 magnetization 
 augmentation part       22.0000000 magnetization 

 Free energy of the ion-electron system (eV)
  ---------------------------------------------------
  alpha Z        PSCENC =         0.62641250
  Ewald energy   TEWEN  =       834.25290113
  -Hartree energ DENC   =     -1269.63718743
  -exchange      EXHF   =         0.00000000
  -V(xc)+E(xc)   XCENC  =        66.51327507
  PAW double counting   =       156.01372664     -160.66969168
  entropy T*S    EENTRO =        -0.00000000
  eigenvalues    EBANDS =      -350.93345874
  atomic energy  EATOM  =       663.51739852
  Solvation  Ediel_sol  =         0.00000000
  ---------------------------------------------------
  free energy    TOTEN  =       -60.31662399 eV

  energy without entropy =      -60.31662399  energy(sigma->0) =      -60.31662399


--------------------------------------------------------------------------------------------------------




--------------------------------------- Iteration      1(   4)  ---------------------------------------


     EDDAV:  cpu time      0.4032: real time      0.4059
       DOS:  cpu time      0.0001: real time      0.0001
    --------------------------------------------
      LOOP:  cpu time      0.4033: real time      0.4060

 eigenvalue-minimisations  :    64
 total energy-change (2. order) :-0.1733978E+01  (-0.1731488E+01)
 number of electron      22.0000000 magnetization 
 augmentation part       22.0000000 magnetization 

 Free energy of the ion-electron system (eV)
  ---------------------------------------------------
  alpha Z        PSCENC =         0.62641250
  Ewald energy   TEWEN  =       834.25290113
  -Hartree energ DENC   =     -1269.63718743
  -exchange      EXHF   =         0.00000000
  -V(xc)+E(xc)   XCENC  =        66.51327507
  PAW double counting   =       156.01372664     -160.66969168
  entropy T*S    EENTRO =        -0.00000000
  eigenvalues    EBANDS =      -352.66743656
  atomic energy  EATOM  =       663.51739852
  Solvation  Ediel_sol  =         0.00000000
  ---------------------------------------------------
  free energy    TOTEN  =       -62.05060181 eV

  energy without entropy =      -62.05060181  energy(sigma->0) =      -62.05060181


--------------------------------------------------------------------------------------------------------




--------------------------------------- Iteration      1(   5)  ---------------------------------------


     EDDAV:  cpu time      0.4050: real time      0.4077
       DOS:  cpu time      0.0001: real time      0.0001
    CHARGE:  cpu time      0.1964: real time      0.1974
    MIXING:  cpu time      0.0152: real time      0.0152
    --------------------------------------------
      LOOP:  cpu time      0.6167: real time      0.6204

 eigenvalue-minimisations  :    64
 total energy-change (2. order) :-0.3008216E-01  (-0.3006215E-01)
 number of electron      22.0000000 magnetization 
 augmentation part        0.5482831 magnetization 

 Broyden mixing:
  rms(total) = 0.11118E+01    rms(broyden)= 0.11117E+01
  rms(prec ) = 0.13362E+01
  weight for this iteration     100.00

 Free energy of the ion-electron system (eV)
  ---------------------------------------------------
  alpha Z        PSCENC =         0.62641250
  Ewald energy   TEWEN  =       834.25290113
  -Hartree energ DENC   =     -1269.63718743
  -exchange      EXHF   =         0.00000000
  -V(xc)+E(xc)   XCENC  =        66.51327507
  PAW double counting   =       156.01372664     -160.66969168
  entropy T*S    EENTRO =        -0.00000000
  eigenvalues    EBANDS =      -352.69751872
  atomic energy  EATOM  =       663.51739852
  Solvation  Ediel_sol  =         0.00000000
  ---------------------------------------------------
  free energy    TOTEN  =       -62.08068396 eV

  energy without entropy =      -62.08068396  energy(sigma->0) =      -62.08068396


--------------------------------------------------------------------------------------------------------




--------------------------------------- Iteration      1(   6)  ---------------------------------------


    POTLOK:  cpu time      0.3092: real time      0.3111
    SETDIJ:  cpu time      0.1931: real time      0.1940
     EDDAV:  cpu time      0.4483: real time      0.4512
       DOS:  cpu time      0.0001: real time      0.0001
    CHARGE:  cpu time      0.1930: real time      0.1939
    MIXING:  cpu time      0.0174: real time      0.0175
    --------------------------------------------
      LOOP:  cpu time      1.1611: real time      1.1678

 eigenvalue-minimisations  :    72
 total energy-change (2. order) : 0.4508558E+01  (-0.7294194E+00)
 number of electron      22.0000000 magnetization 
 augmentation part        0.5020918 magnetization 

 Broyden mixing:
  rms(total) = 0.53986E+00    rms(broyden)= 0.53983E+00
  rms(prec ) = 0.63927E+00
  weight for this iteration     100.00

 eigenvalues of (default mixing * dielectric matrix)
  average eigenvalue GAMMA=   1.5414
  1.5414

 Free energy of the ion-electron system (eV)
  ---------------------------------------------------
  alpha Z        PSCENC =         0.62641250
  Ewald energy   TEWEN  =       834.25290113
  -Hartree energ DENC   =     -1312.31510724
  -exchange      EXHF   =         0.00000000
  -V(xc)+E(xc)   XCENC  =        68.78267677
  PAW double counting   =       220.90985164     -226.05548983
  entropy T*S    EENTRO =        -0.00000000
  eigenvalues    EBANDS =      -307.29076974
  atomic energy  EATOM  =       663.51739852
  Solvation  Ediel_sol  =         0.00000000
  ---------------------------------------------------
  free energy    TOTEN  =       -57.57212625 eV

  energy without entropy =      -57.57212625  energy(sigma->0) =      -57.57212625


--------------------------------------------------------------------------------------------------------




--------------------------------------- Iteration      1(   7)  ---------------------------------------


    POTLOK:  cpu time      0.3109: real time      0.3129
    SETDIJ:  cpu time      0.1917: real time      0.1926
     EDDAV:  cpu time      0.4507: real time      0.4536
       DOS:  cpu time      0.0001: real time      0.0001
    CHARGE:  cpu time      0.1937: real time      0.1946
    MIXING:  cpu time      0.0165: real time      0.0165
    --------------------------------------------
      LOOP:  cpu time      1.1636: real time      1.1703

 eigenvalue-minimisations  :    72
 total energy-change (2. order) : 0.1057897E+01  (-0.3168684E+00)
 number of electron      22.0000000 magnetization 
 augmentation part        0.4754119 magnetization 

 Broyden mixing:
  rms(total) = 0.21829E+00    rms(broyden)= 0.21823E+00
  rms(prec ) = 0.25190E+00
  weight for this iteration     100.00

 eigenvalues of (default mixing * dielectric matrix)
  average eigenvalue GAMMA=   1.5246
  1.2760  1.7733

 Free energy of the ion-electron system (eV)
  ---------------------------------------------------
  alpha Z        PSCENC =         0.62641250
  Ewald energy   TEWEN  =       834.25290113
  -Hartree energ DENC   =     -1344.92318629
  -exchange      EXHF   =         0.00000000
  -V(xc)+E(xc)   XCENC  =        70.67403408
  PAW double counting   =       270.46339074     -275.81185560
  entropy T*S    EENTRO =        -0.00000000
  eigenvalues    EBANDS =      -275.31332442
  atomic energy  EATOM  =       663.51739852
  Solvation  Ediel_sol  =         0.00000000
  ---------------------------------------------------
  free energy    TOTEN  =       -56.51422935 eV

  energy without entropy =      -56.51422935  energy(sigma->0) =      -56.51422935


--------------------------------------------------------------------------------------------------------




--------------------------------------- Iteration      1(   8)  ---------------------------------------


    POTLOK:  cpu time      0.3141: real time      0.3160
    SETDIJ:  cpu time      0.1920: real time      0.1929
     EDDAV:  cpu time      0.4481: real time      0.4511
       DOS:  cpu time      0.0001: real time      0.0001
    CHARGE:  cpu time      0.1943: real time      0.1952
    MIXING:  cpu time      0.0160: real time      0.0160
    --------------------------------------------
      LOOP:  cpu time      1.1645: real time      1.1714

 eigenvalue-minimisations  :    72
 total energy-change (2. order) : 0.1363069E+00  (-0.1880826E-01)
 number of electron      22.0000000 magnetization 
 augmentation part        0.4725179 magnetization 

 Broyden mixing:
  rms(total) = 0.97372E-01    rms(broyden)= 0.97366E-01
  rms(prec ) = 0.12065E+00
  weight for this iteration     100.00

 eigenvalues of (default mixing * dielectric matrix)
  average eigenvalue GAMMA=   1.6404
  2.4456  0.8750  1.6007

 Free energy of the ion-electron system (eV)
  ---------------------------------------------------
  alpha Z        PSCENC =         0.62641250
  Ewald energy   TEWEN  =       834.25290113
  -Hartree energ DENC   =     -1352.34788873
  -exchange      EXHF   =         0.00000000
  -V(xc)+E(xc)   XCENC  =        71.19270747
  PAW double counting   =       278.35747772     -283.64910752
  entropy T*S    EENTRO =        -0.00000000
  eigenvalues    EBANDS =      -268.32782354
  atomic energy  EATOM  =       663.51739852
  Solvation  Ediel_sol  =         0.00000000
  ---------------------------------------------------
  free energy    TOTEN  =       -56.37792246 eV

  energy without entropy =      -56.37792246  energy(sigma->0) =      -56.37792246


--------------------------------------------------------------------------------------------------------




--------------------------------------- Iteration      1(   9)  ---------------------------------------


    POTLOK:  cpu time      0.3148: real time      0.3168
    SETDIJ:  cpu time      0.1932: real time      0.1942
     EDDAV:  cpu time      0.3240: real time      0.3262
       DOS:  cpu time      0.0001: real time      0.0001
    CHARGE:  cpu time      0.1930: real time      0.1939
    MIXING:  cpu time      0.0157: real time      0.0158
    --------------------------------------------
      LOOP:  cpu time      1.0407: real time      1.0468

 eigenvalue-minimisations  :    48
 total energy-change (2. order) : 0.5215656E-01  (-0.7274298E-02)
 number of electron      22.0000000 magnetization 
 augmentation part        0.4714623 magnetization 

 Broyden mixing:
  rms(total) = 0.25787E-01    rms(broyden)= 0.25780E-01
  rms(prec ) = 0.47736E-01
  weight for this iteration     100.00

 eigenvalues of (default mixing * dielectric matrix)
  average eigenvalue GAMMA=   1.4251
  2.2765  1.6068  0.9085  0.9085

 Free energy of the ion-electron system (eV)
  ---------------------------------------------------
  alpha Z        PSCENC =         0.62641250
  Ewald energy   TEWEN  =       834.25290113
  -Hartree energ DENC   =     -1358.52085579
  -exchange      EXHF   =         0.00000000
  -V(xc)+E(xc)   XCENC  =        71.57518622
  PAW double counting   =       281.67887694     -286.90931823
  entropy T*S    EENTRO =        -0.00000000
  eigenvalues    EBANDS =      -262.54636718
  atomic energy  EATOM  =       663.51739852
  Solvation  Ediel_sol  =         0.00000000
  ---------------------------------------------------
  free energy    TOTEN  =       -56.32576590 eV

  energy without entropy =      -56.32576590  energy(sigma->0) =      -56.32576590


--------------------------------------------------------------------------------------------------------




--------------------------------------- Iteration      1(  10)  ---------------------------------------


    POTLOK:  cpu time      0.3158: real time      0.3177
    SETDIJ:  cpu time      0.1932: real time      0.1941
     EDDAV:  cpu time      0.4858: real time      0.4889
       DOS:  cpu time      0.0001: real time      0.0001
    CHARGE:  cpu time      0.1923: real time      0.1932
    MIXING:  cpu time      0.0167: real time      0.0168
    --------------------------------------------
      LOOP:  cpu time      1.2039: real time      1.2108

 eigenvalue-minimisations  :    80
 total energy-change (2. order) : 0.3740124E-02  (-0.1201374E-02)
 number of electron      22.0000000 magnetization 
 augmentation part        0.4708588 magnetization 

 Broyden mixing:
  rms(total) = 0.16116E-01    rms(broyden)= 0.16114E-01
  rms(prec ) = 0.35591E-01
  weight for this iteration     100.00

 eigenvalues of (default mixing * dielectric matrix)
  average eigenvalue GAMMA=   1.6379
  2.5964  2.3140  1.3283  0.9755  0.9755

 Free energy of the ion-electron system (eV)
  ---------------------------------------------------
  alpha Z        PSCENC =         0.62641250
  Ewald energy   TEWEN  =       834.25290113
  -Hartree energ DENC   =     -1360.21436785
  -exchange      EXHF   =         0.00000000
  -V(xc)+E(xc)   XCENC  =        71.59619576
  PAW double counting   =       281.33728687     -286.57741471
  entropy T*S    EENTRO =        -0.00000000
  eigenvalues    EBANDS =      -260.86043799
  atomic energy  EATOM  =       663.51739852
  Solvation  Ediel_sol  =         0.00000000
  ---------------------------------------------------
  free energy    TOTEN  =       -56.32202577 eV

  energy without entropy =      -56.32202577  energy(sigma->0) =      -56.32202577


--------------------------------------------------------------------------------------------------------




--------------------------------------- Iteration      1(  11)  ---------------------------------------


    POTLOK:  cpu time      0.3170: real time      0.3189
    SETDIJ:  cpu time      0.1908: real time      0.1917
     EDDAV:  cpu time      0.3251: real time      0.3272
       DOS:  cpu time      0.0001: real time      0.0001
    CHARGE:  cpu time      0.1918: real time      0.1927
    MIXING:  cpu time      0.0152: real time      0.0153
    --------------------------------------------
      LOOP:  cpu time      1.0400: real time      1.0460

 eigenvalue-minimisations  :    48
 total energy-change (2. order) : 0.1126968E-01  (-0.1079468E-02)
 number of electron      22.0000000 magnetization 
 augmentation part        0.4702415 magnetization 

 Broyden mixing:
  rms(total) = 0.75901E-02    rms(broyden)= 0.75890E-02
  rms(prec ) = 0.17046E-01
  weight for this iteration     100.00

 eigenvalues of (default mixing * dielectric matrix)
  average eigenvalue GAMMA=   1.6839
  3.1908  2.4794  1.3445  1.0138  1.0375  1.0375

 Free energy of the ion-electron system (eV)
  ---------------------------------------------------
  alpha Z        PSCENC =         0.62641250
  Ewald energy   TEWEN  =       834.25290113
  -Hartree energ DENC   =     -1365.13525707
  -exchange      EXHF   =         0.00000000
  -V(xc)+E(xc)   XCENC  =        71.72877166
  PAW double counting   =       280.06183117     -285.29131311
  entropy T*S    EENTRO =        -0.00000000
  eigenvalues    EBANDS =      -256.07150089
  atomic energy  EATOM  =       663.51739852
  Solvation  Ediel_sol  =         0.00000000
  ---------------------------------------------------
  free energy    TOTEN  =       -56.31075609 eV

  energy without entropy =      -56.31075609  energy(sigma->0) =      -56.31075609


--------------------------------------------------------------------------------------------------------




--------------------------------------- Iteration      1(  12)  ---------------------------------------


    POTLOK:  cpu time      0.3129: real time      0.3148
    SETDIJ:  cpu time      0.1912: real time      0.1922
     EDDAV:  cpu time      0.4066: real time      0.4092
       DOS:  cpu time      0.0002: real time      0.0002
    CHARGE:  cpu time      0.1910: real time      0.1919
    MIXING:  cpu time      0.0174: real time      0.0175
    --------------------------------------------
      LOOP:  cpu time      1.1193: real time      1.1258

 eigenvalue-minimisations  :    64
 total energy-change (2. order) :-0.1128052E-02  (-0.1151427E-03)
 number of electron      22.0000000 magnetization 
 augmentation part        0.4700193 magnetization 

 Broyden mixing:
  rms(total) = 0.58906E-02    rms(broyden)= 0.58905E-02
  rms(prec ) = 0.12033E-01
  weight for this iteration     100.00

 eigenvalues of (default mixing * dielectric matrix)
  average eigenvalue GAMMA=   1.9354
  4.4020  2.4958  2.2836  1.4366  0.9381  0.9959  0.9959

 Free energy of the ion-electron system (eV)
  ---------------------------------------------------
  alpha Z        PSCENC =         0.62641250
  Ewald energy   TEWEN  =       834.25290113
  -Hartree energ DENC   =     -1366.43021947
  -exchange      EXHF   =         0.00000000
  -V(xc)+E(xc)   XCENC  =        71.74630295
  PAW double counting   =       279.55831752     -284.78762305
  entropy T*S    EENTRO =        -0.00000000
  eigenvalues    EBANDS =      -254.79537425
  atomic energy  EATOM  =       663.51739852
  Solvation  Ediel_sol  =         0.00000000
  ---------------------------------------------------
  free energy    TOTEN  =       -56.31188415 eV

  energy without entropy =      -56.31188415  energy(sigma->0) =      -56.31188415


--------------------------------------------------------------------------------------------------------




--------------------------------------- Iteration      1(  13)  ---------------------------------------


    POTLOK:  cpu time      0.3164: real time      0.3183
    SETDIJ:  cpu time      0.1919: real time      0.1929
     EDDAV:  cpu time      0.3263: real time      0.3284
       DOS:  cpu time      0.0001: real time      0.0001
    CHARGE:  cpu time      0.1929: real time      0.1938
    MIXING:  cpu time      0.0155: real time      0.0156
    --------------------------------------------
      LOOP:  cpu time      1.0431: real time      1.0490

 eigenvalue-minimisations  :    48
 total energy-change (2. order) :-0.1020322E-01  (-0.1890999E-03)
 number of electron      22.0000000 magnetization 
 augmentation part        0.4699874 magnetization 

 Broyden mixing:
  rms(total) = 0.30759E-02    rms(broyden)= 0.30757E-02
  rms(prec ) = 0.60690E-02
  weight for this iteration     100.00

 eigenvalues of (default mixing * dielectric matrix)
  average eigenvalue GAMMA=   1.9796
  5.0997  2.7457  2.1707  1.4442  1.4442  0.9451  0.9936  0.9936

 Free energy of the ion-electron system (eV)
  ---------------------------------------------------
  alpha Z        PSCENC =         0.62641250
  Ewald energy   TEWEN  =       834.25290113
  -Hartree energ DENC   =     -1367.49685911
  -exchange      EXHF   =         0.00000000
  -V(xc)+E(xc)   XCENC  =        71.75161243
  PAW double counting   =       279.51684687     -284.74610583
  entropy T*S    EENTRO =        -0.00000000
  eigenvalues    EBANDS =      -253.74429388
  atomic energy  EATOM  =       663.51739852
  Solvation  Ediel_sol  =         0.00000000
  ---------------------------------------------------
  free energy    TOTEN  =       -56.32208737 eV

  energy without entropy =      -56.32208737  energy(sigma->0) =      -56.32208737


--------------------------------------------------------------------------------------------------------




--------------------------------------- Iteration      1(  14)  ---------------------------------------


    POTLOK:  cpu time      0.3161: real time      0.3180
    SETDIJ:  cpu time      0.1929: real time      0.1939
     EDDAV:  cpu time      0.4060: real time      0.4087
       DOS:  cpu time      0.0001: real time      0.0001
    CHARGE:  cpu time      0.1924: real time      0.1933
    MIXING:  cpu time      0.0171: real time      0.0172
    --------------------------------------------
      LOOP:  cpu time      1.1246: real time      1.1312

 eigenvalue-minimisations  :    64
 total energy-change (2. order) :-0.5710938E-02  (-0.9024112E-04)
 number of electron      22.0000000 magnetization 
 augmentation part        0.4697766 magnetization 

 Broyden mixing:
  rms(total) = 0.21561E-02    rms(broyden)= 0.21559E-02
  rms(prec ) = 0.38163E-02
  weight for this iteration     100.00

 eigenvalues of (default mixing * dielectric matrix)
  average eigenvalue GAMMA=   2.2105
  6.4761  3.5739  2.3481  2.0324  1.3151  1.3151  0.9617  0.9617  0.9103

 Free energy of the ion-electron system (eV)
  ---------------------------------------------------
  alpha Z        PSCENC =         0.62641250
  Ewald energy   TEWEN  =       834.25290113
  -Hartree energ DENC   =     -1367.79478630
  -exchange      EXHF   =         0.00000000
  -V(xc)+E(xc)   XCENC  =        71.74507278
  PAW double counting   =       279.65401465     -284.88488958
  entropy T*S    EENTRO =        -0.00000000
  eigenvalues    EBANDS =      -253.44392200
  atomic energy  EATOM  =       663.51739852
  Solvation  Ediel_sol  =         0.00000000
  ---------------------------------------------------
  free energy    TOTEN  =       -56.32779830 eV

  energy without entropy =      -56.32779830  energy(sigma->0) =      -56.32779830


--------------------------------------------------------------------------------------------------------




--------------------------------------- Iteration      1(  15)  ---------------------------------------


    POTLOK:  cpu time      0.3088: real time      0.3107
    SETDIJ:  cpu time      0.1927: real time      0.1937
     EDDAV:  cpu time      0.4058: real time      0.4084
       DOS:  cpu time      0.0001: real time      0.0001
    CHARGE:  cpu time      0.1927: real time      0.1936
    MIXING:  cpu time      0.0166: real time      0.0167
    --------------------------------------------
      LOOP:  cpu time      1.1168: real time      1.1232

 eigenvalue-minimisations  :    64
 total energy-change (2. order) :-0.3918558E-02  (-0.6809234E-04)
 number of electron      22.0000000 magnetization 
 augmentation part        0.4698489 magnetization 

 Broyden mixing:
  rms(total) = 0.10927E-02    rms(broyden)= 0.10926E-02
  rms(prec ) = 0.18286E-02
  weight for this iteration     100.00

 eigenvalues of (default mixing * dielectric matrix)
  average eigenvalue GAMMA=   2.2433
  6.8408  4.0735  2.5197  2.0594  1.5374  1.2738  1.2738  0.9721  0.9721  0.9107

 Free energy of the ion-electron system (eV)
  ---------------------------------------------------
  alpha Z        PSCENC =         0.62641250
  Ewald energy   TEWEN  =       834.25290113
  -Hartree energ DENC   =     -1367.75379131
  -exchange      EXHF   =         0.00000000
  -V(xc)+E(xc)   XCENC  =        71.73409756
  PAW double counting   =       279.61049691     -284.83925241
  entropy T*S    EENTRO =        -0.00000000
  eigenvalues    EBANDS =      -253.47997975
  atomic energy  EATOM  =       663.51739852
  Solvation  Ediel_sol  =         0.00000000
  ---------------------------------------------------
  free energy    TOTEN  =       -56.33171686 eV

  energy without entropy =      -56.33171686  energy(sigma->0) =      -56.33171686


--------------------------------------------------------------------------------------------------------




--------------------------------------- Iteration      1(  16)  ---------------------------------------


    POTLOK:  cpu time      0.3083: real time      0.3103
    SETDIJ:  cpu time      0.1929: real time      0.1938
     EDDAV:  cpu time      0.4061: real time      0.4087
       DOS:  cpu time      0.0001: real time      0.0001
    CHARGE:  cpu time      0.1905: real time      0.1914
    MIXING:  cpu time      0.0189: real time      0.0189
    --------------------------------------------
      LOOP:  cpu time      1.1167: real time      1.1232

 eigenvalue-minimisations  :    64
 total energy-change (2. order) :-0.1127500E-02  (-0.1147008E-04)
 number of electron      22.0000000 magnetization 
 augmentation part        0.4697770 magnetization 

 Broyden mixing:
  rms(total) = 0.61482E-03    rms(broyden)= 0.61471E-03
  rms(prec ) = 0.10015E-02
  weight for this iteration     100.00

 eigenvalues of (default mixing * dielectric matrix)
  average eigenvalue GAMMA=   2.3343
  7.8388  4.5417  2.6726  2.4224  1.9136  1.2867  1.2867  0.9745  0.9745  0.9295
  0.8362

 Free energy of the ion-electron system (eV)
  ---------------------------------------------------
  alpha Z        PSCENC =         0.62641250
  Ewald energy   TEWEN  =       834.25290113
  -Hartree energ DENC   =     -1367.84892890
  -exchange      EXHF   =         0.00000000
  -V(xc)+E(xc)   XCENC  =        71.73616273
  PAW double counting   =       279.66015659     -284.88918488
  entropy T*S    EENTRO =        -0.00000000
  eigenvalues    EBANDS =      -253.38776205
  atomic energy  EATOM  =       663.51739852
  Solvation  Ediel_sol  =         0.00000000
  ---------------------------------------------------
  free energy    TOTEN  =       -56.33284436 eV

  energy without entropy =      -56.33284436  energy(sigma->0) =      -56.33284436


--------------------------------------------------------------------------------------------------------




--------------------------------------- Iteration      1(  17)  ---------------------------------------


    POTLOK:  cpu time      0.3061: real time      0.3080
    SETDIJ:  cpu time      0.1918: real time      0.1927
     EDDAV:  cpu time      0.4457: real time      0.4486
       DOS:  cpu time      0.0001: real time      0.0001
    CHARGE:  cpu time      0.1943: real time      0.1952
    MIXING:  cpu time      0.0176: real time      0.0177
    --------------------------------------------
      LOOP:  cpu time      1.1557: real time      1.1624

 eigenvalue-minimisations  :    72
 total energy-change (2. order) :-0.5481492E-03  (-0.3875728E-05)
 number of electron      22.0000000 magnetization 
 augmentation part        0.4697666 magnetization 

 Broyden mixing:
  rms(total) = 0.34434E-03    rms(broyden)= 0.34427E-03
  rms(prec ) = 0.57025E-03
  weight for this iteration     100.00

 eigenvalues of (default mixing * dielectric matrix)
  average eigenvalue GAMMA=   2.3562
  8.1371  4.9412  2.7672  2.3882  1.8454  1.8454  1.2291  1.2291  1.0817  0.9579
  0.9579  0.8937

 Free energy of the ion-electron system (eV)
  ---------------------------------------------------
  alpha Z        PSCENC =         0.62641250
  Ewald energy   TEWEN  =       834.25290113
  -Hartree energ DENC   =     -1367.84138293
  -exchange      EXHF   =         0.00000000
  -V(xc)+E(xc)   XCENC  =        71.73422317
  PAW double counting   =       279.61530984     -284.84453437
  entropy T*S    EENTRO =        -0.00000000
  eigenvalues    EBANDS =      -253.39372038
  atomic energy  EATOM  =       663.51739852
  Solvation  Ediel_sol  =         0.00000000
  ---------------------------------------------------
  free energy    TOTEN  =       -56.33339251 eV

  energy without entropy =      -56.33339251  energy(sigma->0) =      -56.33339251


--------------------------------------------------------------------------------------------------------




--------------------------------------- Iteration      1(  18)  ---------------------------------------


    POTLOK:  cpu time      0.3053: real time      0.3072
    SETDIJ:  cpu time      0.1908: real time      0.1917
     EDDAV:  cpu time      0.4441: real time      0.4470
       DOS:  cpu time      0.0001: real time      0.0001
    CHARGE:  cpu time      0.1908: real time      0.1917
    MIXING:  cpu time      0.0189: real time      0.0189
    --------------------------------------------
      LOOP:  cpu time      1.1499: real time      1.1566

 eigenvalue-minimisations  :    72
 total energy-change (2. order) :-0.2163380E-03  (-0.1083780E-05)
 number of electron      22.0000000 magnetization 
 augmentation part        0.4697827 magnetization 

 Broyden mixing:
  rms(total) = 0.17296E-03    rms(broyden)= 0.17287E-03
  rms(prec ) = 0.30209E-03
  weight for this iteration     100.00

 eigenvalues of (default mixing * dielectric matrix)
  average eigenvalue GAMMA=   2.3405
  8.5260  5.2066  3.1456  2.4634  2.1404  1.7259  1.2690  1.2690  0.9698  0.9698
  0.9797  0.8804  0.8804

 Free energy of the ion-electron system (eV)
  ---------------------------------------------------
  alpha Z        PSCENC =         0.62641250
  Ewald energy   TEWEN  =       834.25290113
  -Hartree energ DENC   =     -1367.82535305
  -exchange      EXHF   =         0.00000000
  -V(xc)+E(xc)   XCENC  =        71.73326472
  PAW double counting   =       279.60139978     -284.83047188
  entropy T*S    EENTRO =        -0.00000000
  eigenvalues    EBANDS =      -253.40916056
  atomic energy  EATOM  =       663.51739852
  Solvation  Ediel_sol  =         0.00000000
  ---------------------------------------------------
  free energy    TOTEN  =       -56.33360885 eV

  energy without entropy =      -56.33360885  energy(sigma->0) =      -56.33360885


--------------------------------------------------------------------------------------------------------




--------------------------------------- Iteration      1(  19)  ---------------------------------------


    POTLOK:  cpu time      0.3063: real time      0.3082
    SETDIJ:  cpu time      0.1922: real time      0.1932
     EDDAV:  cpu time      0.3688: real time      0.3712
       DOS:  cpu time      0.0001: real time      0.0001
    CHARGE:  cpu time      0.1939: real time      0.1948
    MIXING:  cpu time      0.0186: real time      0.0187
    --------------------------------------------
      LOOP:  cpu time      1.0799: real time      1.0862

 eigenvalue-minimisations  :    56
 total energy-change (2. order) :-0.6274211E-04  (-0.1733745E-06)
 number of electron      22.0000000 magnetization 
 augmentation part        0.4697776 magnetization 

 Broyden mixing:
  rms(total) = 0.12092E-03    rms(broyden)= 0.12084E-03
  rms(prec ) = 0.20714E-03
  weight for this iteration     100.00

 eigenvalues of (default mixing * dielectric matrix)
  average eigenvalue GAMMA=   2.3314
  8.6359  5.3770  3.2590  2.4549  2.2638  1.8904  1.1960  1.1960  1.2860  1.2860
  0.9632  0.9632  0.8961  0.9715

 Free energy of the ion-electron system (eV)
  ---------------------------------------------------
  alpha Z        PSCENC =         0.62641250
  Ewald energy   TEWEN  =       834.25290113
  -Hartree energ DENC   =     -1367.83479972
  -exchange      EXHF   =         0.00000000
  -V(xc)+E(xc)   XCENC  =        71.73343673
  PAW double counting   =       279.60143363     -284.83059673
  entropy T*S    EENTRO =        -0.00000000
  eigenvalues    EBANDS =      -253.39985766
  atomic energy  EATOM  =       663.51739852
  Solvation  Ediel_sol  =         0.00000000
  ---------------------------------------------------
  free energy    TOTEN  =       -56.33367159 eV

  energy without entropy =      -56.33367159  energy(sigma->0) =      -56.33367159


--------------------------------------------------------------------------------------------------------




--------------------------------------- Iteration      1(  20)  ---------------------------------------


    POTLOK:  cpu time      0.3082: real time      0.3101
    SETDIJ:  cpu time      0.1922: real time      0.1931
     EDDAV:  cpu time      0.4067: real time      0.4094
       DOS:  cpu time      0.0001: real time      0.0001
    CHARGE:  cpu time      0.1903: real time      0.1912
    MIXING:  cpu time      0.0195: real time      0.0196
    --------------------------------------------
      LOOP:  cpu time      1.1171: real time      1.1236

 eigenvalue-minimisations  :    64
 total energy-change (2. order) :-0.4596770E-04  (-0.9390934E-07)
 number of electron      22.0000000 magnetization 
 augmentation part        0.4697758 magnetization 

 Broyden mixing:
  rms(total) = 0.49755E-04    rms(broyden)= 0.49568E-04
  rms(prec ) = 0.10193E-03
  weight for this iteration     100.00

 eigenvalues of (default mixing * dielectric matrix)
  average eigenvalue GAMMA=   2.3750
  8.8630  5.7543  4.0391  2.6949  2.4424  1.8854  1.4147  1.4147  0.8953  0.9624
  0.9624  1.0617  1.0617  1.0868  1.0868

 Free energy of the ion-electron system (eV)
  ---------------------------------------------------
  alpha Z        PSCENC =         0.62641250
  Ewald energy   TEWEN  =       834.25290113
  -Hartree energ DENC   =     -1367.83898584
  -exchange      EXHF   =         0.00000000
  -V(xc)+E(xc)   XCENC  =        71.73343912
  PAW double counting   =       279.60702623     -284.83622126
  entropy T*S    EENTRO =        -0.00000000
  eigenvalues    EBANDS =      -253.39568796
  atomic energy  EATOM  =       663.51739852
  Solvation  Ediel_sol  =         0.00000000
  ---------------------------------------------------
  free energy    TOTEN  =       -56.33371756 eV

  energy without entropy =      -56.33371756  energy(sigma->0) =      -56.33371756


--------------------------------------------------------------------------------------------------------




--------------------------------------- Iteration      1(  21)  ---------------------------------------


    POTLOK:  cpu time      0.3141: real time      0.3160
    SETDIJ:  cpu time      0.1920: real time      0.1929
     EDDAV:  cpu time      0.4050: real time      0.4076
       DOS:  cpu time      0.0002: real time      0.0002
    CHARGE:  cpu time      0.1907: real time      0.1916
    MIXING:  cpu time      0.0204: real time      0.0205
    --------------------------------------------
      LOOP:  cpu time      1.1223: real time      1.1288

 eigenvalue-minimisations  :    64
 total energy-change (2. order) :-0.1850676E-04  (-0.3149464E-07)
 number of electron      22.0000000 magnetization 
 augmentation part        0.4697748 magnetization 

 Broyden mixing:
  rms(total) = 0.51848E-04    rms(broyden)= 0.51673E-04
  rms(prec ) = 0.76200E-04
  weight for this iteration     100.00

 eigenvalues of (default mixing * dielectric matrix)
  average eigenvalue GAMMA=   2.3722
  8.8682  5.9310  4.2179  2.7805  2.4553  1.9559  1.9559  1.2671  1.2671  1.2644
  1.2644  0.9362  0.9301  0.9301  0.9658  0.9658

 Free energy of the ion-electron system (eV)
  ---------------------------------------------------
  alpha Z        PSCENC =         0.62641250
  Ewald energy   TEWEN  =       834.25290113
  -Hartree energ DENC   =     -1367.84442549
  -exchange      EXHF   =         0.00000000
  -V(xc)+E(xc)   XCENC  =        71.73354083
  PAW double counting   =       279.60857936     -284.83778362
  entropy T*S    EENTRO =        -0.00000000
  eigenvalues    EBANDS =      -253.39035930
  atomic energy  EATOM  =       663.51739852
  Solvation  Ediel_sol  =         0.00000000
  ---------------------------------------------------
  free energy    TOTEN  =       -56.33373606 eV

  energy without entropy =      -56.33373606  energy(sigma->0) =      -56.33373606


--------------------------------------------------------------------------------------------------------




--------------------------------------- Iteration      1(  22)  ---------------------------------------


    POTLOK:  cpu time      0.3172: real time      0.3191
    SETDIJ:  cpu time      0.1906: real time      0.1915
     EDDAV:  cpu time      0.4056: real time      0.4082
       DOS:  cpu time      0.0001: real time      0.0001
    CHARGE:  cpu time      0.1935: real time      0.1945
    MIXING:  cpu time      0.0193: real time      0.0193
    --------------------------------------------
      LOOP:  cpu time      1.1263: real time      1.1327

 eigenvalue-minimisations  :    64
 total energy-change (2. order) :-0.9319218E-05  (-0.1611770E-07)
 number of electron      22.0000000 magnetization 
 augmentation part        0.4697739 magnetization 

 Broyden mixing:
  rms(total) = 0.25766E-04    rms(broyden)= 0.25418E-04
  rms(prec ) = 0.39231E-04
  weight for this iteration     100.00

 eigenvalues of (default mixing * dielectric matrix)
  average eigenvalue GAMMA=   2.4116
  9.0531  6.3555  4.6987  3.1696  2.4470  2.4470  1.8619  1.2588  1.2588  1.2752
  1.2752  1.1327  0.9557  0.9557  0.9047  0.9738  0.9738

 Free energy of the ion-electron system (eV)
  ---------------------------------------------------
  alpha Z        PSCENC =         0.62641250
  Ewald energy   TEWEN  =       834.25290113
  -Hartree energ DENC   =     -1367.84567326
  -exchange      EXHF   =         0.00000000
  -V(xc)+E(xc)   XCENC  =        71.73354093
  PAW double counting   =       279.60949707     -284.83869347
  entropy T*S    EENTRO =        -0.00000000
  eigenvalues    EBANDS =      -253.38912880
  atomic energy  EATOM  =       663.51739852
  Solvation  Ediel_sol  =         0.00000000
  ---------------------------------------------------
  free energy    TOTEN  =       -56.33374538 eV

  energy without entropy =      -56.33374538  energy(sigma->0) =      -56.33374538


--------------------------------------------------------------------------------------------------------




--------------------------------------- Iteration      1(  23)  ---------------------------------------


    POTLOK:  cpu time      0.3182: real time      0.3201
    SETDIJ:  cpu time      0.1909: real time      0.1918
     EDDAV:  cpu time      0.4074: real time      0.4101
       DOS:  cpu time      0.0001: real time      0.0001
    CHARGE:  cpu time      0.1930: real time      0.1939
    MIXING:  cpu time      0.0186: real time      0.0187
    --------------------------------------------
      LOOP:  cpu time      1.1281: real time      1.1347

 eigenvalue-minimisations  :    64
 total energy-change (2. order) :-0.2954836E-05  (-0.6470552E-08)
 number of electron      22.0000000 magnetization 
 augmentation part        0.4697755 magnetization 

 Broyden mixing:
  rms(total) = 0.21288E-04    rms(broyden)= 0.20867E-04
  rms(prec ) = 0.28592E-04
  weight for this iteration     100.00

 eigenvalues of (default mixing * dielectric matrix)
  average eigenvalue GAMMA=   2.4158
  9.0446  6.5815  4.8011  3.4503  2.4598  2.4598  1.8848  1.8848  1.3156  1.3156
  1.2547  1.2547  0.9496  0.9496  1.0225  1.0225  0.8924  0.9405

 Free energy of the ion-electron system (eV)
  ---------------------------------------------------
  alpha Z        PSCENC =         0.62641250
  Ewald energy   TEWEN  =       834.25290113
  -Hartree energ DENC   =     -1367.84410736
  -exchange      EXHF   =         0.00000000
  -V(xc)+E(xc)   XCENC  =        71.73345901
  PAW double counting   =       279.60757383     -284.83674542
  entropy T*S    EENTRO =        -0.00000000
  eigenvalues    EBANDS =      -253.39064056
  atomic energy  EATOM  =       663.51739852
  Solvation  Ediel_sol  =         0.00000000
  ---------------------------------------------------
  free energy    TOTEN  =       -56.33374834 eV

  energy without entropy =      -56.33374834  energy(sigma->0) =      -56.33374834


--------------------------------------------------------------------------------------------------------




--------------------------------------- Iteration      1(  24)  ---------------------------------------


    POTLOK:  cpu time      0.3223: real time      0.3242
    SETDIJ:  cpu time      0.1905: real time      0.1914
     EDDAV:  cpu time      0.3268: real time      0.3289
       DOS:  cpu time      0.0001: real time      0.0001
    CHARGE:  cpu time      0.1922: real time      0.1931
    MIXING:  cpu time      0.0197: real time      0.0198
    --------------------------------------------
      LOOP:  cpu time      1.0517: real time      1.0577

 eigenvalue-minimisations  :    48
 total energy-change (2. order) :-0.1605595E-05  (-0.3581823E-08)
 number of electron      22.0000000 magnetization 
 augmentation part        0.4697758 magnetization 

 Broyden mixing:
  rms(total) = 0.10438E-04    rms(broyden)= 0.95554E-05
  rms(prec ) = 0.14472E-04
  weight for this iteration     100.00

 eigenvalues of (default mixing * dielectric matrix)
  average eigenvalue GAMMA=   2.4177
  9.1131  6.8343  5.0756  3.6856  2.7888  2.4253  2.1165  1.8735  1.3269  1.3269
  1.3321  1.1553  1.1553  1.0026  1.0026  0.9540  0.9540  0.9025  0.9112

 Free energy of the ion-electron system (eV)
  ---------------------------------------------------
  alpha Z        PSCENC =         0.62641250
  Ewald energy   TEWEN  =       834.25290113
  -Hartree energ DENC   =     -1367.84407917
  -exchange      EXHF   =         0.00000000
  -V(xc)+E(xc)   XCENC  =        71.73346236
  PAW double counting   =       279.60715420     -284.83632483
  entropy T*S    EENTRO =        -0.00000000
  eigenvalues    EBANDS =      -253.39067465
  atomic energy  EATOM  =       663.51739852
  Solvation  Ediel_sol  =         0.00000000
  ---------------------------------------------------
  free energy    TOTEN  =       -56.33374994 eV

  energy without entropy =      -56.33374994  energy(sigma->0) =      -56.33374994


--------------------------------------------------------------------------------------------------------




--------------------------------------- Iteration      1(  25)  ---------------------------------------


    POTLOK:  cpu time      0.3238: real time      0.3257
    SETDIJ:  cpu time      0.1908: real time      0.1917
     EDDAV:  cpu time      0.2859: real time      0.2878
       DOS:  cpu time      0.0001: real time      0.0001
    --------------------------------------------
      LOOP:  cpu time      0.8006: real time      0.8053

 eigenvalue-minimisations  :    40
 total energy-change (2. order) :-0.4904294E-06  (-0.1311113E-08)
 number of electron      22.0000000 magnetization 
 augmentation part        0.4697758 magnetization 

 Free energy of the ion-electron system (eV)
  ---------------------------------------------------
  alpha Z        PSCENC =         0.62641250
  Ewald energy   TEWEN  =       834.25290113
  -Hartree energ DENC   =     -1367.84495890
  -exchange      EXHF   =         0.00000000
  -V(xc)+E(xc)   XCENC  =        71.73349504
  PAW double counting   =       279.60766542     -284.83684360
  entropy T*S    EENTRO =        -0.00000000
  eigenvalues    EBANDS =      -253.38982054
  atomic energy  EATOM  =       663.51739852
  Solvation  Ediel_sol  =         0.00000000
  ---------------------------------------------------
  free energy    TOTEN  =       -56.33375043 eV

  energy without entropy =      -56.33375043  energy(sigma->0) =      -56.33375043


--------------------------------------------------------------------------------------------------------




 average (electrostatic) potential at core
  the test charge radii are     0.6991  0.5201
  (the norm of the test charge is              1.0000)
       1 -58.7035       2 -59.0823       3 -59.0952       4 -58.6704       5 -41.8482
       6 -41.8380       7 -41.6273       8 -41.5663       9 -41.8130      10 -42.0737
 
 
 
 E-fermi :  -5.5838     XC(G=0):  -0.4507     alpha+bet : -0.1681

 Fermi energy:        -5.5838203199

 k-point     1 :       0.0000    0.0000    0.0000
  band No.  band energies     occupation 
      1     -19.3069      2.00000
      2     -17.8531      2.00000
      3     -14.7019      2.00000
      4     -12.7911      2.00000
      5     -11.5542      2.00000
      6     -10.3655      2.00000
      7     -10.0853      2.00000
      8      -8.5762      2.00000
      9      -8.1039      2.00000
     10      -7.5195      2.00000
     11      -5.8376      2.00000
     12      -2.0274      0.00000
     13      -0.4177      0.00000
     14      -0.0296      0.00000
     15       0.1900      0.00000
     16       0.2642      0.00000
     17       0.3631      0.00000
     18       0.4857      0.00000
     19       0.5276      0.00000
     20       0.6611      0.00000
     21       0.7941      0.00000
     22       0.9097      0.00000
     23       0.9971      0.00000
     24       1.0972      0.00000


--------------------------------------------------------------------------------------------------------


 soft charge-density along one line, spin component           1
         0         1         2         3         4         5         6         7         8         9
 total charge-density along one line
 
 pseudopotential strength for first ion, spin component:           1
 10.256   0.020   0.002  -0.001   0.000   0.001  -0.000   0.001
  0.020  -0.001  -0.000   0.000  -0.000   0.000  -0.000   0.000
  0.002  -0.000  -4.376   0.002  -0.008  -0.015   0.000  -0.002
 -0.001   0.000   0.002  -4.374   0.003   0.000  -0.015   0.001
  0.000  -0.000  -0.008   0.003  -4.363  -0.002   0.001  -0.012
  0.001   0.000  -0.015   0.000  -0.002  -0.773   0.000  -0.000
 -0.000  -0.000   0.000  -0.015   0.001   0.000  -0.773   0.000
  0.001   0.000  -0.002   0.001  -0.012  -0.000   0.000  -0.773
 total augmentation occupancy for first ion, spin component:           1
  1.474  -1.022  -0.031   0.014  -0.008  -0.016   0.010  -0.011
 -1.022   0.792   0.068  -0.044   0.054   0.033  -0.020   0.021
 -0.031   0.068   1.148  -0.017   0.115   0.186  -0.008   0.048
  0.014  -0.044  -0.017   1.148  -0.046  -0.008   0.187  -0.021
 -0.008   0.054   0.115  -0.046   0.951   0.048  -0.021   0.107
 -0.016   0.033   0.186  -0.008   0.048   0.033  -0.003   0.012
  0.010  -0.020  -0.008   0.187  -0.021  -0.003   0.032  -0.005
 -0.011   0.021   0.048  -0.021   0.107   0.012  -0.005   0.014


------------------------ aborting loop because EDIFF is reached ----------------------------------------


    CHARGE:  cpu time      0.1926: real time      0.1936
    FORLOC:  cpu time      0.0349: real time      0.0350
    FORNL :  cpu time      1.0687: real time      1.0744
    STRESS:  cpu time      3.3594: real time      3.3776
    FORHAR:  cpu time      0.1143: real time      0.1149
    MIXING:  cpu time      0.0122: real time      0.0122
    OFIELD:  cpu time      0.0001: real time      0.0001

  FORCE on cell =-STRESS in cart. coord.  units (eV):
  Direction    XX          YY          ZZ          XY          YZ          ZX
  --------------------------------------------------------------------------------------
  Alpha Z     0.62641     0.62641     0.62641
  Ewald    -138.97354   332.77105   640.45505   162.88687    18.89974  -131.72746
  Hartree   222.48871   443.36807   701.98830    79.38946     3.00161   -85.16518
  E(xc)     -76.60801   -74.79026   -74.62724     0.57077     0.10026    -0.27668
  Local    -303.02551  -964.99441 -1532.25857  -232.77341   -19.29685   213.63406
  n-local   -27.23633   -29.66679   -28.51839    -0.71557    -0.23367     0.07303
  augment    -0.46979    -0.59819    -0.59082    -0.03898    -0.01376     0.01025
  Kinetic   322.19096   287.18954   283.64873   -11.00397    -1.75865     4.87559
  Fock        0.00000     0.00000     0.00000     0.00000     0.00000     0.00000
  -------------------------------------------------------------------------------------
  Total      -1.00709    -6.09459    -9.27652    -1.68484     0.69867     1.42362
  in kB      -0.47809    -2.89322    -4.40374    -0.79983     0.33167     0.67582
  external pressure =       -2.59 kB  Pullay stress =        0.00 kB


 VOLUME and BASIS-vectors are now :
 -----------------------------------------------------------------------------
  energy-cutoff  :      520.00
  volume of cell :     3375.00
      direct lattice vectors                 reciprocal lattice vectors
    15.000000000  0.000000000  0.000000000     0.066666667  0.000000000  0.000000000
     0.000000000 15.000000000  0.000000000     0.000000000  0.066666667  0.000000000
     0.000000000  0.000000000 15.000000000     0.000000000  0.000000000  0.066666667

  length of vectors
    15.000000000 15.000000000 15.000000000     0.066666667  0.066666667  0.066666667


 FORCES acting on ions
    electron-ion (+dipol)            ewald-force                    non-local-force                 convergence-correction
 -----------------------------------------------------------------------------------------------
   -.542E+02 -.819E+02 0.929E+02   0.545E+02 0.817E+02 -.927E+02   -.909E+00 -.317E+00 0.445E+00   -.276E-04 -.276E-04 0.373E-04
   0.348E+02 0.781E+02 0.408E+02   -.351E+02 -.783E+02 -.408E+02   0.658E+00 0.132E+00 0.617E+00   0.240E-04 0.293E-04 -.800E-04
   0.391E+02 0.926E+02 -.201E+02   -.395E+02 -.937E+02 0.199E+02   0.131E+01 -.241E+00 -.128E+01   0.833E-05 -.624E-04 -.120E-03
   -.377E+01 -.769E+02 -.117E+03   0.439E+01 0.774E+02 0.117E+03   -.880E+00 -.464E-01 -.121E+01   0.146E-04 0.533E-04 0.164E-04
   -.121E+02 -.509E+01 0.635E+02   0.126E+02 0.480E+01 -.679E+02   -.695E+00 0.199E+00 0.530E+01   -.376E-05 0.359E-05 0.305E-04
   -.239E+02 -.567E+02 -.792E+01   0.252E+02 0.605E+02 0.993E+01   -.160E+01 -.453E+01 -.222E+01   -.817E-05 -.184E-04 -.902E-05
   0.132E+02 0.532E+02 0.380E+02   -.140E+02 -.559E+02 -.396E+02   0.839E+00 0.390E+01 0.288E+01   0.547E-05 0.220E-04 0.146E-04
   0.907E+01 0.608E+02 -.240E+02   -.957E+01 -.634E+02 0.249E+02   0.430E+00 0.442E+01 -.165E+01   -.516E-06 -.217E-04 -.142E-05
   -.815E+01 -.615E+02 0.705E-02   0.893E+01 0.658E+02 -.153E+01   -.901E+00 -.490E+01 0.190E+01   0.608E-05 0.243E-04 -.121E-04
   0.692E+01 -.173E+01 -.654E+02   -.752E+01 0.112E+01 0.705E+02   0.699E+00 0.420E+00 -.554E+01   -.137E-05 0.121E-05 0.195E-04
 -----------------------------------------------------------------------------------------------
   0.106E+01 0.947E+00 0.762E+00   0.151E-13 -.329E-13 -.142E-13   -.105E+01 -.957E+00 -.767E+00   0.170E-04 0.361E-05 -.105E-03
 
 
 POSITION                                       TOTAL-FORCE (eV/Angst)
 -----------------------------------------------------------------------------------
      7.97900      8.00100      5.98900        -0.530697     -0.433024      0.593206
      7.39000      6.95800      6.66700         0.336140     -0.040337      0.626623
      7.12900      6.84600      8.24600         0.955971     -1.340255     -1.492799
      7.27400      7.85300      9.13200        -0.261830      0.521536     -0.804627
      8.12400      7.95400      4.88200        -0.116432     -0.092628      0.845900
      8.31300      8.95700      6.46700        -0.300601     -0.785123     -0.213694
      7.17800      6.03300      6.01600         0.018019      1.154638      1.231590
      7.00800      5.75600      8.63900        -0.078819      1.787571     -0.774951
      7.46500      8.88100      8.74100        -0.119205     -0.586034      0.384279
      7.13900      7.76100     10.22000         0.097454     -0.186343     -0.395527
 -----------------------------------------------------------------------------------
    total drift:                                0.006389     -0.009754     -0.005625


--------------------------------------------------------------------------------------------------------



  FREE ENERGIE OF THE ION-ELECTRON SYSTEM (eV)
  ---------------------------------------------------
  free  energy   TOTEN  =       -56.33375043 eV

  energy  without entropy=      -56.33375043  energy(sigma->0) =      -56.33375043
 


--------------------------------------------------------------------------------------------------------


    POTLOK:  cpu time      0.5184: real time      0.5213


--------------------------------------------------------------------------------------------------------


 stress matrix after NEB project (eV)
     -1.00709     -1.68484      1.42362
     -1.68484     -6.09459      0.69867
      1.42362      0.69867     -9.27652
  FORCES: max atom, RMS     2.222299    1.268996
  FORCE total and by dimension    4.012919    1.787571
  Stress total and by dimension   11.615474    9.276524
     LOOP+:  cpu time     30.4131: real time     30.5884
    4ORBIT:  cpu time      0.0000: real time      0.0000

 total amount of memory used by VASP MPI-rank0   224784. kBytes
=======================================================================

   base      :      30000. kBytes
   nonlr-proj:       1260. kBytes
   fftplans  :     123538. kBytes
   grid      :      67787. kBytes
   one-center:         15. kBytes
   wavefun   :       2184. kBytes
 
  
  
 General timing and accounting informations for this job:
 ========================================================
  
                  Total CPU time used (sec):       37.007
                            User time (sec):       33.817
                          System time (sec):        3.189
                         Elapsed time (sec):       38.392
  
                   Maximum memory used (kb):      560048.
                   Average memory used (kb):          N/A
  
                          Minor page faults:       156890
                          Major page faults:         5434
                 Voluntary context switches:         3126
