 vasp.6.4.2 20Jul23 (build Apr 10 2024 13:39:58) complex                        
  
 executed on             LinuxIFC date 2024.05.17  13:40:36
 running   16 mpi-ranks, on    1 nodes
 distrk:  each k-point on   16 cores,    1 groups
 distr:  one band on NCORE=   2 cores,    8 groups


--------------------------------------------------------------------------------------------------------


 INCAR:
   ISTART = 0
   ISPIN = 1
   LREAL = Auto
   ENCUT = 520
   NPAR = 8
   LPLANE = .TRUE.
   LSCALU = .FALSE.
   NSIM = 4
   LWAVE = .FALSE.
   LCHARG = .FALSE.
   ADDGRID = .TRUE.
   LASPH = .TRUE.
   PREC = Accurate
   ISMEAR = 0
   SIGMA = 0.05
   EDIFF = 1E-06
   NSW = 0
   TEBEG = 300
   TEEND = 700     	
   ISYM = 0
   NWRITE = 2

 POTCAR:   PAW_PBE C 08Apr2002                    
 POTCAR:   PAW_PBE H 15Jun2001                    
 POTCAR:   PAW_PBE C 08Apr2002                    
   VRHFIN =C: s2p2                                                                                  
   LEXCH  = PE                                                                                      
   EATOM  =   147.1560 eV,   10.8157 Ry                                                             
                                                                                                    
   TITEL  = PAW_PBE C 08Apr2002                                                                     
   LULTRA =        F    use ultrasoft PP ?                                                          
   IUNSCR =        0    unscreen: 0-lin 1-nonlin 2-no                                               
   RPACOR =     .000    partial core radius                                                         
   POMASS =   12.011; ZVAL   =    4.000    mass and valenz                                          
   RCORE  =    1.500    outmost cutoff radius                                                       
   RWIGS  =    1.630; RWIGS  =     .863    wigner-seitz radius (au A)                               
   ENMAX  =  400.000; ENMIN  =  300.000 eV                                                          
   ICORE  =        2    local potential                                                             
   LCOR   =        T    correct aug charges                                                         
   LPAW   =        T    paw PP                                                                      
   EAUG   =  644.873                                                                                
   DEXC   =     .000                                                                                
   RMAX   =    2.266    core radius for proj-oper                                                   
   RAUG   =    1.300    factor for augmentation sphere                                              
   RDEP   =    1.501    radius for radial grids                                                     
   RDEPT  =    1.300    core radius for aug-charge                                                  
   QCUT   =   -5.516; QGAM   =   11.032    optimization parameters                                  
                                                                                                    
   Description                                                                                      
     l     E      TYP  RCUT    TYP  RCUT                                                            
     0   .000     23  1.200                                                                         
     0   .000     23  1.200                                                                         
     1   .000     23  1.500                                                                         
     1  2.500     23  1.500                                                                         
     2   .000      7  1.500                                                                         
  local pseudopotential read in
  atomic valenz-charges read in
  non local Contribution for L=           0  read in
    real space projection operators read in
  non local Contribution for L=           0  read in
    real space projection operators read in
  non local Contribution for L=           1  read in
    real space projection operators read in
  non local Contribution for L=           1  read in
    real space projection operators read in
    PAW grid and wavefunctions read in
 
   number of l-projection  operators is LMAX  =           4
   number of lm-projection operators is LMMAX =           8
 
 POTCAR:   PAW_PBE H 15Jun2001                    
   VRHFIN =H: ultrasoft test                                                                        
   LEXCH  = PE                                                                                      
   EATOM  =    12.4884 eV,     .9179 Ry                                                             
                                                                                                    
   TITEL  = PAW_PBE H 15Jun2001                                                                     
   LULTRA =        F    use ultrasoft PP ?                                                          
   IUNSCR =        0    unscreen: 0-lin 1-nonlin 2-no                                               
   RPACOR =     .000    partial core radius                                                         
   POMASS =    1.000; ZVAL   =    1.000    mass and valenz                                          
   RCORE  =    1.100    outmost cutoff radius                                                       
   RWIGS  =     .700; RWIGS  =     .370    wigner-seitz radius (au A)                               
   ENMAX  =  250.000; ENMIN  =  200.000 eV                                                          
   RCLOC  =     .701    cutoff for local pot                                                        
   LCOR   =        T    correct aug charges                                                         
   LPAW   =        T    paw PP                                                                      
   EAUG   =  400.000                                                                                
   RMAX   =    2.174    core radius for proj-oper                                                   
   RAUG   =    1.200    factor for augmentation sphere                                              
   RDEP   =    1.112    radius for radial grids                                                     
   QCUT   =   -5.749; QGAM   =   11.498    optimization parameters                                  
                                                                                                    
   Description                                                                                      
     l     E      TYP  RCUT    TYP  RCUT                                                            
     0   .000     23  1.100                                                                         
     0   .500     23  1.100                                                                         
     1  -.300     23  1.100                                                                         
  local pseudopotential read in
  atomic valenz-charges read in
  non local Contribution for L=           0  read in
    real space projection operators read in
  non local Contribution for L=           0  read in
    real space projection operators read in
  non local Contribution for L=           1  read in
    real space projection operators read in
    PAW grid and wavefunctions read in
 
   number of l-projection  operators is LMAX  =           3
   number of lm-projection operators is LMMAX =           5
 
 Optimization of the real space projectors (new method)

 maximal supplied QI-value         = 25.13
 optimisation between [QCUT,QGAM] = [ 11.56, 23.12] = [ 37.43,149.72] Ry 
 Optimized for a Real-space Cutoff    1.04 Angstroem

   l    n(q)    QCUT    max X(q) W(low)/X(q) W(high)/X(q)  e(spline) 
   0      7    11.561     5.582    0.47E-04    0.94E-04    0.17E-07
   0      7    11.561    69.432    0.20E-03    0.59E-03    0.21E-06
   1      7    11.561     2.780    0.24E-04    0.70E-04    0.44E-07
   1      7    11.561     4.549    0.18E-03    0.25E-03    0.12E-06
 Optimization of the real space projectors (new method)

 maximal supplied QI-value         = 34.20
 optimisation between [QCUT,QGAM] = [ 11.63, 23.26] = [ 37.87,151.49] Ry 
 Optimized for a Real-space Cutoff    1.21 Angstroem

   l    n(q)    QCUT    max X(q) W(low)/X(q) W(high)/X(q)  e(spline) 
   0      8    11.629     4.436    0.19E-04    0.32E-04    0.47E-07
   0      8    11.629    16.131    0.16E-03    0.33E-03    0.21E-06
   1      8    11.629     4.654    0.18E-03    0.16E-03    0.26E-06
 PAW_PBE C 08Apr2002                    :
 energy of atom  1       EATOM= -147.1560
 kinetic energy error for atom=    0.0071 (will be added to EATOM!!)
 PAW_PBE H 15Jun2001                    :
 energy of atom  2       EATOM=  -12.4884
 kinetic energy error for atom=    0.0014 (will be added to EATOM!!)
 
 
 POSCAR:  C  H
  positions in cartesian coordinates
  No initial velocities read in
 exchange correlation table for  LEXCH =        8
   RHO(1)=    0.500       N(1)  =     2000
   RHO(2)=  100.500       N(2)  =     4000

 VTST: version 4.1, (05/19/21)

 CHAIN: initializing optimizer
 
 OPT: Using VASP Dynamics algorithm
 CHAIN: Read ICHAIN            0
 
 POSCAR:  C  H
  positions in cartesian coordinates
  No initial velocities read in
 


--------------------------------------------------------------------------------------------------------


 ion  position               nearest neighbor table
   1  0.527  0.535  0.401-   6 1.10   5 1.17   2 1.35
   2  0.501  0.463  0.448-   7 1.12   1 1.35   3 1.51
   3  0.496  0.454  0.548-   8 1.08   4 1.44   2 1.51
   4  0.475  0.525  0.608-   9 1.10  10 1.11   3 1.44
   5  0.517  0.529  0.323-   1 1.17
   6  0.554  0.597  0.427-   1 1.10
   7  0.481  0.401  0.410-   2 1.12
   8  0.511  0.388  0.572-   3 1.08
   9  0.457  0.591  0.582-   4 1.10
  10  0.481  0.517  0.681-   4 1.11
 

IMPORTANT INFORMATION: All symmetrisations will be switched off!
NOSYMM: (Re-)initialisation of all symmetry stuff for point group C_1.


----------------------------------------------------------------------------------------

                                     Primitive cell                                     

  volume of cell :    3375.0000

  direct lattice vectors                    reciprocal lattice vectors
    15.000000000  0.000000000  0.000000000     0.066666667  0.000000000  0.000000000
     0.000000000 15.000000000  0.000000000     0.000000000  0.066666667  0.000000000
     0.000000000  0.000000000 15.000000000     0.000000000  0.000000000  0.066666667

  length of vectors
    15.000000000 15.000000000 15.000000000     0.066666667  0.066666667  0.066666667

  position of ions in fractional coordinates (direct lattice)
     0.526799997  0.534533310  0.400533326
     0.500733344  0.462666670  0.447733339
     0.495666663  0.453866673  0.547733307
     0.474933338  0.525333341  0.608266640
     0.517199993  0.528666655  0.323333327
     0.554000028  0.597466660  0.427066676
     0.480799993  0.401399994  0.410466671
     0.511400000  0.387799994  0.571733348
     0.457000001  0.590933355  0.581666692
     0.481400013  0.517333349  0.681399981

  ion indices of the primitive-cell ions
   primitive index   ion index
                 1           1
                 2           2
                 3           3
                 4           4
                 5           5
                 6           6
                 7           7
                 8           8
                 9           9
                10          10

----------------------------------------------------------------------------------------

 
 
 KPOINTS: K-Spacing Value to Generate K-Mesh: 1.00

Automatic generation of k-mesh.
 Grid dimensions read from file:
 generate k-points for:    1    1    1

 Generating k-lattice:

  Cartesian coordinates                     Fractional coordinates (reciprocal lattice)
     0.066666667  0.000000000  0.000000000     1.000000000  0.000000000  0.000000000
     0.000000000  0.066666667  0.000000000     0.000000000  1.000000000  0.000000000
     0.000000000  0.000000000  0.066666667     0.000000000  0.000000000  1.000000000

  Length of vectors
     0.066666667  0.066666667  0.066666667

  Shift w.r.t. Gamma in fractional coordinates (k-lattice)
     0.000000000  0.000000000  0.000000000

 
 Subroutine IBZKPT returns following result:
 ===========================================
 
 Found      1 irreducible k-points:
 
 Following reciprocal coordinates:
            Coordinates               Weight
  0.000000  0.000000  0.000000      1.000000
 
 Following cartesian coordinates:
            Coordinates               Weight
  0.000000  0.000000  0.000000      1.000000
 


--------------------------------------------------------------------------------------------------------




 Dimension of arrays:
   k-points           NKPTS =      1   k-points in BZ     NKDIM =      1   number of bands    NBANDS=     24
   number of dos      NEDOS =    301   number of ions     NIONS =     10
   non local maximal  LDIM  =      4   non local SUM 2l+1 LMDIM =      8
   total plane-waves  NPLWV = ******
   max r-space proj   IRMAX =   3145   max aug-charges    IRDMAX=  39494
   dimension x,y,z NGX =   112 NGY =  112 NGZ =  112
   dimension x,y,z NGXF=   224 NGYF=  224 NGZF=  224
   support grid    NGXF=   448 NGYF=  448 NGZF=  448
   ions per type =               4   6
   NGX,Y,Z   is equivalent  to a cutoff of  12.41, 12.41, 12.41 a.u.
   NGXF,Y,Z  is equivalent  to a cutoff of  24.83, 24.83, 24.83 a.u.

 SYSTEM =  unknown system                          
 POSCAR =   C  H                                   

 Startparameter for this run:
   NWRITE =      2    write-flag & timer
   PREC   = accura    normal or accurate (medium, high low for compatibility)
   ISTART =      0    job   : 0-new  1-cont  2-samecut
   ICHARG =      2    charge: 1-file 2-atom 10-const
   ISPIN  =      1    spin polarized calculation?
   LNONCOLLINEAR =      F non collinear calculations
   LSORBIT =      F    spin-orbit coupling
   INIWAV =      1    electr: 0-lowe 1-rand  2-diag
   LASPH  =      T    aspherical Exc in radial PAW
 Electronic Relaxation 1
   ENCUT  =  520.0 eV  38.22 Ry    6.18 a.u.  27.89 27.89 27.89*2*pi/ulx,y,z
   ENINI  =  520.0     initial cutoff
   ENAUG  =  644.9 eV  augmentation charge cutoff
   NELM   =     60;   NELMIN=  2; NELMDL= -5     # of ELM steps 
   EDIFF  = 0.1E-05   stopping-criterion for ELM
   LREAL  =      T    real-space projection
   NLSPLINE    = F    spline interpolate recip. space projectors
   LCOMPAT=      F    compatible to vasp.4.4
   GGA_COMPAT  = T    GGA compatible to vasp.4.4-vasp.4.6
   LMAXPAW     = -100 max onsite density
   LMAXMIX     =    2 max onsite mixed and CHGCAR
   VOSKOWN=      0    Vosko Wilk Nusair interpolation
   ROPT   =   -0.00025  -0.00025
 Ionic relaxation
   EDIFFG = 0.1E-04   stopping-criterion for IOM
   NSW    =      0    number of steps for IOM
   NBLOCK =      1;   KBLOCK =      1    inner block; outer block 
   IBRION =     -1    ionic relax: 0-MD 1-quasi-New 2-CG
   NFREE  =      0    steps in history (QN), initial steepest desc. (CG)
   ISIF   =      2    stress and relaxation
   IWAVPR =     10    prediction:  0-non 1-charg 2-wave 3-comb
   ISYM   =      0    0-nonsym 1-usesym 2-fastsym
   LCORR  =      T    Harris-Foulkes like correction to forces

   POTIM  = 0.5000    time-step for ionic-motion
   TEIN   =    0.0    initial temperature
   TEBEG  =  300.0;   TEEND  = 700.0 temperature during run
   SMASS  =  -3.00    Nose mass-parameter (am)
   estimated Nose-frequenzy (Omega)   =  0.10E-29 period in steps = 0.13E+47 mass=  -0.514E-26a.u.
   SCALEE = 1.0000    scale energy and forces
   NPACO  =    256;   APACO  = 10.0  distance and # of slots for P.C.
   PSTRESS=    0.0 pullay stress

  Mass of Ions in am
   POMASS =  12.01  1.00
  Ionic Valenz
   ZVAL   =   4.00  1.00
  Atomic Wigner-Seitz radii
   RWIGS  =  -1.00 -1.00
  virtual crystal weights 
   VCA    =   1.00  1.00
   NELECT =      22.0000    total number of electrons
   NUPDOWN=      -1.0000    fix difference up-down

 DOS related values:
   EMIN   =  10.00;   EMAX   =-10.00  energy-range for DOS
   EFERMI =   0.00;   METHOD = LEGACY      
   ISMEAR =     0;   SIGMA  =   0.05  broadening in eV -4-tet -1-fermi 0-gaus

 Electronic relaxation 2 (details)
   IALGO  =     38    algorithm
   LDIAG  =      T    sub-space diagonalisation (order eigenvalues)
   LSUBROT=      F    optimize rotation matrix (better conditioning)
   TURBO    =      0    0=normal 1=particle mesh
   IRESTART =      0    0=no restart 2=restart with 2 vectors
   NREBOOT  =      0    no. of reboots
   NMIN     =      0    reboot dimension
   EREF     =   0.00    reference energy to select bands
   IMIX   =      4    mixing-type and parameters
     AMIX     =   0.40;   BMIX     =  1.00
     AMIX_MAG =   1.60;   BMIX_MAG =  1.00
     AMIN     =   0.10
     WC   =   100.;   INIMIX=   1;  MIXPRE=   1;  MAXMIX= -45

 Intra band minimization:
   WEIMIN = 0.0000     energy-eigenvalue tresh-hold
   EBREAK =  0.10E-07  absolut break condition
   DEPER  =   0.30     relativ break condition  

   TIME   =   0.40     timestep for ELM

  volume/ion in A,a.u.               =     337.50      2277.56
  Fermi-wavevector in a.u.,A,eV,Ry     =   0.305814  0.577905  1.272449  0.093522
  Thomas-Fermi vector in A             =   1.179187
 
 Write flags
   LWAVE        =      F    write WAVECAR
   LDOWNSAMPLE  =      F    k-point downsampling of WAVECAR
   LCHARG       =      F    write CHGCAR
   LVTOT        =      F    write LOCPOT, total local potential
   LVHAR        =      F    write LOCPOT, Hartree potential only
   LELF         =      F    write electronic localiz. function (ELF)
   LORBIT       =      0    0 simple, 1 ext, 2 COOP (PROOUT), +10 PAW based schemes


 Dipole corrections
   LMONO  =      F    monopole corrections only (constant potential shift)
   LDIPOL =      F    correct potential (dipole corrections)
   IDIPOL =      0    1-x, 2-y, 3-z, 4-all directions 
   EPSILON=  1.0000000 bulk dielectric constant

 Exchange correlation treatment:
   GGA     =    --    GGA type
   LEXCH   =     8    internal setting for exchange type
   LIBXC   =     F    Libxc                    
   VOSKOWN =     0    Vosko Wilk Nusair interpolation
   LHFCALC =     F    Hartree Fock is set to
   LHFONE  =     F    Hartree Fock one center treatment
   AEXX    =    0.0000 exact exchange contribution

 Linear response parameters
   LEPSILON=     F    determine dielectric tensor
   LRPA    =     F    only Hartree local field effects (RPA)
   LNABLA  =     F    use nabla operator in PAW spheres
   LVEL    =     F    velocity operator in full k-point grid
   CSHIFT  =0.1000    complex shift for real part using Kramers Kronig
   OMEGAMAX=  -1.0    maximum frequency
   DEG_THRESHOLD= 0.2000000E-02 threshold for treating states as degnerate
   RTIME   =   -0.100 relaxation time in fs
  (WPLASMAI=    0.000 imaginary part of plasma frequency in eV, 0.658/RTIME)
   DFIELD  = 0.0000000 0.0000000 0.0000000 field for delta impulse in time
 
  Optional k-point grid parameters
   LKPOINTS_OPT  =     F    use optional k-point grid
   KPOINTS_OPT_MODE=     1    mode for optional k-point grid
 
 Orbital magnetization related:
   ORBITALMAG=     F  switch on orbital magnetization
   LCHIMAG   =     F  perturbation theory with respect to B field
   DQ        =  0.001000  dq finite difference perturbation B field
   LLRAUG    =     F  two centre corrections for induced B field
   LBONE     =     F  B-component reconstruction in AE one-centre
   LVGVCALC  =     T  calculate vGv susceptibility
   LVGVAPPL  =     F  apply vGv susceptibility instead of pGv for G=0

 Random number generation:
   RANDOM_GENERATOR = DEFAULT
   PCG_SEED         = not used


--------------------------------------------------------------------------------------------------------


 Static calculation
 charge density and potential will be updated during run
 non-spin polarized calculation
 Variant of blocked Davidson
 Davidson routine will perform the subspace rotation
 perform sub-space diagonalisation
    after iterative eigenvector-optimisation
 modified Broyden-mixing scheme, WC =      100.0
 initial mixing is a Kerker type mixing with AMIX =  0.4000 and BMIX =      1.0000
 Hartree-type preconditioning will be used
 using additional bands           13
 real space projection scheme for non local part
 calculate Harris-corrections to forces 
   (improved forces if not selfconsistent)
 use gradient corrections 
 use of overlap-Matrix (Vanderbilt PP)
 Gauss-broadening in eV      SIGMA  =   0.05


--------------------------------------------------------------------------------------------------------


  energy-cutoff  :      520.00
  volume of cell :     3375.00
      direct lattice vectors                 reciprocal lattice vectors
    15.000000000  0.000000000  0.000000000     0.066666667  0.000000000  0.000000000
     0.000000000 15.000000000  0.000000000     0.000000000  0.066666667  0.000000000
     0.000000000  0.000000000 15.000000000     0.000000000  0.000000000  0.066666667

  length of vectors
    15.000000000 15.000000000 15.000000000     0.066666667  0.066666667  0.066666667


 
 k-points in units of 2pi/SCALE and weight: K-Spacing Value to Generate K-Mesh: 1.00
   0.00000000  0.00000000  0.00000000       1.000
 
 k-points in reciprocal lattice and weights: K-Spacing Value to Generate K-Mesh: 1.00
   0.00000000  0.00000000  0.00000000       1.000
 
 position of ions in fractional coordinates (direct lattice) 
   0.52680000  0.53453331  0.40053333
   0.50073334  0.46266667  0.44773334
   0.49566666  0.45386667  0.54773331
   0.47493334  0.52533334  0.60826664
   0.51719999  0.52866666  0.32333333
   0.55400003  0.59746666  0.42706668
   0.48079999  0.40139999  0.41046667
   0.51140000  0.38779999  0.57173335
   0.45700000  0.59093335  0.58166669
   0.48140001  0.51733335  0.68139998
 
 position of ions in cartesian coordinates  (Angst):
   7.90199995  8.01799965  6.00799990
   7.51100016  6.94000006  6.71600008
   7.43499994  6.80800009  8.21599960
   7.12400007  7.88000011  9.12399960
   7.75799990  7.92999983  4.84999990
   8.31000042  8.96199989  6.40600014
   7.21199989  6.02099991  6.15700006
   7.67100000  5.81699991  8.57600021
   6.85500002  8.86400032  8.72500038
   7.22100019  7.76000023 10.22099972
 


--------------------------------------------------------------------------------------------------------


 k-point   1 :   0.0000 0.0000 0.0000  plane waves:   90879

 maximum and minimum number of plane-waves per node :     45467    45412

 maximum number of plane-waves:     90879
 maximum index in each direction: 
   IXMAX=   27   IYMAX=   27   IZMAX=   27
   IXMIN=  -27   IYMIN=  -27   IZMIN=  -27


 real space projection operators:
  total allocation   :       1184.82 KBytes
  max/ min on nodes  :        593.41        591.41


 parallel 3D FFT for wavefunctions:
    minimum data exchange during FFTs selected (reduces bandwidth)
 parallel 3D FFT for charge:
    minimum data exchange during FFTs selected (reduces bandwidth)


 total amount of memory used by VASP MPI-rank0   224782. kBytes
=======================================================================

   base      :      30000. kBytes
   nonlr-proj:       1258. kBytes
   fftplans  :     123538. kBytes
   grid      :      67787. kBytes
   one-center:         15. kBytes
   wavefun   :       2184. kBytes
 
     INWAV:  cpu time      0.0000: real time      0.0000
 Broyden mixing: mesh for mixing (old mesh)
   NGX = 55   NGY = 55   NGZ = 55
  (NGX  =224   NGY  =224   NGZ  =224)
  gives a total of 166375 points

 initial charge density was supplied:
 charge density of overlapping atoms calculated
 number of electron      22.0000000 magnetization 
 keeping initial charge density in first step


--------------------------------------------------------------------------------------------------------


 Maximum index for non-local projection operator         1514
 Maximum index for augmentation-charges         2506 (set IRDMAX)


--------------------------------------------------------------------------------------------------------


 First call to EWALD:  gamma=   0.118
 Maximum number of real-space cells 3x 3x 3
 Maximum number of reciprocal cells 3x 3x 3

    FEWALD:  cpu time      0.0010: real time      0.0010


--------------------------------------- Ionic step        1  -------------------------------------------




--------------------------------------- Iteration      1(   1)  ---------------------------------------


    POTLOK:  cpu time      0.3325: real time      0.3344
    SETDIJ:  cpu time      0.1936: real time      0.1945
     EDDAV:  cpu time      0.4192: real time      0.4215
       DOS:  cpu time      0.0002: real time      0.0002
    --------------------------------------------
      LOOP:  cpu time      0.9456: real time      0.9506

 eigenvalue-minimisations  :    64
 total energy-change (2. order) : 0.1026097E+03  (-0.5209554E+03)
 number of electron      22.0000000 magnetization 
 augmentation part       22.0000000 magnetization 

 Free energy of the ion-electron system (eV)
  ---------------------------------------------------
  alpha Z        PSCENC =         0.62641250
  Ewald energy   TEWEN  =       848.76150752
  -Hartree energ DENC   =     -1281.40447592
  -exchange      EXHF   =         0.00000000
  -V(xc)+E(xc)   XCENC  =        66.69821856
  PAW double counting   =       156.01372664     -160.66969168
  entropy T*S    EENTRO =        -0.00000169
  eigenvalues    EBANDS =      -190.93337335
  atomic energy  EATOM  =       663.51739852
  Solvation  Ediel_sol  =         0.00000000
  ---------------------------------------------------
  free energy    TOTEN  =       102.60972110 eV

  energy without entropy =      102.60972279  energy(sigma->0) =      102.60972194


--------------------------------------------------------------------------------------------------------




--------------------------------------- Iteration      1(   2)  ---------------------------------------


     EDDAV:  cpu time      0.4886: real time      0.4914
       DOS:  cpu time      0.0002: real time      0.0002
    --------------------------------------------
      LOOP:  cpu time      0.4888: real time      0.4915

 eigenvalue-minimisations  :    80
 total energy-change (2. order) :-0.1235457E+03  (-0.1208219E+03)
 number of electron      22.0000000 magnetization 
 augmentation part       22.0000000 magnetization 

 Free energy of the ion-electron system (eV)
  ---------------------------------------------------
  alpha Z        PSCENC =         0.62641250
  Ewald energy   TEWEN  =       848.76150752
  -Hartree energ DENC   =     -1281.40447592
  -exchange      EXHF   =         0.00000000
  -V(xc)+E(xc)   XCENC  =        66.69821856
  PAW double counting   =       156.01372664     -160.66969168
  entropy T*S    EENTRO =        -0.00000000
  eigenvalues    EBANDS =      -314.47907112
  atomic energy  EATOM  =       663.51739852
  Solvation  Ediel_sol  =         0.00000000
  ---------------------------------------------------
  free energy    TOTEN  =       -20.93597498 eV

  energy without entropy =      -20.93597498  energy(sigma->0) =      -20.93597498


--------------------------------------------------------------------------------------------------------




--------------------------------------- Iteration      1(   3)  ---------------------------------------


     EDDAV:  cpu time      0.4070: real time      0.4093
       DOS:  cpu time      0.0002: real time      0.0002
    --------------------------------------------
      LOOP:  cpu time      0.4072: real time      0.4095

 eigenvalue-minimisations  :    64
 total energy-change (2. order) :-0.3804181E+02  (-0.3795154E+02)
 number of electron      22.0000000 magnetization 
 augmentation part       22.0000000 magnetization 

 Free energy of the ion-electron system (eV)
  ---------------------------------------------------
  alpha Z        PSCENC =         0.62641250
  Ewald energy   TEWEN  =       848.76150752
  -Hartree energ DENC   =     -1281.40447592
  -exchange      EXHF   =         0.00000000
  -V(xc)+E(xc)   XCENC  =        66.69821856
  PAW double counting   =       156.01372664     -160.66969168
  entropy T*S    EENTRO =        -0.00000000
  eigenvalues    EBANDS =      -352.52088215
  atomic energy  EATOM  =       663.51739852
  Solvation  Ediel_sol  =         0.00000000
  ---------------------------------------------------
  free energy    TOTEN  =       -58.97778601 eV

  energy without entropy =      -58.97778601  energy(sigma->0) =      -58.97778601


--------------------------------------------------------------------------------------------------------




--------------------------------------- Iteration      1(   4)  ---------------------------------------


     EDDAV:  cpu time      0.4464: real time      0.4490
       DOS:  cpu time      0.0002: real time      0.0002
    --------------------------------------------
      LOOP:  cpu time      0.4467: real time      0.4493

 eigenvalue-minimisations  :    72
 total energy-change (2. order) :-0.3240220E+01  (-0.3234295E+01)
 number of electron      22.0000000 magnetization 
 augmentation part       22.0000000 magnetization 

 Free energy of the ion-electron system (eV)
  ---------------------------------------------------
  alpha Z        PSCENC =         0.62641250
  Ewald energy   TEWEN  =       848.76150752
  -Hartree energ DENC   =     -1281.40447592
  -exchange      EXHF   =         0.00000000
  -V(xc)+E(xc)   XCENC  =        66.69821856
  PAW double counting   =       156.01372664     -160.66969168
  entropy T*S    EENTRO =        -0.00000000
  eigenvalues    EBANDS =      -355.76110214
  atomic energy  EATOM  =       663.51739852
  Solvation  Ediel_sol  =         0.00000000
  ---------------------------------------------------
  free energy    TOTEN  =       -62.21800600 eV

  energy without entropy =      -62.21800600  energy(sigma->0) =      -62.21800600


--------------------------------------------------------------------------------------------------------




--------------------------------------- Iteration      1(   5)  ---------------------------------------


     EDDAV:  cpu time      0.4083: real time      0.4106
       DOS:  cpu time      0.0001: real time      0.0001
    CHARGE:  cpu time      0.2007: real time      0.2014
    MIXING:  cpu time      0.0118: real time      0.0119
    --------------------------------------------
      LOOP:  cpu time      0.6210: real time      0.6241

 eigenvalue-minimisations  :    64
 total energy-change (2. order) :-0.3549444E-01  (-0.3547328E-01)
 number of electron      22.0000000 magnetization 
 augmentation part        0.5545527 magnetization 

 Broyden mixing:
  rms(total) = 0.11204E+01    rms(broyden)= 0.11203E+01
  rms(prec ) = 0.13429E+01
  weight for this iteration     100.00

 Free energy of the ion-electron system (eV)
  ---------------------------------------------------
  alpha Z        PSCENC =         0.62641250
  Ewald energy   TEWEN  =       848.76150752
  -Hartree energ DENC   =     -1281.40447592
  -exchange      EXHF   =         0.00000000
  -V(xc)+E(xc)   XCENC  =        66.69821856
  PAW double counting   =       156.01372664     -160.66969168
  entropy T*S    EENTRO =        -0.00000000
  eigenvalues    EBANDS =      -355.79659658
  atomic energy  EATOM  =       663.51739852
  Solvation  Ediel_sol  =         0.00000000
  ---------------------------------------------------
  free energy    TOTEN  =       -62.25350044 eV

  energy without entropy =      -62.25350044  energy(sigma->0) =      -62.25350044


--------------------------------------------------------------------------------------------------------




--------------------------------------- Iteration      1(   6)  ---------------------------------------


    POTLOK:  cpu time      0.3075: real time      0.3092
    SETDIJ:  cpu time      0.1927: real time      0.1934
     EDDAV:  cpu time      0.4075: real time      0.4098
       DOS:  cpu time      0.0001: real time      0.0001
    CHARGE:  cpu time      0.1976: real time      0.1984
    MIXING:  cpu time      0.0104: real time      0.0105
    --------------------------------------------
      LOOP:  cpu time      1.1158: real time      1.1214

 eigenvalue-minimisations  :    64
 total energy-change (2. order) : 0.4538545E+01  (-0.6357548E+00)
 number of electron      22.0000000 magnetization 
 augmentation part        0.5096405 magnetization 

 Broyden mixing:
  rms(total) = 0.54705E+00    rms(broyden)= 0.54703E+00
  rms(prec ) = 0.64869E+00
  weight for this iteration     100.00

 eigenvalues of (default mixing * dielectric matrix)
  average eigenvalue GAMMA=   1.6424
  1.6424

 Free energy of the ion-electron system (eV)
  ---------------------------------------------------
  alpha Z        PSCENC =         0.62641250
  Ewald energy   TEWEN  =       848.76150752
  -Hartree energ DENC   =     -1324.77114255
  -exchange      EXHF   =         0.00000000
  -V(xc)+E(xc)   XCENC  =        68.99255431
  PAW double counting   =       222.30556293     -227.45992900
  entropy T*S    EENTRO =        -0.00000000
  eigenvalues    EBANDS =      -309.68732013
  atomic energy  EATOM  =       663.51739852
  Solvation  Ediel_sol  =         0.00000000
  ---------------------------------------------------
  free energy    TOTEN  =       -57.71495589 eV

  energy without entropy =      -57.71495589  energy(sigma->0) =      -57.71495589


--------------------------------------------------------------------------------------------------------




--------------------------------------- Iteration      1(   7)  ---------------------------------------


    POTLOK:  cpu time      0.3088: real time      0.3104
    SETDIJ:  cpu time      0.1936: real time      0.1944
     EDDAV:  cpu time      0.4078: real time      0.4100
       DOS:  cpu time      0.0001: real time      0.0001
    CHARGE:  cpu time      0.1989: real time      0.1997
    MIXING:  cpu time      0.0129: real time      0.0129
    --------------------------------------------
      LOOP:  cpu time      1.1221: real time      1.1276

 eigenvalue-minimisations  :    64
 total energy-change (2. order) : 0.1118647E+01  (-0.3874214E+00)
 number of electron      22.0000000 magnetization 
 augmentation part        0.4795789 magnetization 

 Broyden mixing:
  rms(total) = 0.21472E+00    rms(broyden)= 0.21466E+00
  rms(prec ) = 0.24657E+00
  weight for this iteration     100.00

 eigenvalues of (default mixing * dielectric matrix)
  average eigenvalue GAMMA=   1.7926
  1.7926  1.7926

 Free energy of the ion-electron system (eV)
  ---------------------------------------------------
  alpha Z        PSCENC =         0.62641250
  Ewald energy   TEWEN  =       848.76150752
  -Hartree energ DENC   =     -1360.81454401
  -exchange      EXHF   =         0.00000000
  -V(xc)+E(xc)   XCENC  =        71.08891307
  PAW double counting   =       278.07546574     -283.46479623
  entropy T*S    EENTRO =        -0.00000000
  eigenvalues    EBANDS =      -274.38666580
  atomic energy  EATOM  =       663.51739852
  Solvation  Ediel_sol  =         0.00000000
  ---------------------------------------------------
  free energy    TOTEN  =       -56.59630868 eV

  energy without entropy =      -56.59630868  energy(sigma->0) =      -56.59630868


--------------------------------------------------------------------------------------------------------




--------------------------------------- Iteration      1(   8)  ---------------------------------------


    POTLOK:  cpu time      0.3118: real time      0.3135
    SETDIJ:  cpu time      0.1929: real time      0.1937
     EDDAV:  cpu time      0.3668: real time      0.3688
       DOS:  cpu time      0.0001: real time      0.0001
    CHARGE:  cpu time      0.1960: real time      0.1968
    MIXING:  cpu time      0.0121: real time      0.0121
    --------------------------------------------
      LOOP:  cpu time      1.0797: real time      1.0851

 eigenvalue-minimisations  :    56
 total energy-change (2. order) : 0.1431109E+00  (-0.2230231E-01)
 number of electron      22.0000000 magnetization 
 augmentation part        0.4801410 magnetization 

 Broyden mixing:
  rms(total) = 0.57668E-01    rms(broyden)= 0.57662E-01
  rms(prec ) = 0.84079E-01
  weight for this iteration     100.00

 eigenvalues of (default mixing * dielectric matrix)
  average eigenvalue GAMMA=   1.6299
  2.4125  0.8653  1.6118

 Free energy of the ion-electron system (eV)
  ---------------------------------------------------
  alpha Z        PSCENC =         0.62641250
  Ewald energy   TEWEN  =       848.76150752
  -Hartree energ DENC   =     -1366.77012810
  -exchange      EXHF   =         0.00000000
  -V(xc)+E(xc)   XCENC  =        71.55805195
  PAW double counting   =       282.28142005     -287.55702659
  entropy T*S    EENTRO =        -0.00000000
  eigenvalues    EBANDS =      -268.87083363
  atomic energy  EATOM  =       663.51739852
  Solvation  Ediel_sol  =         0.00000000
  ---------------------------------------------------
  free energy    TOTEN  =       -56.45319778 eV

  energy without entropy =      -56.45319778  energy(sigma->0) =      -56.45319778


--------------------------------------------------------------------------------------------------------




--------------------------------------- Iteration      1(   9)  ---------------------------------------


    POTLOK:  cpu time      0.3125: real time      0.3142
    SETDIJ:  cpu time      0.1934: real time      0.1943
     EDDAV:  cpu time      0.4944: real time      0.4973
       DOS:  cpu time      0.0001: real time      0.0001
    CHARGE:  cpu time      0.1988: real time      0.1996
    MIXING:  cpu time      0.0101: real time      0.0102
    --------------------------------------------
      LOOP:  cpu time      1.2094: real time      1.2156

 eigenvalue-minimisations  :    80
 total energy-change (2. order) : 0.3065989E-01  (-0.4942039E-02)
 number of electron      22.0000000 magnetization 
 augmentation part        0.4783316 magnetization 

 Broyden mixing:
  rms(total) = 0.23994E-01    rms(broyden)= 0.23990E-01
  rms(prec ) = 0.46736E-01
  weight for this iteration     100.00

 eigenvalues of (default mixing * dielectric matrix)
  average eigenvalue GAMMA=   1.4459
  2.2910  1.5955  0.9484  0.9484

 Free energy of the ion-electron system (eV)
  ---------------------------------------------------
  alpha Z        PSCENC =         0.62641250
  Ewald energy   TEWEN  =       848.76150752
  -Hartree energ DENC   =     -1372.06850026
  -exchange      EXHF   =         0.00000000
  -V(xc)+E(xc)   XCENC  =        71.85128028
  PAW double counting   =       285.98677339     -291.23954499
  entropy T*S    EENTRO =        -0.00000000
  eigenvalues    EBANDS =      -263.85786486
  atomic energy  EATOM  =       663.51739852
  Solvation  Ediel_sol  =         0.00000000
  ---------------------------------------------------
  free energy    TOTEN  =       -56.42253789 eV

  energy without entropy =      -56.42253789  energy(sigma->0) =      -56.42253789


--------------------------------------------------------------------------------------------------------




--------------------------------------- Iteration      1(  10)  ---------------------------------------


    POTLOK:  cpu time      0.3141: real time      0.3158
    SETDIJ:  cpu time      0.1937: real time      0.1945
     EDDAV:  cpu time      0.3295: real time      0.3314
       DOS:  cpu time      0.0001: real time      0.0001
    CHARGE:  cpu time      0.1939: real time      0.1947
    MIXING:  cpu time      0.0134: real time      0.0134
    --------------------------------------------
      LOOP:  cpu time      1.0447: real time      1.0499

 eigenvalue-minimisations  :    48
 total energy-change (2. order) : 0.4652495E-02  (-0.1655118E-02)
 number of electron      22.0000000 magnetization 
 augmentation part        0.4767740 magnetization 

 Broyden mixing:
  rms(total) = 0.16973E-01    rms(broyden)= 0.16969E-01
  rms(prec ) = 0.34494E-01
  weight for this iteration     100.00

 eigenvalues of (default mixing * dielectric matrix)
  average eigenvalue GAMMA=   1.6214
  2.4144  2.4144  0.9931  0.9931  1.2922

 Free energy of the ion-electron system (eV)
  ---------------------------------------------------
  alpha Z        PSCENC =         0.62641250
  Ewald energy   TEWEN  =       848.76150752
  -Hartree energ DENC   =     -1374.51522528
  -exchange      EXHF   =         0.00000000
  -V(xc)+E(xc)   XCENC  =        71.90165579
  PAW double counting   =       285.91916419     -291.18362061
  entropy T*S    EENTRO =        -0.00000000
  eigenvalues    EBANDS =      -261.44517803
  atomic energy  EATOM  =       663.51739852
  Solvation  Ediel_sol  =         0.00000000
  ---------------------------------------------------
  free energy    TOTEN  =       -56.41788540 eV

  energy without entropy =      -56.41788540  energy(sigma->0) =      -56.41788540


--------------------------------------------------------------------------------------------------------




--------------------------------------- Iteration      1(  11)  ---------------------------------------


    POTLOK:  cpu time      0.3141: real time      0.3158
    SETDIJ:  cpu time      0.1942: real time      0.1950
     EDDAV:  cpu time      0.3282: real time      0.3301
       DOS:  cpu time      0.0001: real time      0.0001
    CHARGE:  cpu time      0.1985: real time      0.1993
    MIXING:  cpu time      0.0101: real time      0.0101
    --------------------------------------------
      LOOP:  cpu time      1.0453: real time      1.0504

 eigenvalue-minimisations  :    48
 total energy-change (2. order) : 0.8945288E-02  (-0.5862549E-03)
 number of electron      22.0000000 magnetization 
 augmentation part        0.4764960 magnetization 

 Broyden mixing:
  rms(total) = 0.70163E-02    rms(broyden)= 0.70160E-02
  rms(prec ) = 0.17391E-01
  weight for this iteration     100.00

 eigenvalues of (default mixing * dielectric matrix)
  average eigenvalue GAMMA=   1.7342
  3.3397  2.4776  1.4369  1.1534  0.9989  0.9989

 Free energy of the ion-electron system (eV)
  ---------------------------------------------------
  alpha Z        PSCENC =         0.62641250
  Ewald energy   TEWEN  =       848.76150752
  -Hartree energ DENC   =     -1378.41188153
  -exchange      EXHF   =         0.00000000
  -V(xc)+E(xc)   XCENC  =        72.00273075
  PAW double counting   =       284.44830467     -289.69884459
  entropy T*S    EENTRO =        -0.00000000
  eigenvalues    EBANDS =      -257.65456795
  atomic energy  EATOM  =       663.51739852
  Solvation  Ediel_sol  =         0.00000000
  ---------------------------------------------------
  free energy    TOTEN  =       -56.40894011 eV

  energy without entropy =      -56.40894011  energy(sigma->0) =      -56.40894011


--------------------------------------------------------------------------------------------------------




--------------------------------------- Iteration      1(  12)  ---------------------------------------


    POTLOK:  cpu time      0.3141: real time      0.3157
    SETDIJ:  cpu time      0.1931: real time      0.1939
     EDDAV:  cpu time      0.4459: real time      0.4483
       DOS:  cpu time      0.0001: real time      0.0001
    CHARGE:  cpu time      0.2007: real time      0.2015
    MIXING:  cpu time      0.0087: real time      0.0087
    --------------------------------------------
      LOOP:  cpu time      1.1625: real time      1.1683

 eigenvalue-minimisations  :    72
 total energy-change (2. order) :-0.8358204E-04  (-0.2335546E-03)
 number of electron      22.0000000 magnetization 
 augmentation part        0.4760902 magnetization 

 Broyden mixing:
  rms(total) = 0.53085E-02    rms(broyden)= 0.53082E-02
  rms(prec ) = 0.11032E-01
  weight for this iteration     100.00

 eigenvalues of (default mixing * dielectric matrix)
  average eigenvalue GAMMA=   1.9199
  4.3655  2.3170  2.3170  1.4893  0.9992  0.9757  0.9757

 Free energy of the ion-electron system (eV)
  ---------------------------------------------------
  alpha Z        PSCENC =         0.62641250
  Ewald energy   TEWEN  =       848.76150752
  -Hartree energ DENC   =     -1380.43927368
  -exchange      EXHF   =         0.00000000
  -V(xc)+E(xc)   XCENC  =        72.04056963
  PAW double counting   =       284.01577829     -289.26645439
  entropy T*S    EENTRO =        -0.00000000
  eigenvalues    EBANDS =      -255.66496207
  atomic energy  EATOM  =       663.51739852
  Solvation  Ediel_sol  =         0.00000000
  ---------------------------------------------------
  free energy    TOTEN  =       -56.40902369 eV

  energy without entropy =      -56.40902369  energy(sigma->0) =      -56.40902369


--------------------------------------------------------------------------------------------------------




--------------------------------------- Iteration      1(  13)  ---------------------------------------


    POTLOK:  cpu time      0.3084: real time      0.3100
    SETDIJ:  cpu time      0.1930: real time      0.1938
     EDDAV:  cpu time      0.4050: real time      0.4073
       DOS:  cpu time      0.0001: real time      0.0001
    CHARGE:  cpu time      0.1993: real time      0.2001
    MIXING:  cpu time      0.0110: real time      0.0110
    --------------------------------------------
      LOOP:  cpu time      1.1167: real time      1.1224

 eigenvalue-minimisations  :    64
 total energy-change (2. order) :-0.9890773E-02  (-0.1757747E-03)
 number of electron      22.0000000 magnetization 
 augmentation part        0.4760829 magnetization 

 Broyden mixing:
  rms(total) = 0.31713E-02    rms(broyden)= 0.31711E-02
  rms(prec ) = 0.62518E-02
  weight for this iteration     100.00

 eigenvalues of (default mixing * dielectric matrix)
  average eigenvalue GAMMA=   2.0050
  5.1601  2.8025  2.0971  1.5458  1.5458  0.9508  0.9688  0.9688

 Free energy of the ion-electron system (eV)
  ---------------------------------------------------
  alpha Z        PSCENC =         0.62641250
  Ewald energy   TEWEN  =       848.76150752
  -Hartree energ DENC   =     -1381.16177040
  -exchange      EXHF   =         0.00000000
  -V(xc)+E(xc)   XCENC  =        72.03953157
  PAW double counting   =       284.04054454     -289.29055146
  entropy T*S    EENTRO =        -0.00000000
  eigenvalues    EBANDS =      -254.95198725
  atomic energy  EATOM  =       663.51739852
  Solvation  Ediel_sol  =         0.00000000
  ---------------------------------------------------
  free energy    TOTEN  =       -56.41891446 eV

  energy without entropy =      -56.41891446  energy(sigma->0) =      -56.41891446


--------------------------------------------------------------------------------------------------------




--------------------------------------- Iteration      1(  14)  ---------------------------------------


    POTLOK:  cpu time      0.3097: real time      0.3113
    SETDIJ:  cpu time      0.1911: real time      0.1919
     EDDAV:  cpu time      0.4087: real time      0.4110
       DOS:  cpu time      0.0002: real time      0.0002
    CHARGE:  cpu time      0.1998: real time      0.2006
    MIXING:  cpu time      0.0093: real time      0.0093
    --------------------------------------------
      LOOP:  cpu time      1.1188: real time      1.1243

 eigenvalue-minimisations  :    64
 total energy-change (2. order) :-0.5354082E-02  (-0.7588611E-04)
 number of electron      22.0000000 magnetization 
 augmentation part        0.4759193 magnetization 

 Broyden mixing:
  rms(total) = 0.23477E-02    rms(broyden)= 0.23475E-02
  rms(prec ) = 0.39799E-02
  weight for this iteration     100.00

 eigenvalues of (default mixing * dielectric matrix)
  average eigenvalue GAMMA=   2.1496
  6.0638  3.3943  2.2788  2.1905  1.3056  1.3056  0.9551  0.9551  0.8978

 Free energy of the ion-electron system (eV)
  ---------------------------------------------------
  alpha Z        PSCENC =         0.62641250
  Ewald energy   TEWEN  =       848.76150752
  -Hartree energ DENC   =     -1381.53003036
  -exchange      EXHF   =         0.00000000
  -V(xc)+E(xc)   XCENC  =        72.03271666
  PAW double counting   =       284.06597146     -289.31792434
  entropy T*S    EENTRO =        -0.00000000
  eigenvalues    EBANDS =      -254.58032052
  atomic energy  EATOM  =       663.51739852
  Solvation  Ediel_sol  =         0.00000000
  ---------------------------------------------------
  free energy    TOTEN  =       -56.42426855 eV

  energy without entropy =      -56.42426855  energy(sigma->0) =      -56.42426855


--------------------------------------------------------------------------------------------------------




--------------------------------------- Iteration      1(  15)  ---------------------------------------


    POTLOK:  cpu time      0.3026: real time      0.3043
    SETDIJ:  cpu time      0.1925: real time      0.1933
     EDDAV:  cpu time      0.4057: real time      0.4080
       DOS:  cpu time      0.0001: real time      0.0001
    CHARGE:  cpu time      0.1987: real time      0.1995
    MIXING:  cpu time      0.0090: real time      0.0090
    --------------------------------------------
      LOOP:  cpu time      1.1087: real time      1.1142

 eigenvalue-minimisations  :    64
 total energy-change (2. order) :-0.4166157E-02  (-0.7906908E-04)
 number of electron      22.0000000 magnetization 
 augmentation part        0.4759833 magnetization 

 Broyden mixing:
  rms(total) = 0.12845E-02    rms(broyden)= 0.12843E-02
  rms(prec ) = 0.20154E-02
  weight for this iteration     100.00

 eigenvalues of (default mixing * dielectric matrix)
  average eigenvalue GAMMA=   2.1603
  6.5969  3.8798  2.4581  1.7025  1.6027  1.6027  0.9653  0.9653  0.9709  0.8588

 Free energy of the ion-electron system (eV)
  ---------------------------------------------------
  alpha Z        PSCENC =         0.62641250
  Ewald energy   TEWEN  =       848.76150752
  -Hartree energ DENC   =     -1381.46206058
  -exchange      EXHF   =         0.00000000
  -V(xc)+E(xc)   XCENC  =        72.02168485
  PAW double counting   =       284.05171918     -289.30138444
  entropy T*S    EENTRO =        -0.00000000
  eigenvalues    EBANDS =      -254.64371226
  atomic energy  EATOM  =       663.51739852
  Solvation  Ediel_sol  =         0.00000000
  ---------------------------------------------------
  free energy    TOTEN  =       -56.42843470 eV

  energy without entropy =      -56.42843470  energy(sigma->0) =      -56.42843470


--------------------------------------------------------------------------------------------------------




--------------------------------------- Iteration      1(  16)  ---------------------------------------


    POTLOK:  cpu time      0.3018: real time      0.3034
    SETDIJ:  cpu time      0.1919: real time      0.1927
     EDDAV:  cpu time      0.4443: real time      0.4467
       DOS:  cpu time      0.0002: real time      0.0002
    CHARGE:  cpu time      0.1999: real time      0.2007
    MIXING:  cpu time      0.0091: real time      0.0091
    --------------------------------------------
      LOOP:  cpu time      1.1470: real time      1.1527

 eigenvalue-minimisations  :    72
 total energy-change (2. order) :-0.8141930E-03  (-0.8150985E-05)
 number of electron      22.0000000 magnetization 
 augmentation part        0.4759413 magnetization 

 Broyden mixing:
  rms(total) = 0.10512E-02    rms(broyden)= 0.10511E-02
  rms(prec ) = 0.14891E-02
  weight for this iteration     100.00

 eigenvalues of (default mixing * dielectric matrix)
  average eigenvalue GAMMA=   2.2118
  7.5129  4.1926  2.3529  2.3529  1.5352  1.5352  0.9206  1.0229  1.0229  0.9410
  0.9410

 Free energy of the ion-electron system (eV)
  ---------------------------------------------------
  alpha Z        PSCENC =         0.62641250
  Ewald energy   TEWEN  =       848.76150752
  -Hartree energ DENC   =     -1381.53271546
  -exchange      EXHF   =         0.00000000
  -V(xc)+E(xc)   XCENC  =        72.02295288
  PAW double counting   =       284.08658801     -289.33642593
  entropy T*S    EENTRO =        -0.00000000
  eigenvalues    EBANDS =      -254.57496693
  atomic energy  EATOM  =       663.51739852
  Solvation  Ediel_sol  =         0.00000000
  ---------------------------------------------------
  free energy    TOTEN  =       -56.42924890 eV

  energy without entropy =      -56.42924890  energy(sigma->0) =      -56.42924890


--------------------------------------------------------------------------------------------------------




--------------------------------------- Iteration      1(  17)  ---------------------------------------


    POTLOK:  cpu time      0.3005: real time      0.3022
    SETDIJ:  cpu time      0.1928: real time      0.1936
     EDDAV:  cpu time      0.4069: real time      0.4092
       DOS:  cpu time      0.0002: real time      0.0001
    CHARGE:  cpu time      0.1996: real time      0.2004
    MIXING:  cpu time      0.0099: real time      0.0099
    --------------------------------------------
      LOOP:  cpu time      1.1098: real time      1.1154

 eigenvalue-minimisations  :    64
 total energy-change (2. order) :-0.6368500E-03  (-0.4839306E-05)
 number of electron      22.0000000 magnetization 
 augmentation part        0.4759106 magnetization 

 Broyden mixing:
  rms(total) = 0.37293E-03    rms(broyden)= 0.37279E-03
  rms(prec ) = 0.70108E-03
  weight for this iteration     100.00

 eigenvalues of (default mixing * dielectric matrix)
  average eigenvalue GAMMA=   2.2072
  7.8093  4.5450  2.6128  2.3030  1.4131  1.4131  1.4201  0.9560  0.9560  0.8992
  1.0795  1.0795

 Free energy of the ion-electron system (eV)
  ---------------------------------------------------
  alpha Z        PSCENC =         0.62641250
  Ewald energy   TEWEN  =       848.76150752
  -Hartree energ DENC   =     -1381.55026070
  -exchange      EXHF   =         0.00000000
  -V(xc)+E(xc)   XCENC  =        72.02141989
  PAW double counting   =       284.06645809     -289.31674132
  entropy T*S    EENTRO =        -0.00000000
  eigenvalues    EBANDS =      -254.55608025
  atomic energy  EATOM  =       663.51739852
  Solvation  Ediel_sol  =         0.00000000
  ---------------------------------------------------
  free energy    TOTEN  =       -56.42988575 eV

  energy without entropy =      -56.42988575  energy(sigma->0) =      -56.42988575


--------------------------------------------------------------------------------------------------------




--------------------------------------- Iteration      1(  18)  ---------------------------------------


    POTLOK:  cpu time      0.2999: real time      0.3015
    SETDIJ:  cpu time      0.1917: real time      0.1925
     EDDAV:  cpu time      0.4453: real time      0.4479
       DOS:  cpu time      0.0001: real time      0.0001
    CHARGE:  cpu time      0.1995: real time      0.2003
    MIXING:  cpu time      0.0096: real time      0.0097
    --------------------------------------------
      LOOP:  cpu time      1.1461: real time      1.1520

 eigenvalue-minimisations  :    72
 total energy-change (2. order) :-0.2944948E-03  (-0.1567613E-05)
 number of electron      22.0000000 magnetization 
 augmentation part        0.4758890 magnetization 

 Broyden mixing:
  rms(total) = 0.25092E-03    rms(broyden)= 0.25085E-03
  rms(prec ) = 0.45259E-03
  weight for this iteration     100.00

 eigenvalues of (default mixing * dielectric matrix)
  average eigenvalue GAMMA=   2.2907
  8.4758  5.0525  2.9733  2.4719  2.0786  1.4152  1.4152  1.0673  1.0673  0.9461
  0.9461  0.8921  0.9773

 Free energy of the ion-electron system (eV)
  ---------------------------------------------------
  alpha Z        PSCENC =         0.62641250
  Ewald energy   TEWEN  =       848.76150752
  -Hartree energ DENC   =     -1381.56988925
  -exchange      EXHF   =         0.00000000
  -V(xc)+E(xc)   XCENC  =        72.02196459
  PAW double counting   =       284.07188614     -289.32221316
  entropy T*S    EENTRO =        -0.00000000
  eigenvalues    EBANDS =      -254.53724710
  atomic energy  EATOM  =       663.51739852
  Solvation  Ediel_sol  =         0.00000000
  ---------------------------------------------------
  free energy    TOTEN  =       -56.43018024 eV

  energy without entropy =      -56.43018024  energy(sigma->0) =      -56.43018024


--------------------------------------------------------------------------------------------------------




--------------------------------------- Iteration      1(  19)  ---------------------------------------


    POTLOK:  cpu time      0.2980: real time      0.2996
    SETDIJ:  cpu time      0.1922: real time      0.1930
     EDDAV:  cpu time      0.3643: real time      0.3663
       DOS:  cpu time      0.0001: real time      0.0001
    CHARGE:  cpu time      0.1924: real time      0.1932
    MIXING:  cpu time      0.0163: real time      0.0164
    --------------------------------------------
      LOOP:  cpu time      1.0633: real time      1.0686

 eigenvalue-minimisations  :    56
 total energy-change (2. order) :-0.1862074E-03  (-0.9155523E-06)
 number of electron      22.0000000 magnetization 
 augmentation part        0.4758930 magnetization 

 Broyden mixing:
  rms(total) = 0.14879E-03    rms(broyden)= 0.14872E-03
  rms(prec ) = 0.25019E-03
  weight for this iteration     100.00

 eigenvalues of (default mixing * dielectric matrix)
  average eigenvalue GAMMA=   2.2817
  8.5011  5.3314  3.2680  2.4376  2.0881  1.5563  1.5563  1.2158  1.2158  0.9656
  0.9656  0.9016  0.9701  0.9701

 Free energy of the ion-electron system (eV)
  ---------------------------------------------------
  alpha Z        PSCENC =         0.62641250
  Ewald energy   TEWEN  =       848.76150752
  -Hartree energ DENC   =     -1381.56395158
  -exchange      EXHF   =         0.00000000
  -V(xc)+E(xc)   XCENC  =        72.02134156
  PAW double counting   =       284.05505191     -289.30537353
  entropy T*S    EENTRO =        -0.00000000
  eigenvalues    EBANDS =      -254.54275335
  atomic energy  EATOM  =       663.51739852
  Solvation  Ediel_sol  =         0.00000000
  ---------------------------------------------------
  free energy    TOTEN  =       -56.43036645 eV

  energy without entropy =      -56.43036645  energy(sigma->0) =      -56.43036645


--------------------------------------------------------------------------------------------------------




--------------------------------------- Iteration      1(  20)  ---------------------------------------


    POTLOK:  cpu time      0.2987: real time      0.3003
    SETDIJ:  cpu time      0.1918: real time      0.1926
     EDDAV:  cpu time      0.3701: real time      0.3722
       DOS:  cpu time      0.0001: real time      0.0001
    CHARGE:  cpu time      0.1929: real time      0.1937
    MIXING:  cpu time      0.0179: real time      0.0180
    --------------------------------------------
      LOOP:  cpu time      1.0716: real time      1.0769

 eigenvalue-minimisations  :    56
 total energy-change (2. order) :-0.6131724E-04  (-0.1536985E-06)
 number of electron      22.0000000 magnetization 
 augmentation part        0.4758938 magnetization 

 Broyden mixing:
  rms(total) = 0.72715E-04    rms(broyden)= 0.72596E-04
  rms(prec ) = 0.13531E-03
  weight for this iteration     100.00

 eigenvalues of (default mixing * dielectric matrix)
  average eigenvalue GAMMA=   2.3586
  8.8717  5.7283  3.9006  2.7470  2.3813  1.9568  1.3987  1.3987  1.1052  1.1052
  0.9586  0.9586  0.8878  0.9906  0.9906

 Free energy of the ion-electron system (eV)
  ---------------------------------------------------
  alpha Z        PSCENC =         0.62641250
  Ewald energy   TEWEN  =       848.76150752
  -Hartree energ DENC   =     -1381.57194816
  -exchange      EXHF   =         0.00000000
  -V(xc)+E(xc)   XCENC  =        72.02150389
  PAW double counting   =       284.05787848     -289.30817500
  entropy T*S    EENTRO =        -0.00000000
  eigenvalues    EBANDS =      -254.53500552
  atomic energy  EATOM  =       663.51739852
  Solvation  Ediel_sol  =         0.00000000
  ---------------------------------------------------
  free energy    TOTEN  =       -56.43042777 eV

  energy without entropy =      -56.43042777  energy(sigma->0) =      -56.43042777


--------------------------------------------------------------------------------------------------------




--------------------------------------- Iteration      1(  21)  ---------------------------------------


    POTLOK:  cpu time      0.3058: real time      0.3074
    SETDIJ:  cpu time      0.1917: real time      0.1925
     EDDAV:  cpu time      0.3645: real time      0.3666
       DOS:  cpu time      0.0001: real time      0.0001
    CHARGE:  cpu time      0.1926: real time      0.1934
    MIXING:  cpu time      0.0164: real time      0.0165
    --------------------------------------------
      LOOP:  cpu time      1.0713: real time      1.0766

 eigenvalue-minimisations  :    56
 total energy-change (2. order) :-0.3144476E-04  (-0.5700926E-07)
 number of electron      22.0000000 magnetization 
 augmentation part        0.4758974 magnetization 

 Broyden mixing:
  rms(total) = 0.61581E-04    rms(broyden)= 0.61441E-04
  rms(prec ) = 0.87126E-04
  weight for this iteration     100.00

 eigenvalues of (default mixing * dielectric matrix)
  average eigenvalue GAMMA=   2.3297
  8.8436  5.8734  4.0759  2.7619  2.4393  1.9095  1.5552  1.5552  1.2463  1.2463
  0.9616  0.9616  1.0011  1.0011  0.8920  0.9516

 Free energy of the ion-electron system (eV)
  ---------------------------------------------------
  alpha Z        PSCENC =         0.62641250
  Ewald energy   TEWEN  =       848.76150752
  -Hartree energ DENC   =     -1381.56997138
  -exchange      EXHF   =         0.00000000
  -V(xc)+E(xc)   XCENC  =        72.02124774
  PAW double counting   =       284.05782491     -289.30809514
  entropy T*S    EENTRO =        -0.00000000
  eigenvalues    EBANDS =      -254.53678389
  atomic energy  EATOM  =       663.51739852
  Solvation  Ediel_sol  =         0.00000000
  ---------------------------------------------------
  free energy    TOTEN  =       -56.43045921 eV

  energy without entropy =      -56.43045921  energy(sigma->0) =      -56.43045921


--------------------------------------------------------------------------------------------------------




--------------------------------------- Iteration      1(  22)  ---------------------------------------


    POTLOK:  cpu time      0.3082: real time      0.3099
    SETDIJ:  cpu time      0.1914: real time      0.1922
     EDDAV:  cpu time      0.3700: real time      0.3721
       DOS:  cpu time      0.0001: real time      0.0001
    CHARGE:  cpu time      0.2013: real time      0.2021
    MIXING:  cpu time      0.0112: real time      0.0113
    --------------------------------------------
      LOOP:  cpu time      1.0823: real time      1.0877

 eigenvalue-minimisations  :    56
 total energy-change (2. order) :-0.9136122E-05  (-0.1585213E-07)
 number of electron      22.0000000 magnetization 
 augmentation part        0.4758973 magnetization 

 Broyden mixing:
  rms(total) = 0.35335E-04    rms(broyden)= 0.35098E-04
  rms(prec ) = 0.49504E-04
  weight for this iteration     100.00

 eigenvalues of (default mixing * dielectric matrix)
  average eigenvalue GAMMA=   2.3900
  9.0373  6.2950  4.6051  3.0972  2.5539  2.2567  1.9928  1.4285  1.2112  1.2112
  1.1089  1.1089  0.9546  0.9546  0.9787  0.8905  0.9442

 Free energy of the ion-electron system (eV)
  ---------------------------------------------------
  alpha Z        PSCENC =         0.62641250
  Ewald energy   TEWEN  =       848.76150752
  -Hartree energ DENC   =     -1381.57280089
  -exchange      EXHF   =         0.00000000
  -V(xc)+E(xc)   XCENC  =        72.02132816
  PAW double counting   =       284.05811698     -289.30837879
  entropy T*S    EENTRO =        -0.00000000
  eigenvalues    EBANDS =      -254.53405234
  atomic energy  EATOM  =       663.51739852
  Solvation  Ediel_sol  =         0.00000000
  ---------------------------------------------------
  free energy    TOTEN  =       -56.43046835 eV

  energy without entropy =      -56.43046835  energy(sigma->0) =      -56.43046835


--------------------------------------------------------------------------------------------------------




--------------------------------------- Iteration      1(  23)  ---------------------------------------


    POTLOK:  cpu time      0.3089: real time      0.3106
    SETDIJ:  cpu time      0.1920: real time      0.1928
     EDDAV:  cpu time      0.3661: real time      0.3681
       DOS:  cpu time      0.0001: real time      0.0001
    CHARGE:  cpu time      0.2015: real time      0.2023
    MIXING:  cpu time      0.0116: real time      0.0116
    --------------------------------------------
      LOOP:  cpu time      1.0802: real time      1.0856

 eigenvalue-minimisations  :    56
 total energy-change (2. order) :-0.4439295E-05  (-0.9239303E-08)
 number of electron      22.0000000 magnetization 
 augmentation part        0.4758966 magnetization 

 Broyden mixing:
  rms(total) = 0.27338E-04    rms(broyden)= 0.27031E-04
  rms(prec ) = 0.34916E-04
  weight for this iteration     100.00

 eigenvalues of (default mixing * dielectric matrix)
  average eigenvalue GAMMA=   2.3861
  9.0863  6.4996  4.8662  3.2735  2.4553  2.4553  1.9314  1.6378  1.2752  1.2752
  1.3534  0.9582  0.9582  1.0167  1.0167  1.0705  0.8906  0.9302

 Free energy of the ion-electron system (eV)
  ---------------------------------------------------
  alpha Z        PSCENC =         0.62641250
  Ewald energy   TEWEN  =       848.76150752
  -Hartree energ DENC   =     -1381.57346652
  -exchange      EXHF   =         0.00000000
  -V(xc)+E(xc)   XCENC  =        72.02131655
  PAW double counting   =       284.05910656     -289.30938825
  entropy T*S    EENTRO =        -0.00000000
  eigenvalues    EBANDS =      -254.53335966
  atomic energy  EATOM  =       663.51739852
  Solvation  Ediel_sol  =         0.00000000
  ---------------------------------------------------
  free energy    TOTEN  =       -56.43047279 eV

  energy without entropy =      -56.43047279  energy(sigma->0) =      -56.43047279


--------------------------------------------------------------------------------------------------------




--------------------------------------- Iteration      1(  24)  ---------------------------------------


    POTLOK:  cpu time      0.3116: real time      0.3133
    SETDIJ:  cpu time      0.1920: real time      0.1928
     EDDAV:  cpu time      0.4061: real time      0.4084
       DOS:  cpu time      0.0001: real time      0.0001
    CHARGE:  cpu time      0.2001: real time      0.2009
    MIXING:  cpu time      0.0114: real time      0.0114
    --------------------------------------------
      LOOP:  cpu time      1.1212: real time      1.1268

 eigenvalue-minimisations  :    64
 total energy-change (2. order) :-0.1466231E-05  (-0.3497922E-08)
 number of electron      22.0000000 magnetization 
 augmentation part        0.4758964 magnetization 

 Broyden mixing:
  rms(total) = 0.99766E-05    rms(broyden)= 0.91099E-05
  rms(prec ) = 0.14436E-04
  weight for this iteration     100.00

 eigenvalues of (default mixing * dielectric matrix)
  average eigenvalue GAMMA=   2.4074
  9.1144  6.7942  5.0667  3.6295  2.6367  2.3124  2.1286  2.1286  1.2907  1.2907
  1.3968  0.9572  0.9572  1.0776  1.0776  1.0345  1.0345  0.9213  0.8917

 Free energy of the ion-electron system (eV)
  ---------------------------------------------------
  alpha Z        PSCENC =         0.62641250
  Ewald energy   TEWEN  =       848.76150752
  -Hartree energ DENC   =     -1381.57367949
  -exchange      EXHF   =         0.00000000
  -V(xc)+E(xc)   XCENC  =        72.02130998
  PAW double counting   =       284.05871489     -289.30900232
  entropy T*S    EENTRO =        -0.00000000
  eigenvalues    EBANDS =      -254.53313585
  atomic energy  EATOM  =       663.51739852
  Solvation  Ediel_sol  =         0.00000000
  ---------------------------------------------------
  free energy    TOTEN  =       -56.43047425 eV

  energy without entropy =      -56.43047425  energy(sigma->0) =      -56.43047425


--------------------------------------------------------------------------------------------------------




--------------------------------------- Iteration      1(  25)  ---------------------------------------


    POTLOK:  cpu time      0.3128: real time      0.3144
    SETDIJ:  cpu time      0.1915: real time      0.1923
     EDDAV:  cpu time      0.3650: real time      0.3672
       DOS:  cpu time      0.0001: real time      0.0001
    --------------------------------------------
      LOOP:  cpu time      0.8694: real time      0.8740

 eigenvalue-minimisations  :    56
 total energy-change (2. order) :-0.7907556E-06  (-0.2194696E-08)
 number of electron      22.0000000 magnetization 
 augmentation part        0.4758964 magnetization 

 Free energy of the ion-electron system (eV)
  ---------------------------------------------------
  alpha Z        PSCENC =         0.62641250
  Ewald energy   TEWEN  =       848.76150752
  -Hartree energ DENC   =     -1381.57375486
  -exchange      EXHF   =         0.00000000
  -V(xc)+E(xc)   XCENC  =        72.02131069
  PAW double counting   =       284.05857297     -289.30885816
  entropy T*S    EENTRO =        -0.00000000
  eigenvalues    EBANDS =      -254.53306422
  atomic energy  EATOM  =       663.51739852
  Solvation  Ediel_sol  =         0.00000000
  ---------------------------------------------------
  free energy    TOTEN  =       -56.43047504 eV

  energy without entropy =      -56.43047504  energy(sigma->0) =      -56.43047504


--------------------------------------------------------------------------------------------------------




 average (electrostatic) potential at core
  the test charge radii are     0.6991  0.5201
  (the norm of the test charge is              1.0000)
       1 -58.7097       2 -58.9107       3 -58.9858       4 -58.7444       5 -41.4077
       6 -42.0380       7 -41.8760       8 -42.1935       9 -41.9813      10 -41.9435
 
 
 
 E-fermi :  -5.4704     XC(G=0):  -0.4497     alpha+bet : -0.1681

 Fermi energy:        -5.4704137620

 k-point     1 :       0.0000    0.0000    0.0000
  band No.  band energies     occupation 
      1     -19.4935      2.00000
      2     -17.6046      2.00000
      3     -15.0921      2.00000
      4     -12.8710      2.00000
      5     -11.5730      2.00000
      6     -10.4225      2.00000
      7     -10.0438      2.00000
      8      -8.9763      2.00000
      9      -8.1798      2.00000
     10      -7.3091      2.00000
     11      -5.7009      2.00000
     12      -2.1297      0.00000
     13      -0.4372      0.00000
     14       0.0310      0.00000
     15       0.0771      0.00000
     16       0.2033      0.00000
     17       0.3676      0.00000
     18       0.4415      0.00000
     19       0.5308      0.00000
     20       0.6804      0.00000
     21       0.8745      0.00000
     22       0.9365      0.00000
     23       0.9823      0.00000
     24       1.1249      0.00000


--------------------------------------------------------------------------------------------------------


 soft charge-density along one line, spin component           1
         0         1         2         3         4         5         6         7         8         9
 total charge-density along one line
 
 pseudopotential strength for first ion, spin component:           1
 10.257   0.020   0.001  -0.002   0.000   0.001  -0.002   0.001
  0.020  -0.001  -0.000   0.000  -0.000   0.000  -0.000   0.000
  0.001  -0.000  -4.379   0.004  -0.008  -0.016   0.001  -0.002
 -0.002   0.000   0.004  -4.372   0.001   0.001  -0.015   0.000
  0.000  -0.000  -0.008   0.001  -4.362  -0.002   0.000  -0.012
  0.001   0.000  -0.016   0.001  -0.002  -0.773   0.000  -0.000
 -0.002  -0.000   0.001  -0.015   0.000   0.000  -0.773   0.000
  0.001   0.000  -0.002   0.000  -0.012  -0.000   0.000  -0.772
 total augmentation occupancy for first ion, spin component:           1
  1.479  -1.033  -0.032   0.052  -0.006  -0.022   0.022  -0.009
 -1.033   0.812   0.098  -0.083   0.047   0.043  -0.031   0.017
 -0.032   0.098   1.177  -0.050   0.120   0.199  -0.018   0.047
  0.052  -0.083  -0.050   1.131  -0.011  -0.018   0.182   0.000
 -0.006   0.047   0.120  -0.011   0.951   0.046   0.000   0.104
 -0.022   0.043   0.199  -0.018   0.046   0.037  -0.005   0.011
  0.022  -0.031  -0.018   0.182   0.000  -0.005   0.031  -0.000
 -0.009   0.017   0.047   0.000   0.104   0.011  -0.000   0.013


------------------------ aborting loop because EDIFF is reached ----------------------------------------


    CHARGE:  cpu time      0.1999: real time      0.2007
    FORLOC:  cpu time      0.0294: real time      0.0294
    FORNL :  cpu time      1.0728: real time      1.0779
    STRESS:  cpu time      3.3932: real time      3.4090
    FORHAR:  cpu time      0.1098: real time      0.1103
    MIXING:  cpu time      0.0123: real time      0.0123
    OFIELD:  cpu time      0.0001: real time      0.0001

  FORCE on cell =-STRESS in cart. coord.  units (eV):
  Direction    XX          YY          ZZ          XY          YZ          ZX
  --------------------------------------------------------------------------------------
  Alpha Z     0.62641     0.62641     0.62641
  Ewald    -150.91879   351.01547   648.66453    32.27284   -19.26118   -95.98390
  Hartree   217.46820   455.10821   708.99735    15.10032    -9.55153   -72.98198
  E(xc)     -76.90979   -75.08710   -74.91448     0.10958    -0.01110    -0.05444
  Local    -286.13289  -992.66909 -1549.18280   -44.89935    26.63236   170.34900
  n-local   -27.56790   -30.07947   -29.41013    -0.06483     0.21061    -0.17618
  augment    -0.47831    -0.63065    -0.57433    -0.01453     0.01593    -0.01299
  Kinetic   323.16352   287.03869   288.21247    -2.15595    -1.55359    -0.57783
  Fock        0.00000     0.00000     0.00000     0.00000     0.00000     0.00000
  -------------------------------------------------------------------------------------
  Total      -0.74954    -4.67753    -7.58097     0.34808    -3.51850     0.56169
  in kB      -0.35582    -2.22051    -3.59883     0.16524    -1.67030     0.26664
  external pressure =       -2.06 kB  Pullay stress =        0.00 kB


 VOLUME and BASIS-vectors are now :
 -----------------------------------------------------------------------------
  energy-cutoff  :      520.00
  volume of cell :     3375.00
      direct lattice vectors                 reciprocal lattice vectors
    15.000000000  0.000000000  0.000000000     0.066666667  0.000000000  0.000000000
     0.000000000 15.000000000  0.000000000     0.000000000  0.066666667  0.000000000
     0.000000000  0.000000000 15.000000000     0.000000000  0.000000000  0.066666667

  length of vectors
    15.000000000 15.000000000 15.000000000     0.066666667  0.066666667  0.066666667


 FORCES acting on ions
    electron-ion (+dipol)            ewald-force                    non-local-force                 convergence-correction
 -----------------------------------------------------------------------------------------------
   -.426E+02 -.939E+02 0.104E+03   0.429E+02 0.946E+02 -.105E+03   -.832E+00 -.106E+01 -.812E+00   -.914E-05 0.496E-05 0.510E-04
   0.186E+02 0.822E+02 0.478E+02   -.191E+02 -.823E+02 -.475E+02   0.876E-01 -.838E-01 0.891E+00   -.348E-04 -.507E-04 0.184E-03
   -.501E+01 0.824E+02 -.480E+02   0.490E+01 -.804E+02 0.494E+02   -.384E+00 0.135E+01 -.460E+00   -.219E-05 0.321E-04 0.511E-04
   0.322E+02 -.681E+02 -.107E+03   -.320E+02 0.670E+02 0.106E+03   0.899E+00 -.168E+01 -.135E+01   0.396E-04 -.802E-04 -.105E-03
   0.304E+01 -.432E+01 0.628E+02   -.314E+01 0.431E+01 -.654E+02   0.633E+00 0.400E+00 0.458E+01   -.551E-05 -.225E-05 -.210E-04
   -.269E+02 -.579E+02 -.504E+01   0.287E+02 0.623E+02 0.701E+01   -.210E+01 -.477E+01 -.197E+01   0.762E-05 0.243E-04 0.194E-04
   0.177E+02 0.567E+02 0.365E+02   -.190E+02 -.605E+02 -.389E+02   0.143E+01 0.440E+01 0.272E+01   -.596E-05 -.140E-04 0.532E-05
   -.139E+02 0.639E+02 -.269E+02   0.152E+02 -.696E+02 0.293E+02   -.132E+01 0.544E+01 -.196E+01   -.897E-05 0.422E-04 -.156E-04
   0.196E+02 -.599E+02 0.263E+01   -.210E+02 0.648E+02 -.465E+01   0.141E+01 -.509E+01 0.210E+01   0.934E-05 -.221E-04 0.222E-05
   -.204E+01 -.532E+00 -.647E+02   0.234E+01 -.120E+00 0.695E+02   -.520E+00 0.581E+00 -.545E+01   0.139E-05 0.115E-05 -.304E-04
 -----------------------------------------------------------------------------------------------
   0.689E+00 0.489E+00 0.173E+01   0.933E-14 0.400E-14 -.142E-13   -.697E+00 -.502E+00 -.172E+01   -.856E-05 -.645E-04 0.141E-03
 
 
 POSITION                                       TOTAL-FORCE (eV/Angst)
 -----------------------------------------------------------------------------------
      7.90200      8.01800      6.00800        -0.481227     -0.392363     -2.053638
      7.51100      6.94000      6.71600        -0.356985     -0.186008      1.122287
      7.43500      6.80800      8.21600        -0.491494      3.397127      0.905087
      7.12400      7.88000      9.12400         1.097429     -2.844156     -2.160588
      7.75800      7.93000      4.85000         0.540325      0.388264      1.979531
      8.31000      8.96200      6.40600        -0.257197     -0.418337      0.004094
      7.21200      6.02100      6.15700         0.129413      0.580385      0.307006
      7.67100      5.81700      8.57600         0.002588     -0.299778      0.435451
      6.85500      8.86400      8.72500         0.031028     -0.155730      0.079499
      7.22100      7.76000     10.22100        -0.213880     -0.069403     -0.618729
 -----------------------------------------------------------------------------------
    total drift:                               -0.008640     -0.012652      0.008058


--------------------------------------------------------------------------------------------------------



  FREE ENERGIE OF THE ION-ELECTRON SYSTEM (eV)
  ---------------------------------------------------
  free  energy   TOTEN  =       -56.43047504 eV

  energy  without entropy=      -56.43047504  energy(sigma->0) =      -56.43047504
 


--------------------------------------------------------------------------------------------------------


    POTLOK:  cpu time      0.5050: real time      0.5075


--------------------------------------------------------------------------------------------------------


 stress matrix after NEB project (eV)
     -0.74954      0.34808      0.56169
      0.34808     -4.67753     -3.51850
      0.56169     -3.51850     -7.58097
  FORCES: max atom, RMS     3.736538    1.959136
  FORCE total and by dimension    6.195331    3.397127
  Stress total and by dimension   10.273517    7.580965
     LOOP+:  cpu time     30.3111: real time     30.4638
    4ORBIT:  cpu time      0.0000: real time      0.0000

 total amount of memory used by VASP MPI-rank0   224782. kBytes
=======================================================================

   base      :      30000. kBytes
   nonlr-proj:       1258. kBytes
   fftplans  :     123538. kBytes
   grid      :      67787. kBytes
   one-center:         15. kBytes
   wavefun   :       2184. kBytes
 
  
  
 General timing and accounting informations for this job:
 ========================================================
  
                  Total CPU time used (sec):       36.957
                            User time (sec):       33.694
                          System time (sec):        3.263
                         Elapsed time (sec):       38.337
  
                   Maximum memory used (kb):      559464.
                   Average memory used (kb):          N/A
  
                          Minor page faults:       162881
                          Major page faults:         5438
                 Voluntary context switches:         3127
