 vasp.6.4.2 20Jul23 (build Apr 10 2024 13:39:58) complex                        
  
 executed on             LinuxIFC date 2024.05.18  05:06:10
 running   16 mpi-ranks, on    1 nodes
 distrk:  each k-point on   16 cores,    1 groups
 distr:  one band on NCORE=   2 cores,    8 groups


--------------------------------------------------------------------------------------------------------


 INCAR:
   ISTART = 0
   ISPIN = 1
   LREAL = Auto
   ENCUT = 520
   NPAR = 8
   LPLANE = .TRUE.
   LSCALU = .FALSE.
   NSIM = 4
   LWAVE = .FALSE.
   LCHARG = .FALSE.
   ADDGRID = .TRUE.
   LASPH = .TRUE.
   PREC = Accurate
   ISMEAR = 0
   SIGMA = 0.05
   EDIFF = 1E-06
   NSW = 0
   TEBEG = 300
   TEEND = 700     	
   ISYM = 0
   NWRITE = 2

 POTCAR:   PAW_PBE C 08Apr2002                    
 POTCAR:   PAW_PBE H 15Jun2001                    
 POTCAR:   PAW_PBE C 08Apr2002                    
   VRHFIN =C: s2p2                                                                                  
   LEXCH  = PE                                                                                      
   EATOM  =   147.1560 eV,   10.8157 Ry                                                             
                                                                                                    
   TITEL  = PAW_PBE C 08Apr2002                                                                     
   LULTRA =        F    use ultrasoft PP ?                                                          
   IUNSCR =        0    unscreen: 0-lin 1-nonlin 2-no                                               
   RPACOR =     .000    partial core radius                                                         
   POMASS =   12.011; ZVAL   =    4.000    mass and valenz                                          
   RCORE  =    1.500    outmost cutoff radius                                                       
   RWIGS  =    1.630; RWIGS  =     .863    wigner-seitz radius (au A)                               
   ENMAX  =  400.000; ENMIN  =  300.000 eV                                                          
   ICORE  =        2    local potential                                                             
   LCOR   =        T    correct aug charges                                                         
   LPAW   =        T    paw PP                                                                      
   EAUG   =  644.873                                                                                
   DEXC   =     .000                                                                                
   RMAX   =    2.266    core radius for proj-oper                                                   
   RAUG   =    1.300    factor for augmentation sphere                                              
   RDEP   =    1.501    radius for radial grids                                                     
   RDEPT  =    1.300    core radius for aug-charge                                                  
   QCUT   =   -5.516; QGAM   =   11.032    optimization parameters                                  
                                                                                                    
   Description                                                                                      
     l     E      TYP  RCUT    TYP  RCUT                                                            
     0   .000     23  1.200                                                                         
     0   .000     23  1.200                                                                         
     1   .000     23  1.500                                                                         
     1  2.500     23  1.500                                                                         
     2   .000      7  1.500                                                                         
  local pseudopotential read in
  atomic valenz-charges read in
  non local Contribution for L=           0  read in
    real space projection operators read in
  non local Contribution for L=           0  read in
    real space projection operators read in
  non local Contribution for L=           1  read in
    real space projection operators read in
  non local Contribution for L=           1  read in
    real space projection operators read in
    PAW grid and wavefunctions read in
 
   number of l-projection  operators is LMAX  =           4
   number of lm-projection operators is LMMAX =           8
 
 POTCAR:   PAW_PBE H 15Jun2001                    
   VRHFIN =H: ultrasoft test                                                                        
   LEXCH  = PE                                                                                      
   EATOM  =    12.4884 eV,     .9179 Ry                                                             
                                                                                                    
   TITEL  = PAW_PBE H 15Jun2001                                                                     
   LULTRA =        F    use ultrasoft PP ?                                                          
   IUNSCR =        0    unscreen: 0-lin 1-nonlin 2-no                                               
   RPACOR =     .000    partial core radius                                                         
   POMASS =    1.000; ZVAL   =    1.000    mass and valenz                                          
   RCORE  =    1.100    outmost cutoff radius                                                       
   RWIGS  =     .700; RWIGS  =     .370    wigner-seitz radius (au A)                               
   ENMAX  =  250.000; ENMIN  =  200.000 eV                                                          
   RCLOC  =     .701    cutoff for local pot                                                        
   LCOR   =        T    correct aug charges                                                         
   LPAW   =        T    paw PP                                                                      
   EAUG   =  400.000                                                                                
   RMAX   =    2.174    core radius for proj-oper                                                   
   RAUG   =    1.200    factor for augmentation sphere                                              
   RDEP   =    1.112    radius for radial grids                                                     
   QCUT   =   -5.749; QGAM   =   11.498    optimization parameters                                  
                                                                                                    
   Description                                                                                      
     l     E      TYP  RCUT    TYP  RCUT                                                            
     0   .000     23  1.100                                                                         
     0   .500     23  1.100                                                                         
     1  -.300     23  1.100                                                                         
  local pseudopotential read in
  atomic valenz-charges read in
  non local Contribution for L=           0  read in
    real space projection operators read in
  non local Contribution for L=           0  read in
    real space projection operators read in
  non local Contribution for L=           1  read in
    real space projection operators read in
    PAW grid and wavefunctions read in
 
   number of l-projection  operators is LMAX  =           3
   number of lm-projection operators is LMMAX =           5
 
 Optimization of the real space projectors (new method)

 maximal supplied QI-value         = 25.13
 optimisation between [QCUT,QGAM] = [ 11.56, 23.12] = [ 37.43,149.72] Ry 
 Optimized for a Real-space Cutoff    1.04 Angstroem

   l    n(q)    QCUT    max X(q) W(low)/X(q) W(high)/X(q)  e(spline) 
   0      7    11.561     5.582    0.47E-04    0.94E-04    0.17E-07
   0      7    11.561    69.432    0.20E-03    0.59E-03    0.21E-06
   1      7    11.561     2.780    0.24E-04    0.70E-04    0.44E-07
   1      7    11.561     4.549    0.18E-03    0.25E-03    0.12E-06
 Optimization of the real space projectors (new method)

 maximal supplied QI-value         = 34.20
 optimisation between [QCUT,QGAM] = [ 11.63, 23.26] = [ 37.87,151.49] Ry 
 Optimized for a Real-space Cutoff    1.21 Angstroem

   l    n(q)    QCUT    max X(q) W(low)/X(q) W(high)/X(q)  e(spline) 
   0      8    11.629     4.436    0.19E-04    0.32E-04    0.47E-07
   0      8    11.629    16.131    0.16E-03    0.33E-03    0.21E-06
   1      8    11.629     4.654    0.18E-03    0.16E-03    0.26E-06
 PAW_PBE C 08Apr2002                    :
 energy of atom  1       EATOM= -147.1560
 kinetic energy error for atom=    0.0071 (will be added to EATOM!!)
 PAW_PBE H 15Jun2001                    :
 energy of atom  2       EATOM=  -12.4884
 kinetic energy error for atom=    0.0014 (will be added to EATOM!!)
 
 
 POSCAR:  C  H
  positions in cartesian coordinates
  No initial velocities read in
 exchange correlation table for  LEXCH =        8
   RHO(1)=    0.500       N(1)  =     2000
   RHO(2)=  100.500       N(2)  =     4000

 VTST: version 4.1, (05/19/21)

 CHAIN: initializing optimizer
 
 OPT: Using VASP Dynamics algorithm
 CHAIN: Read ICHAIN            0
 
 POSCAR:  C  H
  positions in cartesian coordinates
  No initial velocities read in
 


--------------------------------------------------------------------------------------------------------


 ion  position               nearest neighbor table
   1  0.542  0.483  0.410-   6 1.02   5 1.08   2 1.35
   2  0.477  0.533  0.446-   7 1.03   1 1.35   3 1.37
   3  0.469  0.536  0.537-   8 1.02   2 1.37   4 1.44
   4  0.496  0.470  0.601-   9 1.00  10 1.08   3 1.44
   5  0.547  0.481  0.338-   1 1.08
   6  0.591  0.453  0.447-   1 1.02
   7  0.428  0.560  0.406-   2 1.03
   8  0.437  0.591  0.562-   3 1.02
   9  0.528  0.414  0.584-   4 1.00
  10  0.485  0.479  0.671-   4 1.08
 

IMPORTANT INFORMATION: All symmetrisations will be switched off!
NOSYMM: (Re-)initialisation of all symmetry stuff for point group C_1.


----------------------------------------------------------------------------------------

                                     Primitive cell                                     

  volume of cell :    3375.0000

  direct lattice vectors                    reciprocal lattice vectors
    15.000000000  0.000000000  0.000000000     0.066666667  0.000000000  0.000000000
     0.000000000 15.000000000  0.000000000     0.000000000  0.066666667  0.000000000
     0.000000000  0.000000000 15.000000000     0.000000000  0.000000000  0.066666667

  length of vectors
    15.000000000 15.000000000 15.000000000     0.066666667  0.066666667  0.066666667

  position of ions in fractional coordinates (direct lattice)
     0.541933314  0.482599990  0.409533342
     0.476933320  0.532599990  0.445799987
     0.468733342  0.536266645  0.536733309
     0.495533339  0.469799995  0.600533358
     0.546600024  0.481266658  0.337600009
     0.591200002  0.453333346  0.446666654
     0.428466670  0.560266685  0.406066672
     0.437399991  0.591200002  0.562266668
     0.528199991  0.413799985  0.583733304
     0.485000006  0.478800011  0.671199989

  ion indices of the primitive-cell ions
   primitive index   ion index
                 1           1
                 2           2
                 3           3
                 4           4
                 5           5
                 6           6
                 7           7
                 8           8
                 9           9
                10          10

----------------------------------------------------------------------------------------

 
 
 KPOINTS: K-Spacing Value to Generate K-Mesh: 1.00

Automatic generation of k-mesh.
 Grid dimensions read from file:
 generate k-points for:    1    1    1

 Generating k-lattice:

  Cartesian coordinates                     Fractional coordinates (reciprocal lattice)
     0.066666667  0.000000000  0.000000000     1.000000000  0.000000000  0.000000000
     0.000000000  0.066666667  0.000000000     0.000000000  1.000000000  0.000000000
     0.000000000  0.000000000  0.066666667     0.000000000  0.000000000  1.000000000

  Length of vectors
     0.066666667  0.066666667  0.066666667

  Shift w.r.t. Gamma in fractional coordinates (k-lattice)
     0.000000000  0.000000000  0.000000000

 
 Subroutine IBZKPT returns following result:
 ===========================================
 
 Found      1 irreducible k-points:
 
 Following reciprocal coordinates:
            Coordinates               Weight
  0.000000  0.000000  0.000000      1.000000
 
 Following cartesian coordinates:
            Coordinates               Weight
  0.000000  0.000000  0.000000      1.000000
 


--------------------------------------------------------------------------------------------------------




 Dimension of arrays:
   k-points           NKPTS =      1   k-points in BZ     NKDIM =      1   number of bands    NBANDS=     24
   number of dos      NEDOS =    301   number of ions     NIONS =     10
   non local maximal  LDIM  =      4   non local SUM 2l+1 LMDIM =      8
   total plane-waves  NPLWV = ******
   max r-space proj   IRMAX =   3145   max aug-charges    IRDMAX=  39494
   dimension x,y,z NGX =   112 NGY =  112 NGZ =  112
   dimension x,y,z NGXF=   224 NGYF=  224 NGZF=  224
   support grid    NGXF=   448 NGYF=  448 NGZF=  448
   ions per type =               4   6
   NGX,Y,Z   is equivalent  to a cutoff of  12.41, 12.41, 12.41 a.u.
   NGXF,Y,Z  is equivalent  to a cutoff of  24.83, 24.83, 24.83 a.u.

 SYSTEM =  unknown system                          
 POSCAR =   C  H                                   

 Startparameter for this run:
   NWRITE =      2    write-flag & timer
   PREC   = accura    normal or accurate (medium, high low for compatibility)
   ISTART =      0    job   : 0-new  1-cont  2-samecut
   ICHARG =      2    charge: 1-file 2-atom 10-const
   ISPIN  =      1    spin polarized calculation?
   LNONCOLLINEAR =      F non collinear calculations
   LSORBIT =      F    spin-orbit coupling
   INIWAV =      1    electr: 0-lowe 1-rand  2-diag
   LASPH  =      T    aspherical Exc in radial PAW
 Electronic Relaxation 1
   ENCUT  =  520.0 eV  38.22 Ry    6.18 a.u.  27.89 27.89 27.89*2*pi/ulx,y,z
   ENINI  =  520.0     initial cutoff
   ENAUG  =  644.9 eV  augmentation charge cutoff
   NELM   =     60;   NELMIN=  2; NELMDL= -5     # of ELM steps 
   EDIFF  = 0.1E-05   stopping-criterion for ELM
   LREAL  =      T    real-space projection
   NLSPLINE    = F    spline interpolate recip. space projectors
   LCOMPAT=      F    compatible to vasp.4.4
   GGA_COMPAT  = T    GGA compatible to vasp.4.4-vasp.4.6
   LMAXPAW     = -100 max onsite density
   LMAXMIX     =    2 max onsite mixed and CHGCAR
   VOSKOWN=      0    Vosko Wilk Nusair interpolation
   ROPT   =   -0.00025  -0.00025
 Ionic relaxation
   EDIFFG = 0.1E-04   stopping-criterion for IOM
   NSW    =      0    number of steps for IOM
   NBLOCK =      1;   KBLOCK =      1    inner block; outer block 
   IBRION =     -1    ionic relax: 0-MD 1-quasi-New 2-CG
   NFREE  =      0    steps in history (QN), initial steepest desc. (CG)
   ISIF   =      2    stress and relaxation
   IWAVPR =     10    prediction:  0-non 1-charg 2-wave 3-comb
   ISYM   =      0    0-nonsym 1-usesym 2-fastsym
   LCORR  =      T    Harris-Foulkes like correction to forces

   POTIM  = 0.5000    time-step for ionic-motion
   TEIN   =    0.0    initial temperature
   TEBEG  =  300.0;   TEEND  = 700.0 temperature during run
   SMASS  =  -3.00    Nose mass-parameter (am)
   estimated Nose-frequenzy (Omega)   =  0.10E-29 period in steps = 0.13E+47 mass=  -0.514E-26a.u.
   SCALEE = 1.0000    scale energy and forces
   NPACO  =    256;   APACO  = 10.0  distance and # of slots for P.C.
   PSTRESS=    0.0 pullay stress

  Mass of Ions in am
   POMASS =  12.01  1.00
  Ionic Valenz
   ZVAL   =   4.00  1.00
  Atomic Wigner-Seitz radii
   RWIGS  =  -1.00 -1.00
  virtual crystal weights 
   VCA    =   1.00  1.00
   NELECT =      22.0000    total number of electrons
   NUPDOWN=      -1.0000    fix difference up-down

 DOS related values:
   EMIN   =  10.00;   EMAX   =-10.00  energy-range for DOS
   EFERMI =   0.00;   METHOD = LEGACY      
   ISMEAR =     0;   SIGMA  =   0.05  broadening in eV -4-tet -1-fermi 0-gaus

 Electronic relaxation 2 (details)
   IALGO  =     38    algorithm
   LDIAG  =      T    sub-space diagonalisation (order eigenvalues)
   LSUBROT=      F    optimize rotation matrix (better conditioning)
   TURBO    =      0    0=normal 1=particle mesh
   IRESTART =      0    0=no restart 2=restart with 2 vectors
   NREBOOT  =      0    no. of reboots
   NMIN     =      0    reboot dimension
   EREF     =   0.00    reference energy to select bands
   IMIX   =      4    mixing-type and parameters
     AMIX     =   0.40;   BMIX     =  1.00
     AMIX_MAG =   1.60;   BMIX_MAG =  1.00
     AMIN     =   0.10
     WC   =   100.;   INIMIX=   1;  MIXPRE=   1;  MAXMIX= -45

 Intra band minimization:
   WEIMIN = 0.0000     energy-eigenvalue tresh-hold
   EBREAK =  0.10E-07  absolut break condition
   DEPER  =   0.30     relativ break condition  

   TIME   =   0.40     timestep for ELM

  volume/ion in A,a.u.               =     337.50      2277.56
  Fermi-wavevector in a.u.,A,eV,Ry     =   0.305814  0.577905  1.272449  0.093522
  Thomas-Fermi vector in A             =   1.179187
 
 Write flags
   LWAVE        =      F    write WAVECAR
   LDOWNSAMPLE  =      F    k-point downsampling of WAVECAR
   LCHARG       =      F    write CHGCAR
   LVTOT        =      F    write LOCPOT, total local potential
   LVHAR        =      F    write LOCPOT, Hartree potential only
   LELF         =      F    write electronic localiz. function (ELF)
   LORBIT       =      0    0 simple, 1 ext, 2 COOP (PROOUT), +10 PAW based schemes


 Dipole corrections
   LMONO  =      F    monopole corrections only (constant potential shift)
   LDIPOL =      F    correct potential (dipole corrections)
   IDIPOL =      0    1-x, 2-y, 3-z, 4-all directions 
   EPSILON=  1.0000000 bulk dielectric constant

 Exchange correlation treatment:
   GGA     =    --    GGA type
   LEXCH   =     8    internal setting for exchange type
   LIBXC   =     F    Libxc                    
   VOSKOWN =     0    Vosko Wilk Nusair interpolation
   LHFCALC =     F    Hartree Fock is set to
   LHFONE  =     F    Hartree Fock one center treatment
   AEXX    =    0.0000 exact exchange contribution

 Linear response parameters
   LEPSILON=     F    determine dielectric tensor
   LRPA    =     F    only Hartree local field effects (RPA)
   LNABLA  =     F    use nabla operator in PAW spheres
   LVEL    =     F    velocity operator in full k-point grid
   CSHIFT  =0.1000    complex shift for real part using Kramers Kronig
   OMEGAMAX=  -1.0    maximum frequency
   DEG_THRESHOLD= 0.2000000E-02 threshold for treating states as degnerate
   RTIME   =   -0.100 relaxation time in fs
  (WPLASMAI=    0.000 imaginary part of plasma frequency in eV, 0.658/RTIME)
   DFIELD  = 0.0000000 0.0000000 0.0000000 field for delta impulse in time
 
  Optional k-point grid parameters
   LKPOINTS_OPT  =     F    use optional k-point grid
   KPOINTS_OPT_MODE=     1    mode for optional k-point grid
 
 Orbital magnetization related:
   ORBITALMAG=     F  switch on orbital magnetization
   LCHIMAG   =     F  perturbation theory with respect to B field
   DQ        =  0.001000  dq finite difference perturbation B field
   LLRAUG    =     F  two centre corrections for induced B field
   LBONE     =     F  B-component reconstruction in AE one-centre
   LVGVCALC  =     T  calculate vGv susceptibility
   LVGVAPPL  =     F  apply vGv susceptibility instead of pGv for G=0

 Random number generation:
   RANDOM_GENERATOR = DEFAULT
   PCG_SEED         = not used


--------------------------------------------------------------------------------------------------------


 Static calculation
 charge density and potential will be updated during run
 non-spin polarized calculation
 Variant of blocked Davidson
 Davidson routine will perform the subspace rotation
 perform sub-space diagonalisation
    after iterative eigenvector-optimisation
 modified Broyden-mixing scheme, WC =      100.0
 initial mixing is a Kerker type mixing with AMIX =  0.4000 and BMIX =      1.0000
 Hartree-type preconditioning will be used
 using additional bands           13
 real space projection scheme for non local part
 calculate Harris-corrections to forces 
   (improved forces if not selfconsistent)
 use gradient corrections 
 use of overlap-Matrix (Vanderbilt PP)
 Gauss-broadening in eV      SIGMA  =   0.05


--------------------------------------------------------------------------------------------------------


  energy-cutoff  :      520.00
  volume of cell :     3375.00
      direct lattice vectors                 reciprocal lattice vectors
    15.000000000  0.000000000  0.000000000     0.066666667  0.000000000  0.000000000
     0.000000000 15.000000000  0.000000000     0.000000000  0.066666667  0.000000000
     0.000000000  0.000000000 15.000000000     0.000000000  0.000000000  0.066666667

  length of vectors
    15.000000000 15.000000000 15.000000000     0.066666667  0.066666667  0.066666667


 
 k-points in units of 2pi/SCALE and weight: K-Spacing Value to Generate K-Mesh: 1.00
   0.00000000  0.00000000  0.00000000       1.000
 
 k-points in reciprocal lattice and weights: K-Spacing Value to Generate K-Mesh: 1.00
   0.00000000  0.00000000  0.00000000       1.000
 
 position of ions in fractional coordinates (direct lattice) 
   0.54193331  0.48259999  0.40953334
   0.47693332  0.53259999  0.44579999
   0.46873334  0.53626664  0.53673331
   0.49553334  0.46980000  0.60053336
   0.54660002  0.48126666  0.33760001
   0.59120000  0.45333335  0.44666665
   0.42846667  0.56026669  0.40606667
   0.43739999  0.59120000  0.56226667
   0.52819999  0.41379999  0.58373330
   0.48500001  0.47880001  0.67119999
 
 position of ions in cartesian coordinates  (Angst):
   8.12899971  7.23899984  6.14300013
   7.15399981  7.98899984  6.68699980
   7.03100014  8.04399967  8.05099964
   7.43300009  7.04699993  9.00800037
   8.19900036  7.21899986  5.06400013
   8.86800003  6.80000019  6.69999981
   6.42700005  8.40400028  6.09100008
   6.56099987  8.86800003  8.43400002
   7.92299986  6.20699978  8.75599957
   7.27500010  7.18200016 10.06799984
 


--------------------------------------------------------------------------------------------------------


 k-point   1 :   0.0000 0.0000 0.0000  plane waves:   90879

 maximum and minimum number of plane-waves per node :     45467    45412

 maximum number of plane-waves:     90879
 maximum index in each direction: 
   IXMAX=   27   IYMAX=   27   IZMAX=   27
   IXMIN=  -27   IYMIN=  -27   IZMIN=  -27


 real space projection operators:
  total allocation   :       1185.05 KBytes
  max/ min on nodes  :        592.55        592.51


 parallel 3D FFT for wavefunctions:
    minimum data exchange during FFTs selected (reduces bandwidth)
 parallel 3D FFT for charge:
    minimum data exchange during FFTs selected (reduces bandwidth)


 total amount of memory used by VASP MPI-rank0   224780. kBytes
=======================================================================

   base      :      30000. kBytes
   nonlr-proj:       1256. kBytes
   fftplans  :     123538. kBytes
   grid      :      67787. kBytes
   one-center:         15. kBytes
   wavefun   :       2184. kBytes
 
     INWAV:  cpu time      0.0000: real time      0.0000
 Broyden mixing: mesh for mixing (old mesh)
   NGX = 55   NGY = 55   NGZ = 55
  (NGX  =224   NGY  =224   NGZ  =224)
  gives a total of 166375 points

 initial charge density was supplied:
 charge density of overlapping atoms calculated
 number of electron      22.0000000 magnetization 
 keeping initial charge density in first step


--------------------------------------------------------------------------------------------------------


 Maximum index for non-local projection operator         1515
 Maximum index for augmentation-charges         2469 (set IRDMAX)


--------------------------------------------------------------------------------------------------------


 First call to EWALD:  gamma=   0.118
 Maximum number of real-space cells 3x 3x 3
 Maximum number of reciprocal cells 3x 3x 3

    FEWALD:  cpu time      0.0010: real time      0.0010


--------------------------------------- Ionic step        1  -------------------------------------------




--------------------------------------- Iteration      1(   1)  ---------------------------------------


    POTLOK:  cpu time      0.3347: real time      0.3366
    SETDIJ:  cpu time      0.1937: real time      0.1945
     EDDAV:  cpu time      0.4219: real time      0.4243
       DOS:  cpu time      0.0002: real time      0.0002
    --------------------------------------------
      LOOP:  cpu time      0.9506: real time      0.9556

 eigenvalue-minimisations  :    64
 total energy-change (2. order) : 0.1100004E+03  (-0.5346062E+03)
 number of electron      22.0000000 magnetization 
 augmentation part       22.0000000 magnetization 

 Free energy of the ion-electron system (eV)
  ---------------------------------------------------
  alpha Z        PSCENC =         0.62641250
  Ewald energy   TEWEN  =       927.28040403
  -Hartree energ DENC   =     -1340.40273691
  -exchange      EXHF   =         0.00000000
  -V(xc)+E(xc)   XCENC  =        67.79992584
  PAW double counting   =       156.01372664     -160.66969168
  entropy T*S    EENTRO =        -0.00114187
  eigenvalues    EBANDS =      -204.16390954
  atomic energy  EATOM  =       663.51739852
  Solvation  Ediel_sol  =         0.00000000
  ---------------------------------------------------
  free energy    TOTEN  =       110.00038755 eV

  energy without entropy =      110.00152941  energy(sigma->0) =      110.00095848


--------------------------------------------------------------------------------------------------------




--------------------------------------- Iteration      1(   2)  ---------------------------------------


     EDDAV:  cpu time      0.4484: real time      0.4510
       DOS:  cpu time      0.0001: real time      0.0001
    --------------------------------------------
      LOOP:  cpu time      0.4485: real time      0.4511

 eigenvalue-minimisations  :    72
 total energy-change (2. order) :-0.1246153E+03  (-0.1223590E+03)
 number of electron      22.0000000 magnetization 
 augmentation part       22.0000000 magnetization 

 Free energy of the ion-electron system (eV)
  ---------------------------------------------------
  alpha Z        PSCENC =         0.62641250
  Ewald energy   TEWEN  =       927.28040403
  -Hartree energ DENC   =     -1340.40273691
  -exchange      EXHF   =         0.00000000
  -V(xc)+E(xc)   XCENC  =        67.79992584
  PAW double counting   =       156.01372664     -160.66969168
  entropy T*S    EENTRO =        -0.00000000
  eigenvalues    EBANDS =      -328.78039837
  atomic energy  EATOM  =       663.51739852
  Solvation  Ediel_sol  =         0.00000000
  ---------------------------------------------------
  free energy    TOTEN  =       -14.61495942 eV

  energy without entropy =      -14.61495942  energy(sigma->0) =      -14.61495942


--------------------------------------------------------------------------------------------------------




--------------------------------------- Iteration      1(   3)  ---------------------------------------


     EDDAV:  cpu time      0.4475: real time      0.4500
       DOS:  cpu time      0.0001: real time      0.0001
    --------------------------------------------
      LOOP:  cpu time      0.4476: real time      0.4502

 eigenvalue-minimisations  :    72
 total energy-change (2. order) :-0.4620088E+02  (-0.4608967E+02)
 number of electron      22.0000000 magnetization 
 augmentation part       22.0000000 magnetization 

 Free energy of the ion-electron system (eV)
  ---------------------------------------------------
  alpha Z        PSCENC =         0.62641250
  Ewald energy   TEWEN  =       927.28040403
  -Hartree energ DENC   =     -1340.40273691
  -exchange      EXHF   =         0.00000000
  -V(xc)+E(xc)   XCENC  =        67.79992584
  PAW double counting   =       156.01372664     -160.66969168
  entropy T*S    EENTRO =        -0.00000000
  eigenvalues    EBANDS =      -374.98127756
  atomic energy  EATOM  =       663.51739852
  Solvation  Ediel_sol  =         0.00000000
  ---------------------------------------------------
  free energy    TOTEN  =       -60.81583862 eV

  energy without entropy =      -60.81583862  energy(sigma->0) =      -60.81583862


--------------------------------------------------------------------------------------------------------




--------------------------------------- Iteration      1(   4)  ---------------------------------------


     EDDAV:  cpu time      0.4086: real time      0.4109
       DOS:  cpu time      0.0001: real time      0.0001
    --------------------------------------------
      LOOP:  cpu time      0.4087: real time      0.4110

 eigenvalue-minimisations  :    64
 total energy-change (2. order) :-0.2574100E+01  (-0.2572164E+01)
 number of electron      22.0000000 magnetization 
 augmentation part       22.0000000 magnetization 

 Free energy of the ion-electron system (eV)
  ---------------------------------------------------
  alpha Z        PSCENC =         0.62641250
  Ewald energy   TEWEN  =       927.28040403
  -Hartree energ DENC   =     -1340.40273691
  -exchange      EXHF   =         0.00000000
  -V(xc)+E(xc)   XCENC  =        67.79992584
  PAW double counting   =       156.01372664     -160.66969168
  entropy T*S    EENTRO =        -0.00000000
  eigenvalues    EBANDS =      -377.55537727
  atomic energy  EATOM  =       663.51739852
  Solvation  Ediel_sol  =         0.00000000
  ---------------------------------------------------
  free energy    TOTEN  =       -63.38993832 eV

  energy without entropy =      -63.38993832  energy(sigma->0) =      -63.38993832


--------------------------------------------------------------------------------------------------------




--------------------------------------- Iteration      1(   5)  ---------------------------------------


     EDDAV:  cpu time      0.4093: real time      0.4116
       DOS:  cpu time      0.0001: real time      0.0001
    CHARGE:  cpu time      0.1985: real time      0.1993
    MIXING:  cpu time      0.0126: real time      0.0126
    --------------------------------------------
      LOOP:  cpu time      0.6206: real time      0.6237

 eigenvalue-minimisations  :    64
 total energy-change (2. order) :-0.2319836E-01  (-0.2319166E-01)
 number of electron      22.0000000 magnetization 
 augmentation part        0.6132700 magnetization 

 Broyden mixing:
  rms(total) = 0.12833E+01    rms(broyden)= 0.12831E+01
  rms(prec ) = 0.15237E+01
  weight for this iteration     100.00

 Free energy of the ion-electron system (eV)
  ---------------------------------------------------
  alpha Z        PSCENC =         0.62641250
  Ewald energy   TEWEN  =       927.28040403
  -Hartree energ DENC   =     -1340.40273691
  -exchange      EXHF   =         0.00000000
  -V(xc)+E(xc)   XCENC  =        67.79992584
  PAW double counting   =       156.01372664     -160.66969168
  entropy T*S    EENTRO =        -0.00000000
  eigenvalues    EBANDS =      -377.57857563
  atomic energy  EATOM  =       663.51739852
  Solvation  Ediel_sol  =         0.00000000
  ---------------------------------------------------
  free energy    TOTEN  =       -63.41313668 eV

  energy without entropy =      -63.41313668  energy(sigma->0) =      -63.41313668


--------------------------------------------------------------------------------------------------------




--------------------------------------- Iteration      1(   6)  ---------------------------------------


    POTLOK:  cpu time      0.3062: real time      0.3079
    SETDIJ:  cpu time      0.1945: real time      0.1953
     EDDAV:  cpu time      0.3674: real time      0.3695
       DOS:  cpu time      0.0001: real time      0.0001
    CHARGE:  cpu time      0.1946: real time      0.1953
    MIXING:  cpu time      0.0146: real time      0.0147
    --------------------------------------------
      LOOP:  cpu time      1.0774: real time      1.0828

 eigenvalue-minimisations  :    56
 total energy-change (2. order) : 0.5764165E+01  (-0.7998851E+00)
 number of electron      22.0000000 magnetization 
 augmentation part        0.5633412 magnetization 

 Broyden mixing:
  rms(total) = 0.62706E+00    rms(broyden)= 0.62704E+00
  rms(prec ) = 0.73925E+00
  weight for this iteration     100.00

 eigenvalues of (default mixing * dielectric matrix)
  average eigenvalue GAMMA=   1.6952
  1.6952

 Free energy of the ion-electron system (eV)
  ---------------------------------------------------
  alpha Z        PSCENC =         0.62641250
  Ewald energy   TEWEN  =       927.28040403
  -Hartree energ DENC   =     -1389.73890220
  -exchange      EXHF   =         0.00000000
  -V(xc)+E(xc)   XCENC  =        70.39600265
  PAW double counting   =       237.10326244     -242.36634557
  entropy T*S    EENTRO =        -0.00000000
  eigenvalues    EBANDS =      -324.46720427
  atomic energy  EATOM  =       663.51739852
  Solvation  Ediel_sol  =         0.00000000
  ---------------------------------------------------
  free energy    TOTEN  =       -57.64897190 eV

  energy without entropy =      -57.64897190  energy(sigma->0) =      -57.64897190


--------------------------------------------------------------------------------------------------------




--------------------------------------- Iteration      1(   7)  ---------------------------------------


    POTLOK:  cpu time      0.3081: real time      0.3098
    SETDIJ:  cpu time      0.1934: real time      0.1942
     EDDAV:  cpu time      0.4121: real time      0.4143
       DOS:  cpu time      0.0001: real time      0.0001
    CHARGE:  cpu time      0.1956: real time      0.1964
    MIXING:  cpu time      0.0142: real time      0.0142
    --------------------------------------------
      LOOP:  cpu time      1.1234: real time      1.1289

 eigenvalue-minimisations  :    64
 total energy-change (2. order) : 0.1514827E+01  (-0.5124111E+00)
 number of electron      22.0000000 magnetization 
 augmentation part        0.5263014 magnetization 

 Broyden mixing:
  rms(total) = 0.22095E+00    rms(broyden)= 0.22087E+00
  rms(prec ) = 0.25342E+00
  weight for this iteration     100.00

 eigenvalues of (default mixing * dielectric matrix)
  average eigenvalue GAMMA=   1.9374
  1.9374  1.9374

 Free energy of the ion-electron system (eV)
  ---------------------------------------------------
  alpha Z        PSCENC =         0.62641250
  Ewald energy   TEWEN  =       927.28040403
  -Hartree energ DENC   =     -1433.04956305
  -exchange      EXHF   =         0.00000000
  -V(xc)+E(xc)   XCENC  =        72.92168235
  PAW double counting   =       313.08589362     -318.67237435
  entropy T*S    EENTRO =        -0.00000000
  eigenvalues    EBANDS =      -281.84399860
  atomic energy  EATOM  =       663.51739852
  Solvation  Ediel_sol  =         0.00000000
  ---------------------------------------------------
  free energy    TOTEN  =       -56.13414497 eV

  energy without entropy =      -56.13414497  energy(sigma->0) =      -56.13414497


--------------------------------------------------------------------------------------------------------




--------------------------------------- Iteration      1(   8)  ---------------------------------------


    POTLOK:  cpu time      0.3126: real time      0.3143
    SETDIJ:  cpu time      0.1884: real time      0.1893
     EDDAV:  cpu time      0.4516: real time      0.4541
       DOS:  cpu time      0.0001: real time      0.0001
    CHARGE:  cpu time      0.1998: real time      0.2006
    MIXING:  cpu time      0.0114: real time      0.0115
    --------------------------------------------
      LOOP:  cpu time      1.1639: real time      1.1698

 eigenvalue-minimisations  :    72
 total energy-change (2. order) : 0.1568340E+00  (-0.3261710E-01)
 number of electron      22.0000000 magnetization 
 augmentation part        0.5281088 magnetization 

 Broyden mixing:
  rms(total) = 0.43635E-01    rms(broyden)= 0.43629E-01
  rms(prec ) = 0.74970E-01
  weight for this iteration     100.00

 eigenvalues of (default mixing * dielectric matrix)
  average eigenvalue GAMMA=   1.6172
  2.3223  0.8742  1.6550

 Free energy of the ion-electron system (eV)
  ---------------------------------------------------
  alpha Z        PSCENC =         0.62641250
  Ewald energy   TEWEN  =       927.28040403
  -Hartree energ DENC   =     -1439.58732651
  -exchange      EXHF   =         0.00000000
  -V(xc)+E(xc)   XCENC  =        73.43566477
  PAW double counting   =       318.54987200     -323.97661407
  entropy T*S    EENTRO =        -0.00000000
  eigenvalues    EBANDS =      -275.82312220
  atomic energy  EATOM  =       663.51739852
  Solvation  Ediel_sol  =         0.00000000
  ---------------------------------------------------
  free energy    TOTEN  =       -55.97731095 eV

  energy without entropy =      -55.97731095  energy(sigma->0) =      -55.97731095


--------------------------------------------------------------------------------------------------------




--------------------------------------- Iteration      1(   9)  ---------------------------------------


    POTLOK:  cpu time      0.3139: real time      0.3156
    SETDIJ:  cpu time      0.1902: real time      0.1911
     EDDAV:  cpu time      0.4507: real time      0.4532
       DOS:  cpu time      0.0001: real time      0.0001
    CHARGE:  cpu time      0.1973: real time      0.1981
    MIXING:  cpu time      0.0120: real time      0.0121
    --------------------------------------------
      LOOP:  cpu time      1.1644: real time      1.1701

 eigenvalue-minimisations  :    72
 total energy-change (2. order) : 0.2407345E-01  (-0.5186513E-02)
 number of electron      22.0000000 magnetization 
 augmentation part        0.5251827 magnetization 

 Broyden mixing:
  rms(total) = 0.23746E-01    rms(broyden)= 0.23742E-01
  rms(prec ) = 0.48582E-01
  weight for this iteration     100.00

 eigenvalues of (default mixing * dielectric matrix)
  average eigenvalue GAMMA=   1.4730
  2.2344  1.6650  1.0589  0.9338

 Free energy of the ion-electron system (eV)
  ---------------------------------------------------
  alpha Z        PSCENC =         0.62641250
  Ewald energy   TEWEN  =       927.28040403
  -Hartree energ DENC   =     -1444.32950110
  -exchange      EXHF   =         0.00000000
  -V(xc)+E(xc)   XCENC  =        73.66195286
  PAW double counting   =       323.24963330     -328.68750055
  entropy T*S    EENTRO =        -0.00000000
  eigenvalues    EBANDS =      -271.27203705
  atomic energy  EATOM  =       663.51739852
  Solvation  Ediel_sol  =         0.00000000
  ---------------------------------------------------
  free energy    TOTEN  =       -55.95323749 eV

  energy without entropy =      -55.95323749  energy(sigma->0) =      -55.95323749


--------------------------------------------------------------------------------------------------------




--------------------------------------- Iteration      1(  10)  ---------------------------------------


    POTLOK:  cpu time      0.3149: real time      0.3166
    SETDIJ:  cpu time      0.1892: real time      0.1900
     EDDAV:  cpu time      0.4470: real time      0.4495
       DOS:  cpu time      0.0001: real time      0.0001
    CHARGE:  cpu time      0.1985: real time      0.1993
    MIXING:  cpu time      0.0115: real time      0.0116
    --------------------------------------------
      LOOP:  cpu time      1.1612: real time      1.1671

 eigenvalue-minimisations  :    72
 total energy-change (2. order) : 0.7399598E-02  (-0.2317874E-02)
 number of electron      22.0000000 magnetization 
 augmentation part        0.5230589 magnetization 

 Broyden mixing:
  rms(total) = 0.17737E-01    rms(broyden)= 0.17733E-01
  rms(prec ) = 0.34277E-01
  weight for this iteration     100.00

 eigenvalues of (default mixing * dielectric matrix)
  average eigenvalue GAMMA=   1.6257
  2.4204  2.4204  1.3492  0.9693  0.9693

 Free energy of the ion-electron system (eV)
  ---------------------------------------------------
  alpha Z        PSCENC =         0.62641250
  Ewald energy   TEWEN  =       927.28040403
  -Hartree energ DENC   =     -1448.06249839
  -exchange      EXHF   =         0.00000000
  -V(xc)+E(xc)   XCENC  =        73.75408863
  PAW double counting   =       323.40572977     -328.85307591
  entropy T*S    EENTRO =        -0.00000000
  eigenvalues    EBANDS =      -267.61429705
  atomic energy  EATOM  =       663.51739852
  Solvation  Ediel_sol  =         0.00000000
  ---------------------------------------------------
  free energy    TOTEN  =       -55.94583790 eV

  energy without entropy =      -55.94583790  energy(sigma->0) =      -55.94583790


--------------------------------------------------------------------------------------------------------




--------------------------------------- Iteration      1(  11)  ---------------------------------------


    POTLOK:  cpu time      0.3143: real time      0.3160
    SETDIJ:  cpu time      0.1909: real time      0.1917
     EDDAV:  cpu time      0.4499: real time      0.4524
       DOS:  cpu time      0.0001: real time      0.0001
    CHARGE:  cpu time      0.1973: real time      0.1981
    MIXING:  cpu time      0.0116: real time      0.0116
    --------------------------------------------
      LOOP:  cpu time      1.1641: real time      1.1699

 eigenvalue-minimisations  :    72
 total energy-change (2. order) : 0.9117395E-02  (-0.4926672E-03)
 number of electron      22.0000000 magnetization 
 augmentation part        0.5228416 magnetization 

 Broyden mixing:
  rms(total) = 0.81490E-02    rms(broyden)= 0.81488E-02
  rms(prec ) = 0.18946E-01
  weight for this iteration     100.00

 eigenvalues of (default mixing * dielectric matrix)
  average eigenvalue GAMMA=   1.6663
  3.1008  2.4004  1.5089  0.8744  1.0567  1.0567

 Free energy of the ion-electron system (eV)
  ---------------------------------------------------
  alpha Z        PSCENC =         0.62641250
  Ewald energy   TEWEN  =       927.28040403
  -Hartree energ DENC   =     -1451.41743865
  -exchange      EXHF   =         0.00000000
  -V(xc)+E(xc)   XCENC  =        73.83459516
  PAW double counting   =       321.98969262     -327.42142692
  entropy T*S    EENTRO =        -0.00000000
  eigenvalues    EBANDS =      -264.34635776
  atomic energy  EATOM  =       663.51739852
  Solvation  Ediel_sol  =         0.00000000
  ---------------------------------------------------
  free energy    TOTEN  =       -55.93672050 eV

  energy without entropy =      -55.93672050  energy(sigma->0) =      -55.93672050


--------------------------------------------------------------------------------------------------------




--------------------------------------- Iteration      1(  12)  ---------------------------------------


    POTLOK:  cpu time      0.3134: real time      0.3151
    SETDIJ:  cpu time      0.1911: real time      0.1919
     EDDAV:  cpu time      0.4073: real time      0.4095
       DOS:  cpu time      0.0001: real time      0.0001
    CHARGE:  cpu time      0.1990: real time      0.1998
    MIXING:  cpu time      0.0099: real time      0.0099
    --------------------------------------------
      LOOP:  cpu time      1.1209: real time      1.1265

 eigenvalue-minimisations  :    64
 total energy-change (2. order) : 0.6189533E-03  (-0.1809887E-03)
 number of electron      22.0000000 magnetization 
 augmentation part        0.5225924 magnetization 

 Broyden mixing:
  rms(total) = 0.58122E-02    rms(broyden)= 0.58121E-02
  rms(prec ) = 0.12667E-01
  weight for this iteration     100.00

 eigenvalues of (default mixing * dielectric matrix)
  average eigenvalue GAMMA=   1.8573
  4.2783  2.4453  1.9545  1.4607  0.9999  0.9999  0.8623

 Free energy of the ion-electron system (eV)
  ---------------------------------------------------
  alpha Z        PSCENC =         0.62641250
  Ewald energy   TEWEN  =       927.28040403
  -Hartree energ DENC   =     -1453.37510602
  -exchange      EXHF   =         0.00000000
  -V(xc)+E(xc)   XCENC  =        73.87510963
  PAW double counting   =       321.65041923     -327.08122543
  entropy T*S    EENTRO =        -0.00000000
  eigenvalues    EBANDS =      -262.42951402
  atomic energy  EATOM  =       663.51739852
  Solvation  Ediel_sol  =         0.00000000
  ---------------------------------------------------
  free energy    TOTEN  =       -55.93610155 eV

  energy without entropy =      -55.93610155  energy(sigma->0) =      -55.93610155


--------------------------------------------------------------------------------------------------------




--------------------------------------- Iteration      1(  13)  ---------------------------------------


    POTLOK:  cpu time      0.3093: real time      0.3110
    SETDIJ:  cpu time      0.1924: real time      0.1932
     EDDAV:  cpu time      0.4095: real time      0.4118
       DOS:  cpu time      0.0001: real time      0.0001
    CHARGE:  cpu time      0.1985: real time      0.1993
    MIXING:  cpu time      0.0127: real time      0.0127
    --------------------------------------------
      LOOP:  cpu time      1.1225: real time      1.1282

 eigenvalue-minimisations  :    64
 total energy-change (2. order) :-0.9281222E-02  (-0.1517212E-03)
 number of electron      22.0000000 magnetization 
 augmentation part        0.5224964 magnetization 

 Broyden mixing:
  rms(total) = 0.31989E-02    rms(broyden)= 0.31987E-02
  rms(prec ) = 0.70490E-02
  weight for this iteration     100.00

 eigenvalues of (default mixing * dielectric matrix)
  average eigenvalue GAMMA=   1.9232
  4.7950  2.5541  2.2254  1.4718  1.4718  1.0014  1.0014  0.8644

 Free energy of the ion-electron system (eV)
  ---------------------------------------------------
  alpha Z        PSCENC =         0.62641250
  Ewald energy   TEWEN  =       927.28040403
  -Hartree energ DENC   =     -1454.47032983
  -exchange      EXHF   =         0.00000000
  -V(xc)+E(xc)   XCENC  =        73.87821761
  PAW double counting   =       321.32397133     -326.75546948
  entropy T*S    EENTRO =        -0.00000000
  eigenvalues    EBANDS =      -261.34598745
  atomic energy  EATOM  =       663.51739852
  Solvation  Ediel_sol  =         0.00000000
  ---------------------------------------------------
  free energy    TOTEN  =       -55.94538277 eV

  energy without entropy =      -55.94538277  energy(sigma->0) =      -55.94538277


--------------------------------------------------------------------------------------------------------




--------------------------------------- Iteration      1(  14)  ---------------------------------------


    POTLOK:  cpu time      0.3089: real time      0.3106
    SETDIJ:  cpu time      0.1913: real time      0.1922
     EDDAV:  cpu time      0.4091: real time      0.4114
       DOS:  cpu time      0.0001: real time      0.0001
    CHARGE:  cpu time      0.1985: real time      0.1992
    MIXING:  cpu time      0.0109: real time      0.0109
    --------------------------------------------
      LOOP:  cpu time      1.1189: real time      1.1244

 eigenvalue-minimisations  :    64
 total energy-change (2. order) :-0.7227576E-02  (-0.1029389E-03)
 number of electron      22.0000000 magnetization 
 augmentation part        0.5224309 magnetization 

 Broyden mixing:
  rms(total) = 0.18908E-02    rms(broyden)= 0.18907E-02
  rms(prec ) = 0.40865E-02
  weight for this iteration     100.00

 eigenvalues of (default mixing * dielectric matrix)
  average eigenvalue GAMMA=   2.1112
  6.0650  3.3130  2.3154  1.9448  1.2837  1.2837  0.8712  0.9622  0.9622

 Free energy of the ion-electron system (eV)
  ---------------------------------------------------
  alpha Z        PSCENC =         0.62641250
  Ewald energy   TEWEN  =       927.28040403
  -Hartree energ DENC   =     -1454.76410496
  -exchange      EXHF   =         0.00000000
  -V(xc)+E(xc)   XCENC  =        73.86979308
  PAW double counting   =       321.41324303     -326.84480457
  entropy T*S    EENTRO =        -0.00000000
  eigenvalues    EBANDS =      -261.05095198
  atomic energy  EATOM  =       663.51739852
  Solvation  Ediel_sol  =         0.00000000
  ---------------------------------------------------
  free energy    TOTEN  =       -55.95261035 eV

  energy without entropy =      -55.95261035  energy(sigma->0) =      -55.95261035


--------------------------------------------------------------------------------------------------------




--------------------------------------- Iteration      1(  15)  ---------------------------------------


    POTLOK:  cpu time      0.3056: real time      0.3073
    SETDIJ:  cpu time      0.1916: real time      0.1925
     EDDAV:  cpu time      0.3705: real time      0.3725
       DOS:  cpu time      0.0001: real time      0.0001
    CHARGE:  cpu time      0.1987: real time      0.1995
    MIXING:  cpu time      0.0094: real time      0.0095
    --------------------------------------------
      LOOP:  cpu time      1.0759: real time      1.0814

 eigenvalue-minimisations  :    56
 total energy-change (2. order) :-0.4658974E-02  (-0.7555829E-04)
 number of electron      22.0000000 magnetization 
 augmentation part        0.5224635 magnetization 

 Broyden mixing:
  rms(total) = 0.14702E-02    rms(broyden)= 0.14700E-02
  rms(prec ) = 0.23724E-02
  weight for this iteration     100.00

 eigenvalues of (default mixing * dielectric matrix)
  average eigenvalue GAMMA=   2.1114
  6.4394  3.6203  2.3202  1.8305  1.5507  1.5507  0.9939  0.9939  0.9070  0.9070

 Free energy of the ion-electron system (eV)
  ---------------------------------------------------
  alpha Z        PSCENC =         0.62641250
  Ewald energy   TEWEN  =       927.28040403
  -Hartree energ DENC   =     -1454.78319631
  -exchange      EXHF   =         0.00000000
  -V(xc)+E(xc)   XCENC  =        73.85630625
  PAW double counting   =       321.35418516     -326.78470216
  entropy T*S    EENTRO =        -0.00000000
  eigenvalues    EBANDS =      -261.02407731
  atomic energy  EATOM  =       663.51739852
  Solvation  Ediel_sol  =         0.00000000
  ---------------------------------------------------
  free energy    TOTEN  =       -55.95726932 eV

  energy without entropy =      -55.95726932  energy(sigma->0) =      -55.95726932


--------------------------------------------------------------------------------------------------------




--------------------------------------- Iteration      1(  16)  ---------------------------------------


    POTLOK:  cpu time      0.3047: real time      0.3064
    SETDIJ:  cpu time      0.1910: real time      0.1918
     EDDAV:  cpu time      0.4516: real time      0.4540
       DOS:  cpu time      0.0001: real time      0.0001
    CHARGE:  cpu time      0.1980: real time      0.1988
    MIXING:  cpu time      0.0116: real time      0.0117
    --------------------------------------------
      LOOP:  cpu time      1.1571: real time      1.1628

 eigenvalue-minimisations  :    72
 total energy-change (2. order) :-0.1231297E-02  (-0.1364823E-04)
 number of electron      22.0000000 magnetization 
 augmentation part        0.5223506 magnetization 

 Broyden mixing:
  rms(total) = 0.62804E-03    rms(broyden)= 0.62787E-03
  rms(prec ) = 0.12452E-02
  weight for this iteration     100.00

 eigenvalues of (default mixing * dielectric matrix)
  average eigenvalue GAMMA=   2.2315
  7.4119  4.3122  2.3946  2.3946  1.6201  1.3466  1.3466  0.9902  0.9902  0.8696
  0.8696

 Free energy of the ion-electron system (eV)
  ---------------------------------------------------
  alpha Z        PSCENC =         0.62641250
  Ewald energy   TEWEN  =       927.28040403
  -Hartree energ DENC   =     -1454.90173865
  -exchange      EXHF   =         0.00000000
  -V(xc)+E(xc)   XCENC  =        73.85808564
  PAW double counting   =       321.42947668     -326.86059653
  entropy T*S    EENTRO =        -0.00000000
  eigenvalues    EBANDS =      -260.90794281
  atomic energy  EATOM  =       663.51739852
  Solvation  Ediel_sol  =         0.00000000
  ---------------------------------------------------
  free energy    TOTEN  =       -55.95850062 eV

  energy without entropy =      -55.95850062  energy(sigma->0) =      -55.95850062


--------------------------------------------------------------------------------------------------------




--------------------------------------- Iteration      1(  17)  ---------------------------------------


    POTLOK:  cpu time      0.3014: real time      0.3031
    SETDIJ:  cpu time      0.1910: real time      0.1918
     EDDAV:  cpu time      0.3299: real time      0.3318
       DOS:  cpu time      0.0001: real time      0.0001
    CHARGE:  cpu time      0.1962: real time      0.1970
    MIXING:  cpu time      0.0133: real time      0.0134
    --------------------------------------------
      LOOP:  cpu time      1.0320: real time      1.0372

 eigenvalue-minimisations  :    48
 total energy-change (2. order) :-0.8803819E-03  (-0.7665752E-05)
 number of electron      22.0000000 magnetization 
 augmentation part        0.5223470 magnetization 

 Broyden mixing:
  rms(total) = 0.42947E-03    rms(broyden)= 0.42939E-03
  rms(prec ) = 0.74561E-03
  weight for this iteration     100.00

 eigenvalues of (default mixing * dielectric matrix)
  average eigenvalue GAMMA=   2.2513
  7.7237  4.7415  2.6303  2.3498  1.7486  1.4573  1.4573  1.0398  1.0398  0.8879
  0.9697  0.9697

 Free energy of the ion-electron system (eV)
  ---------------------------------------------------
  alpha Z        PSCENC =         0.62641250
  Ewald energy   TEWEN  =       927.28040403
  -Hartree energ DENC   =     -1454.90071082
  -exchange      EXHF   =         0.00000000
  -V(xc)+E(xc)   XCENC  =        73.85632636
  PAW double counting   =       321.43362190     -326.86468816
  entropy T*S    EENTRO =        -0.00000000
  eigenvalues    EBANDS =      -260.90814533
  atomic energy  EATOM  =       663.51739852
  Solvation  Ediel_sol  =         0.00000000
  ---------------------------------------------------
  free energy    TOTEN  =       -55.95938100 eV

  energy without entropy =      -55.95938100  energy(sigma->0) =      -55.95938100


--------------------------------------------------------------------------------------------------------




--------------------------------------- Iteration      1(  18)  ---------------------------------------


    POTLOK:  cpu time      0.2994: real time      0.3011
    SETDIJ:  cpu time      0.1924: real time      0.1932
     EDDAV:  cpu time      0.4465: real time      0.4489
       DOS:  cpu time      0.0001: real time      0.0001
    CHARGE:  cpu time      0.1963: real time      0.1971
    MIXING:  cpu time      0.0118: real time      0.0119
    --------------------------------------------
      LOOP:  cpu time      1.1465: real time      1.1523

 eigenvalue-minimisations  :    72
 total energy-change (2. order) :-0.3174250E-03  (-0.1717023E-05)
 number of electron      22.0000000 magnetization 
 augmentation part        0.5223334 magnetization 

 Broyden mixing:
  rms(total) = 0.26076E-03    rms(broyden)= 0.26071E-03
  rms(prec ) = 0.45321E-03
  weight for this iteration     100.00

 eigenvalues of (default mixing * dielectric matrix)
  average eigenvalue GAMMA=   2.3047
  8.4880  5.1285  3.0363  2.4251  2.0113  1.5412  1.2670  1.2670  1.0142  1.0142
  1.0257  0.8712  0.8712

 Free energy of the ion-electron system (eV)
  ---------------------------------------------------
  alpha Z        PSCENC =         0.62641250
  Ewald energy   TEWEN  =       927.28040403
  -Hartree energ DENC   =     -1454.92055273
  -exchange      EXHF   =         0.00000000
  -V(xc)+E(xc)   XCENC  =        73.85664200
  PAW double counting   =       321.42890374     -326.85996854
  entropy T*S    EENTRO =        -0.00000000
  eigenvalues    EBANDS =      -260.88893795
  atomic energy  EATOM  =       663.51739852
  Solvation  Ediel_sol  =         0.00000000
  ---------------------------------------------------
  free energy    TOTEN  =       -55.95969842 eV

  energy without entropy =      -55.95969842  energy(sigma->0) =      -55.95969842


--------------------------------------------------------------------------------------------------------




--------------------------------------- Iteration      1(  19)  ---------------------------------------


    POTLOK:  cpu time      0.3007: real time      0.3023
    SETDIJ:  cpu time      0.1920: real time      0.1928
     EDDAV:  cpu time      0.3679: real time      0.3700
       DOS:  cpu time      0.0001: real time      0.0001
    CHARGE:  cpu time      0.1964: real time      0.1972
    MIXING:  cpu time      0.0126: real time      0.0126
    --------------------------------------------
      LOOP:  cpu time      1.0697: real time      1.0750

 eigenvalue-minimisations  :    56
 total energy-change (2. order) :-0.1615386E-03  (-0.9622623E-06)
 number of electron      22.0000000 magnetization 
 augmentation part        0.5223483 magnetization 

 Broyden mixing:
  rms(total) = 0.12367E-03    rms(broyden)= 0.12359E-03
  rms(prec ) = 0.23514E-03
  weight for this iteration     100.00

 eigenvalues of (default mixing * dielectric matrix)
  average eigenvalue GAMMA=   2.3630
  8.6416  5.3841  3.5265  2.4106  2.4106  1.7632  1.5200  1.3180  1.3180  1.0127
  1.0127  1.0156  0.8739  0.8739

 Free energy of the ion-electron system (eV)
  ---------------------------------------------------
  alpha Z        PSCENC =         0.62641250
  Ewald energy   TEWEN  =       927.28040403
  -Hartree energ DENC   =     -1454.89987821
  -exchange      EXHF   =         0.00000000
  -V(xc)+E(xc)   XCENC  =        73.85551812
  PAW double counting   =       321.40322907     -326.83416869
  entropy T*S    EENTRO =        -0.00000000
  eigenvalues    EBANDS =      -260.90877532
  atomic energy  EATOM  =       663.51739852
  Solvation  Ediel_sol  =         0.00000000
  ---------------------------------------------------
  free energy    TOTEN  =       -55.95985996 eV

  energy without entropy =      -55.95985996  energy(sigma->0) =      -55.95985996


--------------------------------------------------------------------------------------------------------




--------------------------------------- Iteration      1(  20)  ---------------------------------------


    POTLOK:  cpu time      0.3027: real time      0.3044
    SETDIJ:  cpu time      0.1928: real time      0.1937
     EDDAV:  cpu time      0.4135: real time      0.4158
       DOS:  cpu time      0.0001: real time      0.0001
    CHARGE:  cpu time      0.1974: real time      0.1982
    MIXING:  cpu time      0.0131: real time      0.0131
    --------------------------------------------
      LOOP:  cpu time      1.1196: real time      1.1253

 eigenvalue-minimisations  :    64
 total energy-change (2. order) :-0.7824688E-04  (-0.2665059E-06)
 number of electron      22.0000000 magnetization 
 augmentation part        0.5223487 magnetization 

 Broyden mixing:
  rms(total) = 0.84392E-04    rms(broyden)= 0.84299E-04
  rms(prec ) = 0.12751E-03
  weight for this iteration     100.00

 eigenvalues of (default mixing * dielectric matrix)
  average eigenvalue GAMMA=   2.3713
  8.8611  5.7454  3.8939  2.7147  2.3683  1.9334  1.5751  1.2271  1.2271  1.2814
  1.0067  1.0067  0.9912  0.8683  0.8683

 Free energy of the ion-electron system (eV)
  ---------------------------------------------------
  alpha Z        PSCENC =         0.62641250
  Ewald energy   TEWEN  =       927.28040403
  -Hartree energ DENC   =     -1454.91189269
  -exchange      EXHF   =         0.00000000
  -V(xc)+E(xc)   XCENC  =        73.85571818
  PAW double counting   =       321.40567699     -326.83661162
  entropy T*S    EENTRO =        -0.00000000
  eigenvalues    EBANDS =      -260.89704412
  atomic energy  EATOM  =       663.51739852
  Solvation  Ediel_sol  =         0.00000000
  ---------------------------------------------------
  free energy    TOTEN  =       -55.95993821 eV

  energy without entropy =      -55.95993821  energy(sigma->0) =      -55.95993821


--------------------------------------------------------------------------------------------------------




--------------------------------------- Iteration      1(  21)  ---------------------------------------


    POTLOK:  cpu time      0.3072: real time      0.3088
    SETDIJ:  cpu time      0.1909: real time      0.1916
     EDDAV:  cpu time      0.4076: real time      0.4099
       DOS:  cpu time      0.0001: real time      0.0001
    CHARGE:  cpu time      0.1979: real time      0.1987
    MIXING:  cpu time      0.0151: real time      0.0152
    --------------------------------------------
      LOOP:  cpu time      1.1188: real time      1.1243

 eigenvalue-minimisations  :    64
 total energy-change (2. order) :-0.1716464E-04  (-0.2046413E-07)
 number of electron      22.0000000 magnetization 
 augmentation part        0.5223477 magnetization 

 Broyden mixing:
  rms(total) = 0.43357E-04    rms(broyden)= 0.43199E-04
  rms(prec ) = 0.69514E-04
  weight for this iteration     100.00

 eigenvalues of (default mixing * dielectric matrix)
  average eigenvalue GAMMA=   2.4147
  8.9844  6.0690  4.3441  2.8862  2.3023  2.3023  1.6434  1.6434  1.3389  1.3389
  1.0114  1.0114  1.0340  0.9885  0.8689  0.8689

 Free energy of the ion-electron system (eV)
  ---------------------------------------------------
  alpha Z        PSCENC =         0.62641250
  Ewald energy   TEWEN  =       927.28040403
  -Hartree energ DENC   =     -1454.91060835
  -exchange      EXHF   =         0.00000000
  -V(xc)+E(xc)   XCENC  =        73.85551384
  PAW double counting   =       321.40714940     -326.83813345
  entropy T*S    EENTRO =        -0.00000000
  eigenvalues    EBANDS =      -260.89809188
  atomic energy  EATOM  =       663.51739852
  Solvation  Ediel_sol  =         0.00000000
  ---------------------------------------------------
  free energy    TOTEN  =       -55.95995537 eV

  energy without entropy =      -55.95995537  energy(sigma->0) =      -55.95995537


--------------------------------------------------------------------------------------------------------




--------------------------------------- Iteration      1(  22)  ---------------------------------------


    POTLOK:  cpu time      0.3124: real time      0.3141
    SETDIJ:  cpu time      0.1922: real time      0.1931
     EDDAV:  cpu time      0.4147: real time      0.4169
       DOS:  cpu time      0.0001: real time      0.0001
    CHARGE:  cpu time      0.1970: real time      0.1978
    MIXING:  cpu time      0.0142: real time      0.0143
    --------------------------------------------
      LOOP:  cpu time      1.1307: real time      1.1363

 eigenvalue-minimisations  :    64
 total energy-change (2. order) :-0.1094967E-04  (-0.2073181E-07)
 number of electron      22.0000000 magnetization 
 augmentation part        0.5223468 magnetization 

 Broyden mixing:
  rms(total) = 0.26999E-04    rms(broyden)= 0.26745E-04
  rms(prec ) = 0.39313E-04
  weight for this iteration     100.00

 eigenvalues of (default mixing * dielectric matrix)
  average eigenvalue GAMMA=   2.4366
  9.0659  6.3692  4.7374  3.1528  2.5436  2.1609  2.1609  1.3254  1.3254  1.4118
  1.4118  1.0125  1.0125  1.0303  0.9614  0.8698  0.8698

 Free energy of the ion-electron system (eV)
  ---------------------------------------------------
  alpha Z        PSCENC =         0.62641250
  Ewald energy   TEWEN  =       927.28040403
  -Hartree energ DENC   =     -1454.91394943
  -exchange      EXHF   =         0.00000000
  -V(xc)+E(xc)   XCENC  =        73.85557613
  PAW double counting   =       321.40801852     -326.83900116
  entropy T*S    EENTRO =        -0.00000000
  eigenvalues    EBANDS =      -260.89482543
  atomic energy  EATOM  =       663.51739852
  Solvation  Ediel_sol  =         0.00000000
  ---------------------------------------------------
  free energy    TOTEN  =       -55.95996632 eV

  energy without entropy =      -55.95996632  energy(sigma->0) =      -55.95996632


--------------------------------------------------------------------------------------------------------




--------------------------------------- Iteration      1(  23)  ---------------------------------------


    POTLOK:  cpu time      0.3106: real time      0.3123
    SETDIJ:  cpu time      0.1918: real time      0.1926
     EDDAV:  cpu time      0.3690: real time      0.3710
       DOS:  cpu time      0.0001: real time      0.0001
    CHARGE:  cpu time      0.1975: real time      0.1983
    MIXING:  cpu time      0.0137: real time      0.0137
    --------------------------------------------
      LOOP:  cpu time      1.0828: real time      1.0881

 eigenvalue-minimisations  :    56
 total energy-change (2. order) :-0.3143314E-05  (-0.6058015E-08)
 number of electron      22.0000000 magnetization 
 augmentation part        0.5223469 magnetization 

 Broyden mixing:
  rms(total) = 0.13462E-04    rms(broyden)= 0.12952E-04
  rms(prec ) = 0.19745E-04
  weight for this iteration     100.00

 eigenvalues of (default mixing * dielectric matrix)
  average eigenvalue GAMMA=   2.4379
  9.1042  6.6582  4.9742  3.5396  2.6005  2.4291  1.7974  1.7974  1.3384  1.3384
  1.4139  1.0175  1.0175  1.0680  1.0680  0.9795  0.8701  0.8701

 Free energy of the ion-electron system (eV)
  ---------------------------------------------------
  alpha Z        PSCENC =         0.62641250
  Ewald energy   TEWEN  =       927.28040403
  -Hartree energ DENC   =     -1454.91427735
  -exchange      EXHF   =         0.00000000
  -V(xc)+E(xc)   XCENC  =        73.85559494
  PAW double counting   =       321.40856301     -326.83954601
  entropy T*S    EENTRO =        -0.00000000
  eigenvalues    EBANDS =      -260.89451911
  atomic energy  EATOM  =       663.51739852
  Solvation  Ediel_sol  =         0.00000000
  ---------------------------------------------------
  free energy    TOTEN  =       -55.95996947 eV

  energy without entropy =      -55.95996947  energy(sigma->0) =      -55.95996947


--------------------------------------------------------------------------------------------------------




--------------------------------------- Iteration      1(  24)  ---------------------------------------


    POTLOK:  cpu time      0.3122: real time      0.3139
    SETDIJ:  cpu time      0.1920: real time      0.1929
     EDDAV:  cpu time      0.4103: real time      0.4125
       DOS:  cpu time      0.0001: real time      0.0001
    CHARGE:  cpu time      0.1957: real time      0.1964
    MIXING:  cpu time      0.0140: real time      0.0141
    --------------------------------------------
      LOOP:  cpu time      1.1243: real time      1.1299

 eigenvalue-minimisations  :    64
 total energy-change (2. order) :-0.1277835E-05  (-0.2801388E-08)
 number of electron      22.0000000 magnetization 
 augmentation part        0.5223471 magnetization 

 Broyden mixing:
  rms(total) = 0.67208E-05    rms(broyden)= 0.56365E-05
  rms(prec ) = 0.10832E-04
  weight for this iteration     100.00
  WARNING: grid for Broyden might be to small

 eigenvalues of (default mixing * dielectric matrix)
  average eigenvalue GAMMA=   2.4375
  9.1348  6.8803  5.0960  3.7594  2.6045  2.4803  2.0970  2.0970  1.3542  1.3542
  1.4084  1.3105  1.0138  1.0138  1.0559  0.8708  0.8708  0.9553  0.9553

 Free energy of the ion-electron system (eV)
  ---------------------------------------------------
  alpha Z        PSCENC =         0.62641250
  Ewald energy   TEWEN  =       927.28040403
  -Hartree energ DENC   =     -1454.91359734
  -exchange      EXHF   =         0.00000000
  -V(xc)+E(xc)   XCENC  =        73.85556209
  PAW double counting   =       321.40788837     -326.83886575
  entropy T*S    EENTRO =        -0.00000000
  eigenvalues    EBANDS =      -260.89517317
  atomic energy  EATOM  =       663.51739852
  Solvation  Ediel_sol  =         0.00000000
  ---------------------------------------------------
  free energy    TOTEN  =       -55.95997074 eV

  energy without entropy =      -55.95997074  energy(sigma->0) =      -55.95997074


--------------------------------------------------------------------------------------------------------




--------------------------------------- Iteration      1(  25)  ---------------------------------------


    POTLOK:  cpu time      0.3184: real time      0.3201
    SETDIJ:  cpu time      0.1926: real time      0.1934
     EDDAV:  cpu time      0.3686: real time      0.3707
       DOS:  cpu time      0.0001: real time      0.0001
    --------------------------------------------
      LOOP:  cpu time      0.8798: real time      0.8842

 eigenvalue-minimisations  :    56
 total energy-change (2. order) :-0.7851763E-06  (-0.1301432E-08)
 number of electron      22.0000000 magnetization 
 augmentation part        0.5223471 magnetization 

 Free energy of the ion-electron system (eV)
  ---------------------------------------------------
  alpha Z        PSCENC =         0.62641250
  Ewald energy   TEWEN  =       927.28040403
  -Hartree energ DENC   =     -1454.91394032
  -exchange      EXHF   =         0.00000000
  -V(xc)+E(xc)   XCENC  =        73.85557120
  PAW double counting   =       321.40773557     -326.83871013
  entropy T*S    EENTRO =        -0.00000000
  eigenvalues    EBANDS =      -260.89484291
  atomic energy  EATOM  =       663.51739852
  Solvation  Ediel_sol  =         0.00000000
  ---------------------------------------------------
  free energy    TOTEN  =       -55.95997153 eV

  energy without entropy =      -55.95997153  energy(sigma->0) =      -55.95997153


--------------------------------------------------------------------------------------------------------




 average (electrostatic) potential at core
  the test charge radii are     0.6991  0.5201
  (the norm of the test charge is              1.0000)
       1 -58.3986       2 -58.6490       3 -58.7061       4 -58.4434       5 -41.9001
       6 -42.6400       7 -42.7622       8 -42.5556       9 -42.7828      10 -41.9383
 
 
 
 E-fermi :  -5.1579     XC(G=0):  -0.4300     alpha+bet : -0.1681

 Fermi energy:        -5.1579246453

 k-point     1 :       0.0000    0.0000    0.0000
  band No.  band energies     occupation 
      1     -20.2105      2.00000
      2     -17.5976      2.00000
      3     -15.7130      2.00000
      4     -13.2859      2.00000
      5     -12.2027      2.00000
      6     -10.7158      2.00000
      7      -9.9390      2.00000
      8      -9.1360      2.00000
      9      -8.6486      2.00000
     10      -7.5845      2.00000
     11      -5.4137      2.00000
     12      -2.2791      0.00000
     13      -0.3668      0.00000
     14       0.1409      0.00000
     15       0.2714      0.00000
     16       0.3373      0.00000
     17       0.4707      0.00000
     18       0.4945      0.00000
     19       0.5659      0.00000
     20       0.6783      0.00000
     21       0.9375      0.00000
     22       0.9768      0.00000
     23       1.0284      0.00000
     24       1.1167      0.00000


--------------------------------------------------------------------------------------------------------


 soft charge-density along one line, spin component           1
         0         1         2         3         4         5         6         7         8         9
 total charge-density along one line
 
 pseudopotential strength for first ion, spin component:           1
 10.248   0.019  -0.000  -0.002   0.001  -0.001  -0.002  -0.000
  0.019  -0.001   0.000   0.000  -0.000   0.000  -0.000  -0.000
 -0.000   0.000  -4.344  -0.001   0.012  -0.016  -0.000   0.003
 -0.002   0.000  -0.001  -4.354  -0.000  -0.000  -0.020   0.000
  0.001  -0.000   0.012  -0.000  -4.353   0.003   0.000  -0.019
 -0.001   0.000  -0.016  -0.000   0.003  -0.772  -0.000   0.000
 -0.002  -0.000  -0.000  -0.020   0.000  -0.000  -0.772  -0.000
 -0.000  -0.000   0.003   0.000  -0.019   0.000  -0.000  -0.772
 total augmentation occupancy for first ion, spin component:           1
  1.509  -1.149   0.008   0.043  -0.012   0.014   0.015  -0.009
 -1.149   0.971  -0.074  -0.051   0.038  -0.031  -0.023   0.026
  0.008  -0.074   1.001   0.014  -0.181   0.134   0.005  -0.069
  0.043  -0.051   0.014   1.223  -0.005   0.005   0.205  -0.003
 -0.012   0.038  -0.181  -0.005   1.190  -0.069  -0.003   0.189
  0.014  -0.031   0.134   0.005  -0.069   0.021   0.002  -0.017
  0.015  -0.023   0.005   0.205  -0.003   0.002   0.036  -0.002
 -0.009   0.026  -0.069  -0.003   0.189  -0.017  -0.002   0.034


------------------------ aborting loop because EDIFF is reached ----------------------------------------


    CHARGE:  cpu time      0.1964: real time      0.1972
    FORLOC:  cpu time      0.0322: real time      0.0323
    FORNL :  cpu time      1.0716: real time      1.0766
    STRESS:  cpu time      3.4076: real time      3.4239
    FORHAR:  cpu time      0.1109: real time      0.1114
    MIXING:  cpu time      0.0124: real time      0.0124
    OFIELD:  cpu time      0.0001: real time      0.0001

  FORCE on cell =-STRESS in cart. coord.  units (eV):
  Direction    XX          YY          ZZ          XY          YZ          ZX
  --------------------------------------------------------------------------------------
  Alpha Z     0.62641     0.62641     0.62641
  Ewald      95.88574   145.17573   686.21859  -282.63976   -45.96476   -92.54754
  Hartree   352.63200   374.72628   727.55615  -130.41781   -33.79080   -66.70158
  E(xc)     -78.02682   -77.84622   -76.75082    -0.96642    -0.08465    -0.09375
  Local    -653.55197  -721.50401 -1598.41855   391.85263    80.93142   159.31697
  n-local   -31.87240   -32.22288   -33.36052     1.88022    -0.47802     0.20458
  augment    -0.66342    -0.68132    -0.74744     0.13834    -0.01500    -0.01087
  Kinetic   318.95725   314.45325   301.29532    16.79552     3.94103    -1.99777
  Fock        0.00000     0.00000     0.00000     0.00000     0.00000     0.00000
  -------------------------------------------------------------------------------------
  Total       3.98679     2.72725     6.41913    -3.35728     4.53921    -1.82995
  in kB       1.89261     1.29468     3.04729    -1.59377     2.15485    -0.86871
  external pressure =        2.08 kB  Pullay stress =        0.00 kB


 VOLUME and BASIS-vectors are now :
 -----------------------------------------------------------------------------
  energy-cutoff  :      520.00
  volume of cell :     3375.00
      direct lattice vectors                 reciprocal lattice vectors
    15.000000000  0.000000000  0.000000000     0.066666667  0.000000000  0.000000000
     0.000000000 15.000000000  0.000000000     0.000000000  0.066666667  0.000000000
     0.000000000  0.000000000 15.000000000     0.000000000  0.000000000  0.066666667

  length of vectors
    15.000000000 15.000000000 15.000000000     0.066666667  0.066666667  0.066666667


 FORCES acting on ions
    electron-ion (+dipol)            ewald-force                    non-local-force                 convergence-correction
 -----------------------------------------------------------------------------------------------
   -.905E+02 0.665E+02 0.102E+03   0.896E+02 -.665E+02 -.104E+03   -.769E+00 0.162E+01 -.101E+01   -.152E-04 0.777E-05 0.447E-04
   0.634E+02 -.699E+02 0.804E+02   -.620E+02 0.691E+02 -.823E+02   0.872E+00 -.162E+01 0.798E+00   -.480E-04 0.277E-04 0.557E-04
   0.474E+02 -.720E+02 -.639E+02   -.462E+02 0.695E+02 0.675E+02   0.154E+00 -.145E+01 0.139E+01   0.122E-05 0.342E-04 -.375E-04
   -.124E+02 0.657E+02 -.115E+03   0.105E+02 -.629E+02 0.114E+03   -.468E+00 0.257E+01 -.714E+00   0.119E-04 0.795E-05 -.592E-04
   -.125E+02 0.689E+01 0.678E+02   0.130E+02 -.726E+01 -.740E+02   -.341E+00 0.237E-01 0.584E+01   -.962E-06 -.663E-07 -.166E-04
   -.584E+02 0.335E+02 -.146E+02   0.652E+02 -.376E+02 0.197E+02   -.498E+01 0.293E+01 -.373E+01   0.112E-04 -.768E-05 0.174E-04
   0.522E+02 -.322E+02 0.459E+02   -.587E+02 0.362E+02 -.514E+02   0.484E+01 -.263E+01 0.400E+01   -.732E-05 0.319E-05 0.322E-05
   0.349E+02 -.607E+02 -.305E+02   -.395E+02 0.685E+02 0.344E+02   0.312E+01 -.556E+01 -.262E+01   0.327E-05 -.482E-07 -.926E-05
   -.308E+02 0.612E+02 -.478E+01   0.359E+02 -.704E+02 0.182E+01   -.356E+01 0.605E+01 0.174E+01   0.697E-05 -.815E-05 -.107E-04
   0.686E+01 -.287E+00 -.674E+02   -.785E+01 0.132E+01 0.735E+02   0.858E+00 -.678E+00 -.579E+01   -.779E-06 0.256E-05 0.880E-05
 -----------------------------------------------------------------------------------------------
   0.271E+00 -.127E+01 0.938E-01   0.142E-13 -.104E-13 -.426E-13   -.278E+00 0.125E+01 -.914E-01   -.377E-04 0.674E-04 -.346E-05
 
 
 POSITION                                       TOTAL-FORCE (eV/Angst)
 -----------------------------------------------------------------------------------
      8.12900      7.23900      6.14300        -1.702742      1.608424     -2.286396
      7.15400      7.98900      6.68700         2.350465     -2.375621     -1.033341
      7.03100      8.04400      8.05100         1.320366     -3.979178      5.017550
      7.43300      7.04700      9.00800        -2.371519      5.394110     -1.568619
      8.19900      7.21900      5.06400         0.166632     -0.345031     -0.348550
      8.86800      6.80000      6.70000         1.869546     -1.109098      1.396871
      6.42700      8.40400      6.09100        -1.611867      1.374979     -1.506774
      6.56100      8.86800      8.43400        -1.439222      2.193162      1.288166
      7.92300      6.20700      8.75600         1.550941     -3.122548     -1.218517
      7.27500      7.18200     10.06800        -0.132601      0.360801      0.259609
 -----------------------------------------------------------------------------------
    total drift:                               -0.006616     -0.013740      0.002337


--------------------------------------------------------------------------------------------------------



  FREE ENERGIE OF THE ION-ELECTRON SYSTEM (eV)
  ---------------------------------------------------
  free  energy   TOTEN  =       -55.95997153 eV

  energy  without entropy=      -55.95997153  energy(sigma->0) =      -55.95997153
 


--------------------------------------------------------------------------------------------------------


    POTLOK:  cpu time      0.5084: real time      0.5109


--------------------------------------------------------------------------------------------------------


 stress matrix after NEB project (eV)
      3.98679     -3.35728     -1.82995
     -3.35728      2.72725      4.53921
     -1.82995      4.53921      6.41913
  FORCES: max atom, RMS     6.538580    3.728061
  FORCE total and by dimension   11.789164    5.394110
  Stress total and by dimension   11.618379    6.419133
     LOOP+:  cpu time     30.5630: real time     30.7159
    4ORBIT:  cpu time      0.0000: real time      0.0000

 total amount of memory used by VASP MPI-rank0   224780. kBytes
=======================================================================

   base      :      30000. kBytes
   nonlr-proj:       1256. kBytes
   fftplans  :     123538. kBytes
   grid      :      67787. kBytes
   one-center:         15. kBytes
   wavefun   :       2184. kBytes
 
  
  
 General timing and accounting informations for this job:
 ========================================================
  
                  Total CPU time used (sec):       37.171
                            User time (sec):       33.987
                          System time (sec):        3.183
                         Elapsed time (sec):       38.735
  
                   Maximum memory used (kb):      557308.
                   Average memory used (kb):          N/A
  
                          Minor page faults:       193145
                          Major page faults:         5448
                 Voluntary context switches:         3095
