 vasp.6.4.2 20Jul23 (build Apr 10 2024 13:39:58) complex                        
  
 executed on             LinuxIFC date 2024.05.17  22:23:40
 running   16 mpi-ranks, on    1 nodes
 distrk:  each k-point on   16 cores,    1 groups
 distr:  one band on NCORE=   2 cores,    8 groups


--------------------------------------------------------------------------------------------------------


 INCAR:
   ISTART = 0
   ISPIN = 1
   LREAL = Auto
   ENCUT = 520
   NPAR = 8
   LPLANE = .TRUE.
   LSCALU = .FALSE.
   NSIM = 4
   LWAVE = .FALSE.
   LCHARG = .FALSE.
   ADDGRID = .TRUE.
   LASPH = .TRUE.
   PREC = Accurate
   ISMEAR = 0
   SIGMA = 0.05
   EDIFF = 1E-06
   NSW = 0
   TEBEG = 300
   TEEND = 700     	
   ISYM = 0
   NWRITE = 2

 POTCAR:   PAW_PBE C 08Apr2002                    
 POTCAR:   PAW_PBE H 15Jun2001                    
 POTCAR:   PAW_PBE C 08Apr2002                    
   VRHFIN =C: s2p2                                                                                  
   LEXCH  = PE                                                                                      
   EATOM  =   147.1560 eV,   10.8157 Ry                                                             
                                                                                                    
   TITEL  = PAW_PBE C 08Apr2002                                                                     
   LULTRA =        F    use ultrasoft PP ?                                                          
   IUNSCR =        0    unscreen: 0-lin 1-nonlin 2-no                                               
   RPACOR =     .000    partial core radius                                                         
   POMASS =   12.011; ZVAL   =    4.000    mass and valenz                                          
   RCORE  =    1.500    outmost cutoff radius                                                       
   RWIGS  =    1.630; RWIGS  =     .863    wigner-seitz radius (au A)                               
   ENMAX  =  400.000; ENMIN  =  300.000 eV                                                          
   ICORE  =        2    local potential                                                             
   LCOR   =        T    correct aug charges                                                         
   LPAW   =        T    paw PP                                                                      
   EAUG   =  644.873                                                                                
   DEXC   =     .000                                                                                
   RMAX   =    2.266    core radius for proj-oper                                                   
   RAUG   =    1.300    factor for augmentation sphere                                              
   RDEP   =    1.501    radius for radial grids                                                     
   RDEPT  =    1.300    core radius for aug-charge                                                  
   QCUT   =   -5.516; QGAM   =   11.032    optimization parameters                                  
                                                                                                    
   Description                                                                                      
     l     E      TYP  RCUT    TYP  RCUT                                                            
     0   .000     23  1.200                                                                         
     0   .000     23  1.200                                                                         
     1   .000     23  1.500                                                                         
     1  2.500     23  1.500                                                                         
     2   .000      7  1.500                                                                         
  local pseudopotential read in
  atomic valenz-charges read in
  non local Contribution for L=           0  read in
    real space projection operators read in
  non local Contribution for L=           0  read in
    real space projection operators read in
  non local Contribution for L=           1  read in
    real space projection operators read in
  non local Contribution for L=           1  read in
    real space projection operators read in
    PAW grid and wavefunctions read in
 
   number of l-projection  operators is LMAX  =           4
   number of lm-projection operators is LMMAX =           8
 
 POTCAR:   PAW_PBE H 15Jun2001                    
   VRHFIN =H: ultrasoft test                                                                        
   LEXCH  = PE                                                                                      
   EATOM  =    12.4884 eV,     .9179 Ry                                                             
                                                                                                    
   TITEL  = PAW_PBE H 15Jun2001                                                                     
   LULTRA =        F    use ultrasoft PP ?                                                          
   IUNSCR =        0    unscreen: 0-lin 1-nonlin 2-no                                               
   RPACOR =     .000    partial core radius                                                         
   POMASS =    1.000; ZVAL   =    1.000    mass and valenz                                          
   RCORE  =    1.100    outmost cutoff radius                                                       
   RWIGS  =     .700; RWIGS  =     .370    wigner-seitz radius (au A)                               
   ENMAX  =  250.000; ENMIN  =  200.000 eV                                                          
   RCLOC  =     .701    cutoff for local pot                                                        
   LCOR   =        T    correct aug charges                                                         
   LPAW   =        T    paw PP                                                                      
   EAUG   =  400.000                                                                                
   RMAX   =    2.174    core radius for proj-oper                                                   
   RAUG   =    1.200    factor for augmentation sphere                                              
   RDEP   =    1.112    radius for radial grids                                                     
   QCUT   =   -5.749; QGAM   =   11.498    optimization parameters                                  
                                                                                                    
   Description                                                                                      
     l     E      TYP  RCUT    TYP  RCUT                                                            
     0   .000     23  1.100                                                                         
     0   .500     23  1.100                                                                         
     1  -.300     23  1.100                                                                         
  local pseudopotential read in
  atomic valenz-charges read in
  non local Contribution for L=           0  read in
    real space projection operators read in
  non local Contribution for L=           0  read in
    real space projection operators read in
  non local Contribution for L=           1  read in
    real space projection operators read in
    PAW grid and wavefunctions read in
 
   number of l-projection  operators is LMAX  =           3
   number of lm-projection operators is LMMAX =           5
 
 Optimization of the real space projectors (new method)

 maximal supplied QI-value         = 25.13
 optimisation between [QCUT,QGAM] = [ 11.56, 23.12] = [ 37.43,149.72] Ry 
 Optimized for a Real-space Cutoff    1.04 Angstroem

   l    n(q)    QCUT    max X(q) W(low)/X(q) W(high)/X(q)  e(spline) 
   0      7    11.561     5.582    0.47E-04    0.94E-04    0.17E-07
   0      7    11.561    69.432    0.20E-03    0.59E-03    0.21E-06
   1      7    11.561     2.780    0.24E-04    0.70E-04    0.44E-07
   1      7    11.561     4.549    0.18E-03    0.25E-03    0.12E-06
 Optimization of the real space projectors (new method)

 maximal supplied QI-value         = 34.20
 optimisation between [QCUT,QGAM] = [ 11.63, 23.26] = [ 37.87,151.49] Ry 
 Optimized for a Real-space Cutoff    1.21 Angstroem

   l    n(q)    QCUT    max X(q) W(low)/X(q) W(high)/X(q)  e(spline) 
   0      8    11.629     4.436    0.19E-04    0.32E-04    0.47E-07
   0      8    11.629    16.131    0.16E-03    0.33E-03    0.21E-06
   1      8    11.629     4.654    0.18E-03    0.16E-03    0.26E-06
 PAW_PBE C 08Apr2002                    :
 energy of atom  1       EATOM= -147.1560
 kinetic energy error for atom=    0.0071 (will be added to EATOM!!)
 PAW_PBE H 15Jun2001                    :
 energy of atom  2       EATOM=  -12.4884
 kinetic energy error for atom=    0.0014 (will be added to EATOM!!)
 
 
 POSCAR:  C  H
  positions in cartesian coordinates
  No initial velocities read in
 exchange correlation table for  LEXCH =        8
   RHO(1)=    0.500       N(1)  =     2000
   RHO(2)=  100.500       N(2)  =     4000

 VTST: version 4.1, (05/19/21)

 CHAIN: initializing optimizer
 
 OPT: Using VASP Dynamics algorithm
 CHAIN: Read ICHAIN            0
 
 POSCAR:  C  H
  positions in cartesian coordinates
  No initial velocities read in
 


--------------------------------------------------------------------------------------------------------


 ion  position               nearest neighbor table
   1  0.532  0.534  0.399-   6 1.10   5 1.12   2 1.38
   2  0.492  0.468  0.449-   7 1.07   1 1.38   3 1.42
   3  0.480  0.461  0.543-   8 1.04   4 1.36   2 1.42
   4  0.482  0.524  0.608-   9 1.09  10 1.12   3 1.36
   5  0.539  0.523  0.325-   1 1.12
   6  0.561  0.595  0.426-   1 1.10
   7  0.473  0.411  0.410-   2 1.07
   8  0.467  0.395  0.562-   3 1.04
   9  0.502  0.593  0.601-   4 1.09
  10  0.472  0.496  0.677-   4 1.12
 

IMPORTANT INFORMATION: All symmetrisations will be switched off!
NOSYMM: (Re-)initialisation of all symmetry stuff for point group C_1.


----------------------------------------------------------------------------------------

                                     Primitive cell                                     

  volume of cell :    3375.0000

  direct lattice vectors                    reciprocal lattice vectors
    15.000000000  0.000000000  0.000000000     0.066666667  0.000000000  0.000000000
     0.000000000 15.000000000  0.000000000     0.000000000  0.066666667  0.000000000
     0.000000000  0.000000000 15.000000000     0.000000000  0.000000000  0.066666667

  length of vectors
    15.000000000 15.000000000 15.000000000     0.066666667  0.066666667  0.066666667

  position of ions in fractional coordinates (direct lattice)
     0.532466666  0.533666674  0.399000009
     0.491666667  0.467733320  0.448866653
     0.479533323  0.461066659  0.542599996
     0.482133325  0.523666668  0.608133316
     0.539399974  0.522800001  0.325400003
     0.560666656  0.595466677  0.426333332
     0.473399989  0.410933336  0.409799989
     0.467133331  0.395400016  0.561866697
     0.502066676  0.593066661  0.600933329
     0.471533330  0.496199989  0.677066676

  ion indices of the primitive-cell ions
   primitive index   ion index
                 1           1
                 2           2
                 3           3
                 4           4
                 5           5
                 6           6
                 7           7
                 8           8
                 9           9
                10          10

----------------------------------------------------------------------------------------

 
 
 KPOINTS: K-Spacing Value to Generate K-Mesh: 1.00

Automatic generation of k-mesh.
 Grid dimensions read from file:
 generate k-points for:    1    1    1

 Generating k-lattice:

  Cartesian coordinates                     Fractional coordinates (reciprocal lattice)
     0.066666667  0.000000000  0.000000000     1.000000000  0.000000000  0.000000000
     0.000000000  0.066666667  0.000000000     0.000000000  1.000000000  0.000000000
     0.000000000  0.000000000  0.066666667     0.000000000  0.000000000  1.000000000

  Length of vectors
     0.066666667  0.066666667  0.066666667

  Shift w.r.t. Gamma in fractional coordinates (k-lattice)
     0.000000000  0.000000000  0.000000000

 
 Subroutine IBZKPT returns following result:
 ===========================================
 
 Found      1 irreducible k-points:
 
 Following reciprocal coordinates:
            Coordinates               Weight
  0.000000  0.000000  0.000000      1.000000
 
 Following cartesian coordinates:
            Coordinates               Weight
  0.000000  0.000000  0.000000      1.000000
 


--------------------------------------------------------------------------------------------------------




 Dimension of arrays:
   k-points           NKPTS =      1   k-points in BZ     NKDIM =      1   number of bands    NBANDS=     24
   number of dos      NEDOS =    301   number of ions     NIONS =     10
   non local maximal  LDIM  =      4   non local SUM 2l+1 LMDIM =      8
   total plane-waves  NPLWV = ******
   max r-space proj   IRMAX =   3145   max aug-charges    IRDMAX=  39494
   dimension x,y,z NGX =   112 NGY =  112 NGZ =  112
   dimension x,y,z NGXF=   224 NGYF=  224 NGZF=  224
   support grid    NGXF=   448 NGYF=  448 NGZF=  448
   ions per type =               4   6
   NGX,Y,Z   is equivalent  to a cutoff of  12.41, 12.41, 12.41 a.u.
   NGXF,Y,Z  is equivalent  to a cutoff of  24.83, 24.83, 24.83 a.u.

 SYSTEM =  unknown system                          
 POSCAR =   C  H                                   

 Startparameter for this run:
   NWRITE =      2    write-flag & timer
   PREC   = accura    normal or accurate (medium, high low for compatibility)
   ISTART =      0    job   : 0-new  1-cont  2-samecut
   ICHARG =      2    charge: 1-file 2-atom 10-const
   ISPIN  =      1    spin polarized calculation?
   LNONCOLLINEAR =      F non collinear calculations
   LSORBIT =      F    spin-orbit coupling
   INIWAV =      1    electr: 0-lowe 1-rand  2-diag
   LASPH  =      T    aspherical Exc in radial PAW
 Electronic Relaxation 1
   ENCUT  =  520.0 eV  38.22 Ry    6.18 a.u.  27.89 27.89 27.89*2*pi/ulx,y,z
   ENINI  =  520.0     initial cutoff
   ENAUG  =  644.9 eV  augmentation charge cutoff
   NELM   =     60;   NELMIN=  2; NELMDL= -5     # of ELM steps 
   EDIFF  = 0.1E-05   stopping-criterion for ELM
   LREAL  =      T    real-space projection
   NLSPLINE    = F    spline interpolate recip. space projectors
   LCOMPAT=      F    compatible to vasp.4.4
   GGA_COMPAT  = T    GGA compatible to vasp.4.4-vasp.4.6
   LMAXPAW     = -100 max onsite density
   LMAXMIX     =    2 max onsite mixed and CHGCAR
   VOSKOWN=      0    Vosko Wilk Nusair interpolation
   ROPT   =   -0.00025  -0.00025
 Ionic relaxation
   EDIFFG = 0.1E-04   stopping-criterion for IOM
   NSW    =      0    number of steps for IOM
   NBLOCK =      1;   KBLOCK =      1    inner block; outer block 
   IBRION =     -1    ionic relax: 0-MD 1-quasi-New 2-CG
   NFREE  =      0    steps in history (QN), initial steepest desc. (CG)
   ISIF   =      2    stress and relaxation
   IWAVPR =     10    prediction:  0-non 1-charg 2-wave 3-comb
   ISYM   =      0    0-nonsym 1-usesym 2-fastsym
   LCORR  =      T    Harris-Foulkes like correction to forces

   POTIM  = 0.5000    time-step for ionic-motion
   TEIN   =    0.0    initial temperature
   TEBEG  =  300.0;   TEEND  = 700.0 temperature during run
   SMASS  =  -3.00    Nose mass-parameter (am)
   estimated Nose-frequenzy (Omega)   =  0.10E-29 period in steps = 0.13E+47 mass=  -0.514E-26a.u.
   SCALEE = 1.0000    scale energy and forces
   NPACO  =    256;   APACO  = 10.0  distance and # of slots for P.C.
   PSTRESS=    0.0 pullay stress

  Mass of Ions in am
   POMASS =  12.01  1.00
  Ionic Valenz
   ZVAL   =   4.00  1.00
  Atomic Wigner-Seitz radii
   RWIGS  =  -1.00 -1.00
  virtual crystal weights 
   VCA    =   1.00  1.00
   NELECT =      22.0000    total number of electrons
   NUPDOWN=      -1.0000    fix difference up-down

 DOS related values:
   EMIN   =  10.00;   EMAX   =-10.00  energy-range for DOS
   EFERMI =   0.00;   METHOD = LEGACY      
   ISMEAR =     0;   SIGMA  =   0.05  broadening in eV -4-tet -1-fermi 0-gaus

 Electronic relaxation 2 (details)
   IALGO  =     38    algorithm
   LDIAG  =      T    sub-space diagonalisation (order eigenvalues)
   LSUBROT=      F    optimize rotation matrix (better conditioning)
   TURBO    =      0    0=normal 1=particle mesh
   IRESTART =      0    0=no restart 2=restart with 2 vectors
   NREBOOT  =      0    no. of reboots
   NMIN     =      0    reboot dimension
   EREF     =   0.00    reference energy to select bands
   IMIX   =      4    mixing-type and parameters
     AMIX     =   0.40;   BMIX     =  1.00
     AMIX_MAG =   1.60;   BMIX_MAG =  1.00
     AMIN     =   0.10
     WC   =   100.;   INIMIX=   1;  MIXPRE=   1;  MAXMIX= -45

 Intra band minimization:
   WEIMIN = 0.0000     energy-eigenvalue tresh-hold
   EBREAK =  0.10E-07  absolut break condition
   DEPER  =   0.30     relativ break condition  

   TIME   =   0.40     timestep for ELM

  volume/ion in A,a.u.               =     337.50      2277.56
  Fermi-wavevector in a.u.,A,eV,Ry     =   0.305814  0.577905  1.272449  0.093522
  Thomas-Fermi vector in A             =   1.179187
 
 Write flags
   LWAVE        =      F    write WAVECAR
   LDOWNSAMPLE  =      F    k-point downsampling of WAVECAR
   LCHARG       =      F    write CHGCAR
   LVTOT        =      F    write LOCPOT, total local potential
   LVHAR        =      F    write LOCPOT, Hartree potential only
   LELF         =      F    write electronic localiz. function (ELF)
   LORBIT       =      0    0 simple, 1 ext, 2 COOP (PROOUT), +10 PAW based schemes


 Dipole corrections
   LMONO  =      F    monopole corrections only (constant potential shift)
   LDIPOL =      F    correct potential (dipole corrections)
   IDIPOL =      0    1-x, 2-y, 3-z, 4-all directions 
   EPSILON=  1.0000000 bulk dielectric constant

 Exchange correlation treatment:
   GGA     =    --    GGA type
   LEXCH   =     8    internal setting for exchange type
   LIBXC   =     F    Libxc                    
   VOSKOWN =     0    Vosko Wilk Nusair interpolation
   LHFCALC =     F    Hartree Fock is set to
   LHFONE  =     F    Hartree Fock one center treatment
   AEXX    =    0.0000 exact exchange contribution

 Linear response parameters
   LEPSILON=     F    determine dielectric tensor
   LRPA    =     F    only Hartree local field effects (RPA)
   LNABLA  =     F    use nabla operator in PAW spheres
   LVEL    =     F    velocity operator in full k-point grid
   CSHIFT  =0.1000    complex shift for real part using Kramers Kronig
   OMEGAMAX=  -1.0    maximum frequency
   DEG_THRESHOLD= 0.2000000E-02 threshold for treating states as degnerate
   RTIME   =   -0.100 relaxation time in fs
  (WPLASMAI=    0.000 imaginary part of plasma frequency in eV, 0.658/RTIME)
   DFIELD  = 0.0000000 0.0000000 0.0000000 field for delta impulse in time
 
  Optional k-point grid parameters
   LKPOINTS_OPT  =     F    use optional k-point grid
   KPOINTS_OPT_MODE=     1    mode for optional k-point grid
 
 Orbital magnetization related:
   ORBITALMAG=     F  switch on orbital magnetization
   LCHIMAG   =     F  perturbation theory with respect to B field
   DQ        =  0.001000  dq finite difference perturbation B field
   LLRAUG    =     F  two centre corrections for induced B field
   LBONE     =     F  B-component reconstruction in AE one-centre
   LVGVCALC  =     T  calculate vGv susceptibility
   LVGVAPPL  =     F  apply vGv susceptibility instead of pGv for G=0

 Random number generation:
   RANDOM_GENERATOR = DEFAULT
   PCG_SEED         = not used


--------------------------------------------------------------------------------------------------------


 Static calculation
 charge density and potential will be updated during run
 non-spin polarized calculation
 Variant of blocked Davidson
 Davidson routine will perform the subspace rotation
 perform sub-space diagonalisation
    after iterative eigenvector-optimisation
 modified Broyden-mixing scheme, WC =      100.0
 initial mixing is a Kerker type mixing with AMIX =  0.4000 and BMIX =      1.0000
 Hartree-type preconditioning will be used
 using additional bands           13
 real space projection scheme for non local part
 calculate Harris-corrections to forces 
   (improved forces if not selfconsistent)
 use gradient corrections 
 use of overlap-Matrix (Vanderbilt PP)
 Gauss-broadening in eV      SIGMA  =   0.05


--------------------------------------------------------------------------------------------------------


  energy-cutoff  :      520.00
  volume of cell :     3375.00
      direct lattice vectors                 reciprocal lattice vectors
    15.000000000  0.000000000  0.000000000     0.066666667  0.000000000  0.000000000
     0.000000000 15.000000000  0.000000000     0.000000000  0.066666667  0.000000000
     0.000000000  0.000000000 15.000000000     0.000000000  0.000000000  0.066666667

  length of vectors
    15.000000000 15.000000000 15.000000000     0.066666667  0.066666667  0.066666667


 
 k-points in units of 2pi/SCALE and weight: K-Spacing Value to Generate K-Mesh: 1.00
   0.00000000  0.00000000  0.00000000       1.000
 
 k-points in reciprocal lattice and weights: K-Spacing Value to Generate K-Mesh: 1.00
   0.00000000  0.00000000  0.00000000       1.000
 
 position of ions in fractional coordinates (direct lattice) 
   0.53246667  0.53366667  0.39900001
   0.49166667  0.46773332  0.44886665
   0.47953332  0.46106666  0.54260000
   0.48213332  0.52366667  0.60813332
   0.53939997  0.52280000  0.32540000
   0.56066666  0.59546668  0.42633333
   0.47339999  0.41093334  0.40979999
   0.46713333  0.39540002  0.56186670
   0.50206668  0.59306666  0.60093333
   0.47153333  0.49619999  0.67706668
 
 position of ions in cartesian coordinates  (Angst):
   7.98699999  8.00500011  5.98500013
   7.37500000  7.01599979  6.73299980
   7.19299984  6.91599989  8.13899994
   7.23199987  7.85500002  9.12199974
   8.09099960  7.84200001  4.88100004
   8.40999985  8.93200016  6.39499998
   7.10099983  6.16400003  6.14699984
   7.00699997  5.93100023  8.42800045
   7.53100014  8.89599991  9.01399994
   7.07299995  7.44299984 10.15600014
 


--------------------------------------------------------------------------------------------------------


 k-point   1 :   0.0000 0.0000 0.0000  plane waves:   90879

 maximum and minimum number of plane-waves per node :     45467    45412

 maximum number of plane-waves:     90879
 maximum index in each direction: 
   IXMAX=   27   IYMAX=   27   IZMAX=   27
   IXMIN=  -27   IYMIN=  -27   IZMIN=  -27


 real space projection operators:
  total allocation   :       1185.70 KBytes
  max/ min on nodes  :        593.85        591.84


 parallel 3D FFT for wavefunctions:
    minimum data exchange during FFTs selected (reduces bandwidth)
 parallel 3D FFT for charge:
    minimum data exchange during FFTs selected (reduces bandwidth)


 total amount of memory used by VASP MPI-rank0   224783. kBytes
=======================================================================

   base      :      30000. kBytes
   nonlr-proj:       1259. kBytes
   fftplans  :     123538. kBytes
   grid      :      67787. kBytes
   one-center:         15. kBytes
   wavefun   :       2184. kBytes
 
     INWAV:  cpu time      0.0000: real time      0.0000
 Broyden mixing: mesh for mixing (old mesh)
   NGX = 55   NGY = 55   NGZ = 55
  (NGX  =224   NGY  =224   NGZ  =224)
  gives a total of 166375 points

 initial charge density was supplied:
 charge density of overlapping atoms calculated
 number of electron      22.0000000 magnetization 
 keeping initial charge density in first step


--------------------------------------------------------------------------------------------------------


 Maximum index for non-local projection operator         1515
 Maximum index for augmentation-charges         2476 (set IRDMAX)


--------------------------------------------------------------------------------------------------------


 First call to EWALD:  gamma=   0.118
 Maximum number of real-space cells 3x 3x 3
 Maximum number of reciprocal cells 3x 3x 3

    FEWALD:  cpu time      0.0010: real time      0.0010


--------------------------------------- Ionic step        1  -------------------------------------------




--------------------------------------- Iteration      1(   1)  ---------------------------------------


    POTLOK:  cpu time      0.3353: real time      0.3372
    SETDIJ:  cpu time      0.1944: real time      0.1952
     EDDAV:  cpu time      0.4234: real time      0.4257
       DOS:  cpu time      0.0002: real time      0.0002
    --------------------------------------------
      LOOP:  cpu time      0.9534: real time      0.9584

 eigenvalue-minimisations  :    64
 total energy-change (2. order) : 0.1052238E+03  (-0.5289028E+03)
 number of electron      22.0000000 magnetization 
 augmentation part       22.0000000 magnetization 

 Free energy of the ion-electron system (eV)
  ---------------------------------------------------
  alpha Z        PSCENC =         0.62641250
  Ewald energy   TEWEN  =       880.20538591
  -Hartree energ DENC   =     -1303.80083036
  -exchange      EXHF   =         0.00000000
  -V(xc)+E(xc)   XCENC  =        67.25137521
  PAW double counting   =       156.01372664     -160.66969168
  entropy T*S    EENTRO =        -0.00050933
  eigenvalues    EBANDS =      -197.91950698
  atomic energy  EATOM  =       663.51739852
  Solvation  Ediel_sol  =         0.00000000
  ---------------------------------------------------
  free energy    TOTEN  =       105.22376044 eV

  energy without entropy =      105.22426976  energy(sigma->0) =      105.22401510


--------------------------------------------------------------------------------------------------------




--------------------------------------- Iteration      1(   2)  ---------------------------------------


     EDDAV:  cpu time      0.4890: real time      0.4918
       DOS:  cpu time      0.0001: real time      0.0001
    --------------------------------------------
      LOOP:  cpu time      0.4891: real time      0.4919

 eigenvalue-minimisations  :    80
 total energy-change (2. order) :-0.1264219E+03  (-0.1230094E+03)
 number of electron      22.0000000 magnetization 
 augmentation part       22.0000000 magnetization 

 Free energy of the ion-electron system (eV)
  ---------------------------------------------------
  alpha Z        PSCENC =         0.62641250
  Ewald energy   TEWEN  =       880.20538591
  -Hartree energ DENC   =     -1303.80083036
  -exchange      EXHF   =         0.00000000
  -V(xc)+E(xc)   XCENC  =        67.25137521
  PAW double counting   =       156.01372664     -160.66969168
  entropy T*S    EENTRO =        -0.00000000
  eigenvalues    EBANDS =      -324.34196161
  atomic energy  EATOM  =       663.51739852
  Solvation  Ediel_sol  =         0.00000000
  ---------------------------------------------------
  free energy    TOTEN  =       -21.19818487 eV

  energy without entropy =      -21.19818487  energy(sigma->0) =      -21.19818487


--------------------------------------------------------------------------------------------------------




--------------------------------------- Iteration      1(   3)  ---------------------------------------


     EDDAV:  cpu time      0.4455: real time      0.4479
       DOS:  cpu time      0.0001: real time      0.0001
    --------------------------------------------
      LOOP:  cpu time      0.4456: real time      0.4480

 eigenvalue-minimisations  :    72
 total energy-change (2. order) :-0.3998261E+02  (-0.3990943E+02)
 number of electron      22.0000000 magnetization 
 augmentation part       22.0000000 magnetization 

 Free energy of the ion-electron system (eV)
  ---------------------------------------------------
  alpha Z        PSCENC =         0.62641250
  Ewald energy   TEWEN  =       880.20538591
  -Hartree energ DENC   =     -1303.80083036
  -exchange      EXHF   =         0.00000000
  -V(xc)+E(xc)   XCENC  =        67.25137521
  PAW double counting   =       156.01372664     -160.66969168
  entropy T*S    EENTRO =        -0.00000000
  eigenvalues    EBANDS =      -364.32457495
  atomic energy  EATOM  =       663.51739852
  Solvation  Ediel_sol  =         0.00000000
  ---------------------------------------------------
  free energy    TOTEN  =       -61.18079820 eV

  energy without entropy =      -61.18079820  energy(sigma->0) =      -61.18079820


--------------------------------------------------------------------------------------------------------




--------------------------------------- Iteration      1(   4)  ---------------------------------------


     EDDAV:  cpu time      0.4050: real time      0.4073
       DOS:  cpu time      0.0001: real time      0.0001
    --------------------------------------------
      LOOP:  cpu time      0.4051: real time      0.4074

 eigenvalue-minimisations  :    64
 total energy-change (2. order) :-0.1978591E+01  (-0.1975199E+01)
 number of electron      22.0000000 magnetization 
 augmentation part       22.0000000 magnetization 

 Free energy of the ion-electron system (eV)
  ---------------------------------------------------
  alpha Z        PSCENC =         0.62641250
  Ewald energy   TEWEN  =       880.20538591
  -Hartree energ DENC   =     -1303.80083036
  -exchange      EXHF   =         0.00000000
  -V(xc)+E(xc)   XCENC  =        67.25137521
  PAW double counting   =       156.01372664     -160.66969168
  entropy T*S    EENTRO =        -0.00000000
  eigenvalues    EBANDS =      -366.30316642
  atomic energy  EATOM  =       663.51739852
  Solvation  Ediel_sol  =         0.00000000
  ---------------------------------------------------
  free energy    TOTEN  =       -63.15938967 eV

  energy without entropy =      -63.15938967  energy(sigma->0) =      -63.15938967


--------------------------------------------------------------------------------------------------------




--------------------------------------- Iteration      1(   5)  ---------------------------------------


     EDDAV:  cpu time      0.4485: real time      0.4510
       DOS:  cpu time      0.0001: real time      0.0001
    CHARGE:  cpu time      0.2046: real time      0.2054
    MIXING:  cpu time      0.0077: real time      0.0078
    --------------------------------------------
      LOOP:  cpu time      0.6610: real time      0.6647

 eigenvalue-minimisations  :    72
 total energy-change (2. order) :-0.3475579E-01  (-0.3474604E-01)
 number of electron      22.0000000 magnetization 
 augmentation part        0.5843719 magnetization 

 Broyden mixing:
  rms(total) = 0.11902E+01    rms(broyden)= 0.11900E+01
  rms(prec ) = 0.14249E+01
  weight for this iteration     100.00

 Free energy of the ion-electron system (eV)
  ---------------------------------------------------
  alpha Z        PSCENC =         0.62641250
  Ewald energy   TEWEN  =       880.20538591
  -Hartree energ DENC   =     -1303.80083036
  -exchange      EXHF   =         0.00000000
  -V(xc)+E(xc)   XCENC  =        67.25137521
  PAW double counting   =       156.01372664     -160.66969168
  entropy T*S    EENTRO =        -0.00000000
  eigenvalues    EBANDS =      -366.33792221
  atomic energy  EATOM  =       663.51739852
  Solvation  Ediel_sol  =         0.00000000
  ---------------------------------------------------
  free energy    TOTEN  =       -63.19414546 eV

  energy without entropy =      -63.19414546  energy(sigma->0) =      -63.19414546


--------------------------------------------------------------------------------------------------------




--------------------------------------- Iteration      1(   6)  ---------------------------------------


    POTLOK:  cpu time      0.3088: real time      0.3108
    SETDIJ:  cpu time      0.1943: real time      0.1951
     EDDAV:  cpu time      0.4096: real time      0.4119
       DOS:  cpu time      0.0001: real time      0.0001
    CHARGE:  cpu time      0.1954: real time      0.1962
    MIXING:  cpu time      0.0153: real time      0.0154
    --------------------------------------------
      LOOP:  cpu time      1.1235: real time      1.1293

 eigenvalue-minimisations  :    64
 total energy-change (2. order) : 0.5173534E+01  (-0.7248023E+00)
 number of electron      22.0000000 magnetization 
 augmentation part        0.5372433 magnetization 

 Broyden mixing:
  rms(total) = 0.57849E+00    rms(broyden)= 0.57846E+00
  rms(prec ) = 0.68574E+00
  weight for this iteration     100.00

 eigenvalues of (default mixing * dielectric matrix)
  average eigenvalue GAMMA=   1.6662
  1.6662

 Free energy of the ion-electron system (eV)
  ---------------------------------------------------
  alpha Z        PSCENC =         0.62641250
  Ewald energy   TEWEN  =       880.20538591
  -Hartree energ DENC   =     -1350.60629604
  -exchange      EXHF   =         0.00000000
  -V(xc)+E(xc)   XCENC  =        69.69280957
  PAW double counting   =       229.65379646     -234.86312348
  entropy T*S    EENTRO =        -0.00000000
  eigenvalues    EBANDS =      -316.24699508
  atomic energy  EATOM  =       663.51739852
  Solvation  Ediel_sol  =         0.00000000
  ---------------------------------------------------
  free energy    TOTEN  =       -58.02061165 eV

  energy without entropy =      -58.02061165  energy(sigma->0) =      -58.02061165


--------------------------------------------------------------------------------------------------------




--------------------------------------- Iteration      1(   7)  ---------------------------------------


    POTLOK:  cpu time      0.3092: real time      0.3109
    SETDIJ:  cpu time      0.1905: real time      0.1914
     EDDAV:  cpu time      0.4172: real time      0.4194
       DOS:  cpu time      0.0001: real time      0.0001
    CHARGE:  cpu time      0.1971: real time      0.1980
    MIXING:  cpu time      0.0165: real time      0.0165
    --------------------------------------------
      LOOP:  cpu time      1.1306: real time      1.1362

 eigenvalue-minimisations  :    64
 total energy-change (2. order) : 0.1270120E+01  (-0.4695890E+00)
 number of electron      22.0000000 magnetization 
 augmentation part        0.5023772 magnetization 

 Broyden mixing:
  rms(total) = 0.22241E+00    rms(broyden)= 0.22234E+00
  rms(prec ) = 0.25428E+00
  weight for this iteration     100.00

 eigenvalues of (default mixing * dielectric matrix)
  average eigenvalue GAMMA=   2.0440
  1.9217  2.1662

 Free energy of the ion-electron system (eV)
  ---------------------------------------------------
  alpha Z        PSCENC =         0.62641250
  Ewald energy   TEWEN  =       880.20538591
  -Hartree energ DENC   =     -1390.14416917
  -exchange      EXHF   =         0.00000000
  -V(xc)+E(xc)   XCENC  =        71.98786447
  PAW double counting   =       294.67318086     -300.15867365
  entropy T*S    EENTRO =        -0.00000000
  eigenvalues    EBANDS =      -277.45789132
  atomic energy  EATOM  =       663.51739852
  Solvation  Ediel_sol  =         0.00000000
  ---------------------------------------------------
  free energy    TOTEN  =       -56.75049187 eV

  energy without entropy =      -56.75049187  energy(sigma->0) =      -56.75049187


--------------------------------------------------------------------------------------------------------




--------------------------------------- Iteration      1(   8)  ---------------------------------------


    POTLOK:  cpu time      0.3145: real time      0.3162
    SETDIJ:  cpu time      0.1896: real time      0.1904
     EDDAV:  cpu time      0.4111: real time      0.4135
       DOS:  cpu time      0.0001: real time      0.0001
    CHARGE:  cpu time      0.1940: real time      0.1948
    MIXING:  cpu time      0.0159: real time      0.0160
    --------------------------------------------
      LOOP:  cpu time      1.1253: real time      1.1311

 eigenvalue-minimisations  :    64
 total energy-change (2. order) : 0.1530957E+00  (-0.4212701E-01)
 number of electron      22.0000000 magnetization 
 augmentation part        0.5054601 magnetization 

 Broyden mixing:
  rms(total) = 0.56755E-01    rms(broyden)= 0.56750E-01
  rms(prec ) = 0.85876E-01
  weight for this iteration     100.00

 eigenvalues of (default mixing * dielectric matrix)
  average eigenvalue GAMMA=   1.6490
  2.3630  1.0992  1.4847

 Free energy of the ion-electron system (eV)
  ---------------------------------------------------
  alpha Z        PSCENC =         0.62641250
  Ewald energy   TEWEN  =       880.20538591
  -Hartree energ DENC   =     -1396.46266455
  -exchange      EXHF   =         0.00000000
  -V(xc)+E(xc)   XCENC  =        72.53554412
  PAW double counting   =       298.46010428     -303.76003459
  entropy T*S    EENTRO =        -0.00000000
  eigenvalues    EBANDS =      -271.71954237
  atomic energy  EATOM  =       663.51739852
  Solvation  Ediel_sol  =         0.00000000
  ---------------------------------------------------
  free energy    TOTEN  =       -56.59739618 eV

  energy without entropy =      -56.59739618  energy(sigma->0) =      -56.59739618


--------------------------------------------------------------------------------------------------------




--------------------------------------- Iteration      1(   9)  ---------------------------------------


    POTLOK:  cpu time      0.3143: real time      0.3162
    SETDIJ:  cpu time      0.1910: real time      0.1918
     EDDAV:  cpu time      0.4518: real time      0.4542
       DOS:  cpu time      0.0001: real time      0.0001
    CHARGE:  cpu time      0.1951: real time      0.1960
    MIXING:  cpu time      0.0155: real time      0.0155
    --------------------------------------------
      LOOP:  cpu time      1.1679: real time      1.1738

 eigenvalue-minimisations  :    72
 total energy-change (2. order) : 0.2715146E-01  (-0.8010985E-02)
 number of electron      22.0000000 magnetization 
 augmentation part        0.5015007 magnetization 

 Broyden mixing:
  rms(total) = 0.22522E-01    rms(broyden)= 0.22518E-01
  rms(prec ) = 0.46203E-01
  weight for this iteration     100.00

 eigenvalues of (default mixing * dielectric matrix)
  average eigenvalue GAMMA=   1.4848
  2.2879  1.6420  1.0046  1.0046

 Free energy of the ion-electron system (eV)
  ---------------------------------------------------
  alpha Z        PSCENC =         0.62641250
  Ewald energy   TEWEN  =       880.20538591
  -Hartree energ DENC   =     -1401.06934378
  -exchange      EXHF   =         0.00000000
  -V(xc)+E(xc)   XCENC  =        72.72942753
  PAW double counting   =       303.49450759     -308.83541588
  entropy T*S    EENTRO =        -0.00000000
  eigenvalues    EBANDS =      -267.23861713
  atomic energy  EATOM  =       663.51739852
  Solvation  Ediel_sol  =         0.00000000
  ---------------------------------------------------
  free energy    TOTEN  =       -56.57024473 eV

  energy without entropy =      -56.57024473  energy(sigma->0) =      -56.57024473


--------------------------------------------------------------------------------------------------------




--------------------------------------- Iteration      1(  10)  ---------------------------------------


    POTLOK:  cpu time      0.3154: real time      0.3171
    SETDIJ:  cpu time      0.1902: real time      0.1911
     EDDAV:  cpu time      0.3679: real time      0.3700
       DOS:  cpu time      0.0001: real time      0.0001
    CHARGE:  cpu time      0.1935: real time      0.1943
    MIXING:  cpu time      0.0155: real time      0.0156
    --------------------------------------------
      LOOP:  cpu time      1.0827: real time      1.0882

 eigenvalue-minimisations  :    56
 total energy-change (2. order) : 0.6472868E-02  (-0.1534177E-02)
 number of electron      22.0000000 magnetization 
 augmentation part        0.5000708 magnetization 

 Broyden mixing:
  rms(total) = 0.11960E-01    rms(broyden)= 0.11955E-01
  rms(prec ) = 0.29302E-01
  weight for this iteration     100.00

 eigenvalues of (default mixing * dielectric matrix)
  average eigenvalue GAMMA=   1.6741
  2.4865  2.4865  1.1965  1.1965  1.0043

 Free energy of the ion-electron system (eV)
  ---------------------------------------------------
  alpha Z        PSCENC =         0.62641250
  Ewald energy   TEWEN  =       880.20538591
  -Hartree energ DENC   =     -1404.32106505
  -exchange      EXHF   =         0.00000000
  -V(xc)+E(xc)   XCENC  =        72.79922867
  PAW double counting   =       302.45102321     -307.79281190
  entropy T*S    EENTRO =        -0.00000000
  eigenvalues    EBANDS =      -264.04934372
  atomic energy  EATOM  =       663.51739852
  Solvation  Ediel_sol  =         0.00000000
  ---------------------------------------------------
  free energy    TOTEN  =       -56.56377186 eV

  energy without entropy =      -56.56377186  energy(sigma->0) =      -56.56377186


--------------------------------------------------------------------------------------------------------




--------------------------------------- Iteration      1(  11)  ---------------------------------------


    POTLOK:  cpu time      0.3151: real time      0.3169
    SETDIJ:  cpu time      0.1919: real time      0.1928
     EDDAV:  cpu time      0.4505: real time      0.4530
       DOS:  cpu time      0.0001: real time      0.0001
    CHARGE:  cpu time      0.1962: real time      0.1969
    MIXING:  cpu time      0.0144: real time      0.0145
    --------------------------------------------
      LOOP:  cpu time      1.1682: real time      1.1742

 eigenvalue-minimisations  :    72
 total energy-change (2. order) : 0.7969501E-02  (-0.5078479E-03)
 number of electron      22.0000000 magnetization 
 augmentation part        0.4993453 magnetization 

 Broyden mixing:
  rms(total) = 0.76572E-02    rms(broyden)= 0.76568E-02
  rms(prec ) = 0.17387E-01
  weight for this iteration     100.00

 eigenvalues of (default mixing * dielectric matrix)
  average eigenvalue GAMMA=   1.7615
  3.3435  2.4444  1.5732  1.1405  1.1405  0.9268

 Free energy of the ion-electron system (eV)
  ---------------------------------------------------
  alpha Z        PSCENC =         0.62641250
  Ewald energy   TEWEN  =       880.20538591
  -Hartree energ DENC   =     -1407.78949067
  -exchange      EXHF   =         0.00000000
  -V(xc)+E(xc)   XCENC  =        72.89618043
  PAW double counting   =       301.78334998     -307.11717412
  entropy T*S    EENTRO =        -0.00000000
  eigenvalues    EBANDS =      -260.67786490
  atomic energy  EATOM  =       663.51739852
  Solvation  Ediel_sol  =         0.00000000
  ---------------------------------------------------
  free energy    TOTEN  =       -56.55580236 eV

  energy without entropy =      -56.55580236  energy(sigma->0) =      -56.55580236


--------------------------------------------------------------------------------------------------------




--------------------------------------- Iteration      1(  12)  ---------------------------------------


    POTLOK:  cpu time      0.3130: real time      0.3146
    SETDIJ:  cpu time      0.1935: real time      0.1943
     EDDAV:  cpu time      0.4099: real time      0.4123
       DOS:  cpu time      0.0001: real time      0.0001
    CHARGE:  cpu time      0.1950: real time      0.1958
    MIXING:  cpu time      0.0138: real time      0.0138
    --------------------------------------------
      LOOP:  cpu time      1.1253: real time      1.1310

 eigenvalue-minimisations  :    64
 total energy-change (2. order) :-0.1245754E-02  (-0.2834125E-03)
 number of electron      22.0000000 magnetization 
 augmentation part        0.4987656 magnetization 

 Broyden mixing:
  rms(total) = 0.66488E-02    rms(broyden)= 0.66483E-02
  rms(prec ) = 0.12114E-01
  weight for this iteration     100.00

 eigenvalues of (default mixing * dielectric matrix)
  average eigenvalue GAMMA=   1.9279
  4.3678  2.3451  2.3451  1.2986  1.1694  0.9845  0.9845

 Free energy of the ion-electron system (eV)
  ---------------------------------------------------
  alpha Z        PSCENC =         0.62641250
  Ewald energy   TEWEN  =       880.20538591
  -Hartree energ DENC   =     -1409.95456172
  -exchange      EXHF   =         0.00000000
  -V(xc)+E(xc)   XCENC  =        72.94158980
  PAW double counting   =       301.71670808     -307.05306482
  entropy T*S    EENTRO =        -0.00000000
  eigenvalues    EBANDS =      -258.55691639
  atomic energy  EATOM  =       663.51739852
  Solvation  Ediel_sol  =         0.00000000
  ---------------------------------------------------
  free energy    TOTEN  =       -56.55704811 eV

  energy without entropy =      -56.55704811  energy(sigma->0) =      -56.55704811


--------------------------------------------------------------------------------------------------------




--------------------------------------- Iteration      1(  13)  ---------------------------------------


    POTLOK:  cpu time      0.3085: real time      0.3102
    SETDIJ:  cpu time      0.1925: real time      0.1933
     EDDAV:  cpu time      0.3716: real time      0.3737
       DOS:  cpu time      0.0001: real time      0.0001
    CHARGE:  cpu time      0.1948: real time      0.1956
    MIXING:  cpu time      0.0155: real time      0.0156
    --------------------------------------------
      LOOP:  cpu time      1.0830: real time      1.0884

 eigenvalue-minimisations  :    56
 total energy-change (2. order) :-0.1007112E-01  (-0.2144611E-03)
 number of electron      22.0000000 magnetization 
 augmentation part        0.4989207 magnetization 

 Broyden mixing:
  rms(total) = 0.29168E-02    rms(broyden)= 0.29165E-02
  rms(prec ) = 0.60192E-02
  weight for this iteration     100.00

 eigenvalues of (default mixing * dielectric matrix)
  average eigenvalue GAMMA=   2.0124
  5.0969  2.7721  2.1953  1.4863  1.4407  0.9932  1.0572  1.0572

 Free energy of the ion-electron system (eV)
  ---------------------------------------------------
  alpha Z        PSCENC =         0.62641250
  Ewald energy   TEWEN  =       880.20538591
  -Hartree energ DENC   =     -1410.56151884
  -exchange      EXHF   =         0.00000000
  -V(xc)+E(xc)   XCENC  =        72.93251897
  PAW double counting   =       301.50238918     -306.83580880
  entropy T*S    EENTRO =        -0.00000000
  eigenvalues    EBANDS =      -257.95389668
  atomic energy  EATOM  =       663.51739852
  Solvation  Ediel_sol  =         0.00000000
  ---------------------------------------------------
  free energy    TOTEN  =       -56.56711923 eV

  energy without entropy =      -56.56711923  energy(sigma->0) =      -56.56711923


--------------------------------------------------------------------------------------------------------




--------------------------------------- Iteration      1(  14)  ---------------------------------------


    POTLOK:  cpu time      0.3088: real time      0.3105
    SETDIJ:  cpu time      0.1912: real time      0.1921
     EDDAV:  cpu time      0.4104: real time      0.4126
       DOS:  cpu time      0.0001: real time      0.0001
    CHARGE:  cpu time      0.1965: real time      0.1972
    MIXING:  cpu time      0.0132: real time      0.0132
    --------------------------------------------
      LOOP:  cpu time      1.1201: real time      1.1258

 eigenvalue-minimisations  :    64
 total energy-change (2. order) :-0.5980149E-02  (-0.8814497E-04)
 number of electron      22.0000000 magnetization 
 augmentation part        0.4989160 magnetization 

 Broyden mixing:
  rms(total) = 0.20067E-02    rms(broyden)= 0.20066E-02
  rms(prec ) = 0.36386E-02
  weight for this iteration     100.00

 eigenvalues of (default mixing * dielectric matrix)
  average eigenvalue GAMMA=   2.2146
  6.3216  3.5944  2.4729  1.8687  1.3368  1.3368  1.0458  0.9771  0.9771

 Free energy of the ion-electron system (eV)
  ---------------------------------------------------
  alpha Z        PSCENC =         0.62641250
  Ewald energy   TEWEN  =       880.20538591
  -Hartree energ DENC   =     -1410.69517247
  -exchange      EXHF   =         0.00000000
  -V(xc)+E(xc)   XCENC  =        72.91916144
  PAW double counting   =       301.44975483     -306.78297936
  entropy T*S    EENTRO =        -0.00000000
  eigenvalues    EBANDS =      -257.81306076
  atomic energy  EATOM  =       663.51739852
  Solvation  Ediel_sol  =         0.00000000
  ---------------------------------------------------
  free energy    TOTEN  =       -56.57309938 eV

  energy without entropy =      -56.57309938  energy(sigma->0) =      -56.57309938


--------------------------------------------------------------------------------------------------------




--------------------------------------- Iteration      1(  15)  ---------------------------------------


    POTLOK:  cpu time      0.3044: real time      0.3061
    SETDIJ:  cpu time      0.1920: real time      0.1929
     EDDAV:  cpu time      0.4076: real time      0.4099
       DOS:  cpu time      0.0001: real time      0.0001
    CHARGE:  cpu time      0.1944: real time      0.1951
    MIXING:  cpu time      0.0147: real time      0.0148
    --------------------------------------------
      LOOP:  cpu time      1.1132: real time      1.1189

 eigenvalue-minimisations  :    64
 total energy-change (2. order) :-0.3776130E-02  (-0.5668872E-04)
 number of electron      22.0000000 magnetization 
 augmentation part        0.4988527 magnetization 

 Broyden mixing:
  rms(total) = 0.13967E-02    rms(broyden)= 0.13966E-02
  rms(prec ) = 0.20252E-02
  weight for this iteration     100.00

 eigenvalues of (default mixing * dielectric matrix)
  average eigenvalue GAMMA=   2.2276
  6.9303  3.8817  2.3089  2.1622  1.4981  1.4981  1.0335  1.0335  0.9650  0.9650

 Free energy of the ion-electron system (eV)
  ---------------------------------------------------
  alpha Z        PSCENC =         0.62641250
  Ewald energy   TEWEN  =       880.20538591
  -Hartree energ DENC   =     -1410.81402401
  -exchange      EXHF   =         0.00000000
  -V(xc)+E(xc)   XCENC  =        72.91449189
  PAW double counting   =       301.57316601     -306.90634678
  entropy T*S    EENTRO =        -0.00000000
  eigenvalues    EBANDS =      -257.69335956
  atomic energy  EATOM  =       663.51739852
  Solvation  Ediel_sol  =         0.00000000
  ---------------------------------------------------
  free energy    TOTEN  =       -56.57687551 eV

  energy without entropy =      -56.57687551  energy(sigma->0) =      -56.57687551


--------------------------------------------------------------------------------------------------------




--------------------------------------- Iteration      1(  16)  ---------------------------------------


    POTLOK:  cpu time      0.3025: real time      0.3042
    SETDIJ:  cpu time      0.1942: real time      0.1950
     EDDAV:  cpu time      0.4105: real time      0.4128
       DOS:  cpu time      0.0001: real time      0.0001
    CHARGE:  cpu time      0.1951: real time      0.1959
    MIXING:  cpu time      0.0139: real time      0.0139
    --------------------------------------------
      LOOP:  cpu time      1.1163: real time      1.1218

 eigenvalue-minimisations  :    64
 total energy-change (2. order) :-0.1038173E-02  (-0.1040623E-04)
 number of electron      22.0000000 magnetization 
 augmentation part        0.4987584 magnetization 

 Broyden mixing:
  rms(total) = 0.67095E-03    rms(broyden)= 0.67076E-03
  rms(prec ) = 0.10911E-02
  weight for this iteration     100.00

 eigenvalues of (default mixing * dielectric matrix)
  average eigenvalue GAMMA=   2.2976
  7.6435  4.3782  2.4768  2.4768  1.4633  1.4633  1.3778  1.0093  1.0093  0.9876
  0.9876

 Free energy of the ion-electron system (eV)
  ---------------------------------------------------
  alpha Z        PSCENC =         0.62641250
  Ewald energy   TEWEN  =       880.20538591
  -Hartree energ DENC   =     -1410.85818497
  -exchange      EXHF   =         0.00000000
  -V(xc)+E(xc)   XCENC  =        72.91289782
  PAW double counting   =       301.54626353     -306.88020117
  entropy T*S    EENTRO =        -0.00000000
  eigenvalues    EBANDS =      -257.64788584
  atomic energy  EATOM  =       663.51739852
  Solvation  Ediel_sol  =         0.00000000
  ---------------------------------------------------
  free energy    TOTEN  =       -56.57791368 eV

  energy without entropy =      -56.57791368  energy(sigma->0) =      -56.57791368


--------------------------------------------------------------------------------------------------------




--------------------------------------- Iteration      1(  17)  ---------------------------------------


    POTLOK:  cpu time      0.3007: real time      0.3024
    SETDIJ:  cpu time      0.1916: real time      0.1924
     EDDAV:  cpu time      0.4059: real time      0.4082
       DOS:  cpu time      0.0001: real time      0.0001
    CHARGE:  cpu time      0.1945: real time      0.1953
    MIXING:  cpu time      0.0153: real time      0.0154
    --------------------------------------------
      LOOP:  cpu time      1.1082: real time      1.1137

 eigenvalue-minimisations  :    64
 total energy-change (2. order) :-0.5452874E-03  (-0.3774611E-05)
 number of electron      22.0000000 magnetization 
 augmentation part        0.4987637 magnetization 

 Broyden mixing:
  rms(total) = 0.44196E-03    rms(broyden)= 0.44191E-03
  rms(prec ) = 0.65725E-03
  weight for this iteration     100.00

 eigenvalues of (default mixing * dielectric matrix)
  average eigenvalue GAMMA=   2.3445
  8.0966  4.9181  2.7006  2.5438  1.6999  1.5850  1.5850  1.0451  1.0451  1.0109
  0.9520  0.9520

 Free energy of the ion-electron system (eV)
  ---------------------------------------------------
  alpha Z        PSCENC =         0.62641250
  Ewald energy   TEWEN  =       880.20538591
  -Hartree energ DENC   =     -1410.84599262
  -exchange      EXHF   =         0.00000000
  -V(xc)+E(xc)   XCENC  =        72.91178117
  PAW double counting   =       301.52695357     -306.86060193
  entropy T*S    EENTRO =        -0.00000000
  eigenvalues    EBANDS =      -257.65979610
  atomic energy  EATOM  =       663.51739852
  Solvation  Ediel_sol  =         0.00000000
  ---------------------------------------------------
  free energy    TOTEN  =       -56.57845897 eV

  energy without entropy =      -56.57845897  energy(sigma->0) =      -56.57845897


--------------------------------------------------------------------------------------------------------




--------------------------------------- Iteration      1(  18)  ---------------------------------------


    POTLOK:  cpu time      0.2992: real time      0.3008
    SETDIJ:  cpu time      0.1922: real time      0.1931
     EDDAV:  cpu time      0.3268: real time      0.3286
       DOS:  cpu time      0.0001: real time      0.0001
    CHARGE:  cpu time      0.1952: real time      0.1960
    MIXING:  cpu time      0.0131: real time      0.0132
    --------------------------------------------
      LOOP:  cpu time      1.0266: real time      1.0318

 eigenvalue-minimisations  :    48
 total energy-change (2. order) :-0.2254273E-03  (-0.1077947E-05)
 number of electron      22.0000000 magnetization 
 augmentation part        0.4987635 magnetization 

 Broyden mixing:
  rms(total) = 0.20849E-03    rms(broyden)= 0.20842E-03
  rms(prec ) = 0.34537E-03
  weight for this iteration     100.00

 eigenvalues of (default mixing * dielectric matrix)
  average eigenvalue GAMMA=   2.3567
  8.5327  5.1826  3.1563  2.4041  2.1664  1.4490  1.4490  1.1831  1.1831  1.0161
  1.0161  0.9492  0.9492

 Free energy of the ion-electron system (eV)
  ---------------------------------------------------
  alpha Z        PSCENC =         0.62641250
  Ewald energy   TEWEN  =       880.20538591
  -Hartree energ DENC   =     -1410.85806585
  -exchange      EXHF   =         0.00000000
  -V(xc)+E(xc)   XCENC  =        72.91189744
  PAW double counting   =       301.52477653     -306.85834712
  entropy T*S    EENTRO =        -0.00000000
  eigenvalues    EBANDS =      -257.64814235
  atomic energy  EATOM  =       663.51739852
  Solvation  Ediel_sol  =         0.00000000
  ---------------------------------------------------
  free energy    TOTEN  =       -56.57868440 eV

  energy without entropy =      -56.57868440  energy(sigma->0) =      -56.57868440


--------------------------------------------------------------------------------------------------------




--------------------------------------- Iteration      1(  19)  ---------------------------------------


    POTLOK:  cpu time      0.2989: real time      0.3006
    SETDIJ:  cpu time      0.1920: real time      0.1928
     EDDAV:  cpu time      0.3689: real time      0.3710
       DOS:  cpu time      0.0001: real time      0.0001
    CHARGE:  cpu time      0.1950: real time      0.1958
    MIXING:  cpu time      0.0150: real time      0.0150
    --------------------------------------------
      LOOP:  cpu time      1.0699: real time      1.0753

 eigenvalue-minimisations  :    56
 total energy-change (2. order) :-0.1018425E-03  (-0.2820526E-06)
 number of electron      22.0000000 magnetization 
 augmentation part        0.4987653 magnetization 

 Broyden mixing:
  rms(total) = 0.10314E-03    rms(broyden)= 0.10302E-03
  rms(prec ) = 0.18686E-03
  weight for this iteration     100.00

 eigenvalues of (default mixing * dielectric matrix)
  average eigenvalue GAMMA=   2.4029
  8.6846  5.4832  3.5384  2.4596  2.4596  1.9780  1.5038  1.3701  1.0697  1.0697
  0.9703  0.9703  1.0420  1.0420

 Free energy of the ion-electron system (eV)
  ---------------------------------------------------
  alpha Z        PSCENC =         0.62641250
  Ewald energy   TEWEN  =       880.20538591
  -Hartree energ DENC   =     -1410.86444377
  -exchange      EXHF   =         0.00000000
  -V(xc)+E(xc)   XCENC  =        72.91198974
  PAW double counting   =       301.52403592     -306.85753625
  entropy T*S    EENTRO =        -0.00000000
  eigenvalues    EBANDS =      -257.64202882
  atomic energy  EATOM  =       663.51739852
  Solvation  Ediel_sol  =         0.00000000
  ---------------------------------------------------
  free energy    TOTEN  =       -56.57878624 eV

  energy without entropy =      -56.57878624  energy(sigma->0) =      -56.57878624


--------------------------------------------------------------------------------------------------------




--------------------------------------- Iteration      1(  20)  ---------------------------------------


    POTLOK:  cpu time      0.3043: real time      0.3059
    SETDIJ:  cpu time      0.1907: real time      0.1915
     EDDAV:  cpu time      0.3681: real time      0.3702
       DOS:  cpu time      0.0001: real time      0.0001
    CHARGE:  cpu time      0.1964: real time      0.1972
    MIXING:  cpu time      0.0139: real time      0.0140
    --------------------------------------------
      LOOP:  cpu time      1.0735: real time      1.0789

 eigenvalue-minimisations  :    56
 total energy-change (2. order) :-0.5146040E-04  (-0.1084213E-06)
 number of electron      22.0000000 magnetization 
 augmentation part        0.4987687 magnetization 

 Broyden mixing:
  rms(total) = 0.67920E-04    rms(broyden)= 0.67754E-04
  rms(prec ) = 0.10229E-03
  weight for this iteration     100.00

 eigenvalues of (default mixing * dielectric matrix)
  average eigenvalue GAMMA=   2.4252
  8.9447  5.8489  4.1099  2.7436  2.4061  1.9294  1.4919  1.4919  1.2254  1.2254
  1.0382  1.0382  0.9546  0.9546  0.9745

 Free energy of the ion-electron system (eV)
  ---------------------------------------------------
  alpha Z        PSCENC =         0.62641250
  Ewald energy   TEWEN  =       880.20538591
  -Hartree energ DENC   =     -1410.86478942
  -exchange      EXHF   =         0.00000000
  -V(xc)+E(xc)   XCENC  =        72.91175309
  PAW double counting   =       301.52355898     -306.85706433
  entropy T*S    EENTRO =        -0.00000000
  eigenvalues    EBANDS =      -257.64149296
  atomic energy  EATOM  =       663.51739852
  Solvation  Ediel_sol  =         0.00000000
  ---------------------------------------------------
  free energy    TOTEN  =       -56.57883770 eV

  energy without entropy =      -56.57883770  energy(sigma->0) =      -56.57883770


--------------------------------------------------------------------------------------------------------




--------------------------------------- Iteration      1(  21)  ---------------------------------------


    POTLOK:  cpu time      0.3094: real time      0.3111
    SETDIJ:  cpu time      0.1925: real time      0.1934
     EDDAV:  cpu time      0.3679: real time      0.3699
       DOS:  cpu time      0.0001: real time      0.0001
    CHARGE:  cpu time      0.1943: real time      0.1951
    MIXING:  cpu time      0.0179: real time      0.0180
    --------------------------------------------
      LOOP:  cpu time      1.0822: real time      1.0876

 eigenvalue-minimisations  :    56
 total energy-change (2. order) :-0.1290359E-04  (-0.1396736E-07)
 number of electron      22.0000000 magnetization 
 augmentation part        0.4987694 magnetization 

 Broyden mixing:
  rms(total) = 0.42321E-04    rms(broyden)= 0.42064E-04
  rms(prec ) = 0.62563E-04
  weight for this iteration     100.00

 eigenvalues of (default mixing * dielectric matrix)
  average eigenvalue GAMMA=   2.4962
  9.0228  6.2526  4.5147  3.1566  2.5531  2.3178  2.0398  1.5062  1.0989  1.0989
  1.1964  1.1964  0.9921  0.9921  1.0006  1.0006

 Free energy of the ion-electron system (eV)
  ---------------------------------------------------
  alpha Z        PSCENC =         0.62641250
  Ewald energy   TEWEN  =       880.20538591
  -Hartree energ DENC   =     -1410.86584682
  -exchange      EXHF   =         0.00000000
  -V(xc)+E(xc)   XCENC  =        72.91170599
  PAW double counting   =       301.52392239     -306.85744676
  entropy T*S    EENTRO =        -0.00000000
  eigenvalues    EBANDS =      -257.64038233
  atomic energy  EATOM  =       663.51739852
  Solvation  Ediel_sol  =         0.00000000
  ---------------------------------------------------
  free energy    TOTEN  =       -56.57885061 eV

  energy without entropy =      -56.57885061  energy(sigma->0) =      -56.57885061


--------------------------------------------------------------------------------------------------------




--------------------------------------- Iteration      1(  22)  ---------------------------------------


    POTLOK:  cpu time      0.3103: real time      0.3120
    SETDIJ:  cpu time      0.1934: real time      0.1942
     EDDAV:  cpu time      0.3730: real time      0.3751
       DOS:  cpu time      0.0001: real time      0.0001
    CHARGE:  cpu time      0.1936: real time      0.1944
    MIXING:  cpu time      0.0180: real time      0.0181
    --------------------------------------------
      LOOP:  cpu time      1.0884: real time      1.0939

 eigenvalue-minimisations  :    56
 total energy-change (2. order) :-0.9253365E-05  (-0.2045325E-07)
 number of electron      22.0000000 magnetization 
 augmentation part        0.4987683 magnetization 

 Broyden mixing:
  rms(total) = 0.24083E-04    rms(broyden)= 0.23632E-04
  rms(prec ) = 0.31619E-04
  weight for this iteration     100.00

 eigenvalues of (default mixing * dielectric matrix)
  average eigenvalue GAMMA=   2.4677
  9.0757  6.4478  4.7861  3.2867  2.5390  2.3629  1.8606  1.4953  1.4953  1.3028
  1.3028  1.0568  1.0568  0.9674  0.9674  0.9735  0.9735

 Free energy of the ion-electron system (eV)
  ---------------------------------------------------
  alpha Z        PSCENC =         0.62641250
  Ewald energy   TEWEN  =       880.20538591
  -Hartree energ DENC   =     -1410.86802324
  -exchange      EXHF   =         0.00000000
  -V(xc)+E(xc)   XCENC  =        72.91174143
  PAW double counting   =       301.52558504     -306.85913072
  entropy T*S    EENTRO =        -0.00000000
  eigenvalues    EBANDS =      -257.63822931
  atomic energy  EATOM  =       663.51739852
  Solvation  Ediel_sol  =         0.00000000
  ---------------------------------------------------
  free energy    TOTEN  =       -56.57885986 eV

  energy without entropy =      -56.57885986  energy(sigma->0) =      -56.57885986


--------------------------------------------------------------------------------------------------------




--------------------------------------- Iteration      1(  23)  ---------------------------------------


    POTLOK:  cpu time      0.3120: real time      0.3136
    SETDIJ:  cpu time      0.1913: real time      0.1921
     EDDAV:  cpu time      0.3691: real time      0.3712
       DOS:  cpu time      0.0001: real time      0.0001
    CHARGE:  cpu time      0.1940: real time      0.1947
    MIXING:  cpu time      0.0188: real time      0.0189
    --------------------------------------------
      LOOP:  cpu time      1.0852: real time      1.0907

 eigenvalue-minimisations  :    56
 total energy-change (2. order) :-0.1340854E-05  (-0.3243908E-08)
 number of electron      22.0000000 magnetization 
 augmentation part        0.4987678 magnetization 

 Broyden mixing:
  rms(total) = 0.16417E-04    rms(broyden)= 0.15749E-04
  rms(prec ) = 0.21383E-04
  weight for this iteration     100.00

 eigenvalues of (default mixing * dielectric matrix)
  average eigenvalue GAMMA=   2.4874
  9.1285  6.7385  5.0483  3.5955  2.5551  2.5551  2.0504  1.8787  1.4391  1.3289
  1.3289  1.0832  1.0832  1.0263  1.0263  0.9670  0.9670  0.9732

 Free energy of the ion-electron system (eV)
  ---------------------------------------------------
  alpha Z        PSCENC =         0.62641250
  Ewald energy   TEWEN  =       880.20538591
  -Hartree energ DENC   =     -1410.86891197
  -exchange      EXHF   =         0.00000000
  -V(xc)+E(xc)   XCENC  =        72.91176200
  PAW double counting   =       301.52550169     -306.85904863
  entropy T*S    EENTRO =        -0.00000000
  eigenvalues    EBANDS =      -257.63736123
  atomic energy  EATOM  =       663.51739852
  Solvation  Ediel_sol  =         0.00000000
  ---------------------------------------------------
  free energy    TOTEN  =       -56.57886120 eV

  energy without entropy =      -56.57886120  energy(sigma->0) =      -56.57886120


--------------------------------------------------------------------------------------------------------




--------------------------------------- Iteration      1(  24)  ---------------------------------------


    POTLOK:  cpu time      0.3164: real time      0.3180
    SETDIJ:  cpu time      0.1917: real time      0.1926
     EDDAV:  cpu time      0.3722: real time      0.3742
       DOS:  cpu time      0.0001: real time      0.0001
    CHARGE:  cpu time      0.1945: real time      0.1953
    MIXING:  cpu time      0.0188: real time      0.0188
    --------------------------------------------
      LOOP:  cpu time      1.0936: real time      1.0991

 eigenvalue-minimisations  :    56
 total energy-change (2. order) :-0.1146572E-05  (-0.2616035E-08)
 number of electron      22.0000000 magnetization 
 augmentation part        0.4987679 magnetization 

 Broyden mixing:
  rms(total) = 0.94955E-05    rms(broyden)= 0.82892E-05
  rms(prec ) = 0.12004E-04
  weight for this iteration     100.00
  WARNING: grid for Broyden might be to small

 eigenvalues of (default mixing * dielectric matrix)
  average eigenvalue GAMMA=   2.4644
  9.1634  6.8930  5.2034  3.7449  2.7828  2.4709  2.0809  2.0809  1.3069  1.3069
  1.4078  1.3720  1.0496  1.0496  0.9546  0.9546  1.0460  0.9772  0.9772

 Free energy of the ion-electron system (eV)
  ---------------------------------------------------
  alpha Z        PSCENC =         0.62641250
  Ewald energy   TEWEN  =       880.20538591
  -Hartree energ DENC   =     -1410.86872788
  -exchange      EXHF   =         0.00000000
  -V(xc)+E(xc)   XCENC  =        72.91175423
  PAW double counting   =       301.52496817     -306.85850705
  entropy T*S    EENTRO =        -0.00000000
  eigenvalues    EBANDS =      -257.63754675
  atomic energy  EATOM  =       663.51739852
  Solvation  Ediel_sol  =         0.00000000
  ---------------------------------------------------
  free energy    TOTEN  =       -56.57886235 eV

  energy without entropy =      -56.57886235  energy(sigma->0) =      -56.57886235


--------------------------------------------------------------------------------------------------------




--------------------------------------- Iteration      1(  25)  ---------------------------------------


    POTLOK:  cpu time      0.3170: real time      0.3187
    SETDIJ:  cpu time      0.1916: real time      0.1924
     EDDAV:  cpu time      0.3680: real time      0.3700
       DOS:  cpu time      0.0001: real time      0.0001
    --------------------------------------------
      LOOP:  cpu time      0.8767: real time      0.8812

 eigenvalue-minimisations  :    56
 total energy-change (2. order) :-0.4228550E-06  (-0.7011973E-09)
 number of electron      22.0000000 magnetization 
 augmentation part        0.4987679 magnetization 

 Free energy of the ion-electron system (eV)
  ---------------------------------------------------
  alpha Z        PSCENC =         0.62641250
  Ewald energy   TEWEN  =       880.20538591
  -Hartree energ DENC   =     -1410.86880250
  -exchange      EXHF   =         0.00000000
  -V(xc)+E(xc)   XCENC  =        72.91175696
  PAW double counting   =       301.52477193     -306.85830616
  entropy T*S    EENTRO =        -0.00000000
  eigenvalues    EBANDS =      -257.63747995
  atomic energy  EATOM  =       663.51739852
  Solvation  Ediel_sol  =         0.00000000
  ---------------------------------------------------
  free energy    TOTEN  =       -56.57886277 eV

  energy without entropy =      -56.57886277  energy(sigma->0) =      -56.57886277


--------------------------------------------------------------------------------------------------------




 average (electrostatic) potential at core
  the test charge radii are     0.6991  0.5201
  (the norm of the test charge is              1.0000)
       1 -58.6406       2 -58.7596       3 -58.7249       4 -58.6062       5 -41.7279
       6 -41.9761       7 -42.1379       8 -42.3925       9 -42.1210      10 -41.6505
 
 
 
 E-fermi :  -5.3672     XC(G=0):  -0.4398     alpha+bet : -0.1681

 Fermi energy:        -5.3672465604

 k-point     1 :       0.0000    0.0000    0.0000
  band No.  band energies     occupation 
      1     -19.8545      2.00000
      2     -17.8052      2.00000
      3     -15.3763      2.00000
      4     -12.8788      2.00000
      5     -11.9287      2.00000
      6     -10.6360      2.00000
      7      -9.8958      2.00000
      8      -8.7007      2.00000
      9      -8.3757      2.00000
     10      -7.7631      2.00000
     11      -5.6039      2.00000
     12      -2.2539      0.00000
     13      -0.4392      0.00000
     14       0.0667      0.00000
     15       0.2124      0.00000
     16       0.3482      0.00000
     17       0.4975      0.00000
     18       0.5424      0.00000
     19       0.6064      0.00000
     20       0.7866      0.00000
     21       0.8739      0.00000
     22       0.9466      0.00000
     23       1.0118      0.00000
     24       1.1074      0.00000


--------------------------------------------------------------------------------------------------------


 soft charge-density along one line, spin component           1
         0         1         2         3         4         5         6         7         8         9
 total charge-density along one line
 
 pseudopotential strength for first ion, spin component:           1
 10.253   0.020   0.001  -0.001   0.000   0.001  -0.001   0.000
  0.020  -0.001  -0.000   0.000  -0.000   0.000  -0.000   0.000
  0.001  -0.000  -4.371   0.001  -0.008  -0.015   0.000  -0.002
 -0.001   0.000   0.001  -4.370   0.003   0.000  -0.015   0.001
  0.000  -0.000  -0.008   0.003  -4.360  -0.002   0.001  -0.012
  0.001   0.000  -0.015   0.000  -0.002  -0.773   0.000  -0.000
 -0.001  -0.000   0.000  -0.015   0.001   0.000  -0.773   0.000
  0.000   0.000  -0.002   0.001  -0.012  -0.000   0.000  -0.772
 total augmentation occupancy for first ion, spin component:           1
  1.478  -1.027  -0.021   0.024  -0.008  -0.014   0.013  -0.008
 -1.027   0.796   0.061  -0.052   0.037   0.030  -0.022   0.017
 -0.021   0.061   1.139  -0.013   0.134   0.181  -0.005   0.053
  0.024  -0.052  -0.013   1.156  -0.045  -0.005   0.188  -0.020
 -0.008   0.037   0.134  -0.045   0.960   0.053  -0.020   0.111
 -0.014   0.030   0.181  -0.005   0.053   0.032  -0.002   0.013
  0.013  -0.022  -0.005   0.188  -0.020  -0.002   0.032  -0.005
 -0.008   0.017   0.053  -0.020   0.111   0.013  -0.005   0.015


------------------------ aborting loop because EDIFF is reached ----------------------------------------


    CHARGE:  cpu time      0.1940: real time      0.1948
    FORLOC:  cpu time      0.0356: real time      0.0357
    FORNL :  cpu time      1.0766: real time      1.0817
    STRESS:  cpu time      3.4080: real time      3.4241
    FORHAR:  cpu time      0.1107: real time      0.1113
    MIXING:  cpu time      0.0122: real time      0.0123
    OFIELD:  cpu time      0.0001: real time      0.0001

  FORCE on cell =-STRESS in cart. coord.  units (eV):
  Direction    XX          YY          ZZ          XY          YZ          ZX
  --------------------------------------------------------------------------------------
  Alpha Z     0.62641     0.62641     0.62641
  Ewald    -125.63700   316.53653   689.30552   175.11278    16.74362  -141.96668
  Hartree   240.05577   438.81921   731.99376    82.42959     1.75928   -90.09732
  E(xc)     -77.77007   -76.08527   -75.80024     0.63738     0.10960    -0.28415
  Local    -335.04534  -941.89657 -1609.57160  -245.72291   -15.80685   228.38998
  n-local   -28.89772   -31.80608   -30.98424    -1.05590    -0.17208     0.23031
  augment    -0.53787    -0.72582    -0.68093    -0.05968    -0.01710     0.01242
  Kinetic   326.72054   294.73866   294.25907   -11.56824    -2.58445     4.18931
  Fock        0.00000     0.00000     0.00000     0.00000     0.00000     0.00000
  -------------------------------------------------------------------------------------
  Total      -0.48527     0.20708    -0.85224    -0.22697     0.03202     0.47386
  in kB      -0.23037     0.09831    -0.40458    -0.10775     0.01520     0.22495
  external pressure =       -0.18 kB  Pullay stress =        0.00 kB


 VOLUME and BASIS-vectors are now :
 -----------------------------------------------------------------------------
  energy-cutoff  :      520.00
  volume of cell :     3375.00
      direct lattice vectors                 reciprocal lattice vectors
    15.000000000  0.000000000  0.000000000     0.066666667  0.000000000  0.000000000
     0.000000000 15.000000000  0.000000000     0.000000000  0.066666667  0.000000000
     0.000000000  0.000000000 15.000000000     0.000000000  0.000000000  0.066666667

  length of vectors
    15.000000000 15.000000000 15.000000000     0.066666667  0.066666667  0.066666667


 FORCES acting on ions
    electron-ion (+dipol)            ewald-force                    non-local-force                 convergence-correction
 -----------------------------------------------------------------------------------------------
   -.552E+02 -.828E+02 0.100E+03   0.552E+02 0.824E+02 -.100E+03   -.557E+00 -.695E+00 0.548E-01   -.153E-04 -.725E-05 0.608E-04
   0.314E+02 0.633E+02 0.598E+02   -.308E+02 -.618E+02 -.612E+02   0.100E+01 0.697E+00 -.563E+00   -.439E-05 0.459E-05 0.159E-04
   0.245E+02 0.755E+02 -.386E+02   -.240E+02 -.741E+02 0.400E+02   -.292E+00 0.588E+00 -.611E+00   0.122E-04 -.489E-05 -.494E-04
   0.111E+02 -.795E+02 -.121E+03   -.113E+02 0.796E+02 0.122E+03   0.424E+00 -.157E+01 -.124E+00   0.129E-04 0.222E-04 -.439E-04
   -.105E+02 0.405E+00 0.644E+02   0.109E+02 -.940E+00 -.687E+02   -.494E+00 0.796E+00 0.522E+01   -.163E-05 -.186E-05 0.565E-05
   -.290E+02 -.569E+02 -.575E+01   0.311E+02 0.614E+02 0.782E+01   -.218E+01 -.475E+01 -.207E+01   -.492E-05 -.487E-05 0.929E-05
   0.193E+02 0.572E+02 0.411E+02   -.212E+02 -.627E+02 -.449E+02   0.150E+01 0.479E+01 0.344E+01   0.245E-05 0.991E-05 0.121E-04
   0.141E+02 0.693E+02 -.238E+02   -.158E+02 -.772E+02 0.264E+02   0.111E+01 0.618E+01 -.181E+01   0.264E-05 0.259E-05 -.583E-05
   -.140E+02 -.623E+02 -.116E+02   0.153E+02 0.679E+02 0.109E+02   -.164E+01 -.551E+01 0.525E+00   0.234E-05 0.126E-05 -.113E-04
   0.880E+01 0.132E+02 -.636E+02   -.940E+01 -.145E+02 0.676E+02   0.751E+00 0.200E+01 -.478E+01   0.456E-06 -.314E-05 -.109E-05
 -----------------------------------------------------------------------------------------------
   0.371E+00 -.255E+01 0.725E+00   0.178E-14 0.178E-13 0.142E-13   -.378E+00 0.252E+01 -.723E+00   0.672E-05 0.185E-04 -.777E-05
 
 
 POSITION                                       TOTAL-FORCE (eV/Angst)
 -----------------------------------------------------------------------------------
      7.98700      8.00500      5.98500        -0.582272     -1.059294      0.064771
      7.37500      7.01600      6.73300         1.567424      2.151147     -1.928872
      7.19300      6.91600      8.13900         0.148775      1.953542      0.730713
      7.23200      7.85500      9.12200         0.167879     -1.406669      0.617464
      8.09100      7.84200      4.88100        -0.092253      0.263671      0.911767
      8.41000      8.93200      6.39500        -0.133665     -0.235474      0.004909
      7.10100      6.16400      6.14700        -0.399965     -0.761597     -0.273061
      7.00700      5.93100      8.42800        -0.576597     -1.718863      0.797888
      7.53100      8.89600      9.01400        -0.257491      0.073928     -0.151208
      7.07300      7.44300     10.15600         0.158165      0.739609     -0.774372
 -----------------------------------------------------------------------------------
    total drift:                               -0.007528     -0.023688      0.001217


--------------------------------------------------------------------------------------------------------



  FREE ENERGIE OF THE ION-ELECTRON SYSTEM (eV)
  ---------------------------------------------------
  free  energy   TOTEN  =       -56.57886277 eV

  energy  without entropy=      -56.57886277  energy(sigma->0) =      -56.57886277
 


--------------------------------------------------------------------------------------------------------


    POTLOK:  cpu time      0.5081: real time      0.5106


--------------------------------------------------------------------------------------------------------


 stress matrix after NEB project (eV)
     -0.48527     -0.22697      0.47386
     -0.22697      0.20708      0.03202
      0.47387      0.03202     -0.85224
  FORCES: max atom, RMS     3.287066    1.613005
  FORCE total and by dimension    5.100771    2.151147
  Stress total and by dimension    1.248548    0.852245
     LOOP+:  cpu time     30.3551: real time     30.5081
    4ORBIT:  cpu time      0.0000: real time      0.0000

 total amount of memory used by VASP MPI-rank0   224783. kBytes
=======================================================================

   base      :      30000. kBytes
   nonlr-proj:       1259. kBytes
   fftplans  :     123538. kBytes
   grid      :      67787. kBytes
   one-center:         15. kBytes
   wavefun   :       2184. kBytes
 
  
  
 General timing and accounting informations for this job:
 ========================================================
  
                  Total CPU time used (sec):       36.904
                            User time (sec):       33.707
                          System time (sec):        3.197
                         Elapsed time (sec):       38.195
  
                   Maximum memory used (kb):      558864.
                   Average memory used (kb):          N/A
  
                          Minor page faults:       189776
                          Major page faults:         5444
                 Voluntary context switches:         3111
