 vasp.6.4.2 20Jul23 (build Apr 10 2024 13:39:58) complex                        
  
 executed on             LinuxIFC date 2024.05.18  15:05:53
 running   16 mpi-ranks, on    1 nodes
 distrk:  each k-point on   16 cores,    1 groups
 distr:  one band on NCORE=   2 cores,    8 groups


--------------------------------------------------------------------------------------------------------


 INCAR:
   ISTART = 0
   ISPIN = 1
   LREAL = Auto
   ENCUT = 520
   NPAR = 8
   LPLANE = .TRUE.
   LSCALU = .FALSE.
   NSIM = 4
   LWAVE = .FALSE.
   LCHARG = .FALSE.
   ADDGRID = .TRUE.
   LASPH = .TRUE.
   PREC = Accurate
   ISMEAR = 0
   SIGMA = 0.05
   EDIFF = 1E-06
   NSW = 0
   TEBEG = 300
   TEEND = 700     	
   ISYM = 0
   NWRITE = 2

 POTCAR:   PAW_PBE C 08Apr2002                    
 POTCAR:   PAW_PBE H 15Jun2001                    
 POTCAR:   PAW_PBE C 08Apr2002                    
   VRHFIN =C: s2p2                                                                                  
   LEXCH  = PE                                                                                      
   EATOM  =   147.1560 eV,   10.8157 Ry                                                             
                                                                                                    
   TITEL  = PAW_PBE C 08Apr2002                                                                     
   LULTRA =        F    use ultrasoft PP ?                                                          
   IUNSCR =        0    unscreen: 0-lin 1-nonlin 2-no                                               
   RPACOR =     .000    partial core radius                                                         
   POMASS =   12.011; ZVAL   =    4.000    mass and valenz                                          
   RCORE  =    1.500    outmost cutoff radius                                                       
   RWIGS  =    1.630; RWIGS  =     .863    wigner-seitz radius (au A)                               
   ENMAX  =  400.000; ENMIN  =  300.000 eV                                                          
   ICORE  =        2    local potential                                                             
   LCOR   =        T    correct aug charges                                                         
   LPAW   =        T    paw PP                                                                      
   EAUG   =  644.873                                                                                
   DEXC   =     .000                                                                                
   RMAX   =    2.266    core radius for proj-oper                                                   
   RAUG   =    1.300    factor for augmentation sphere                                              
   RDEP   =    1.501    radius for radial grids                                                     
   RDEPT  =    1.300    core radius for aug-charge                                                  
   QCUT   =   -5.516; QGAM   =   11.032    optimization parameters                                  
                                                                                                    
   Description                                                                                      
     l     E      TYP  RCUT    TYP  RCUT                                                            
     0   .000     23  1.200                                                                         
     0   .000     23  1.200                                                                         
     1   .000     23  1.500                                                                         
     1  2.500     23  1.500                                                                         
     2   .000      7  1.500                                                                         
  local pseudopotential read in
  atomic valenz-charges read in
  non local Contribution for L=           0  read in
    real space projection operators read in
  non local Contribution for L=           0  read in
    real space projection operators read in
  non local Contribution for L=           1  read in
    real space projection operators read in
  non local Contribution for L=           1  read in
    real space projection operators read in
    PAW grid and wavefunctions read in
 
   number of l-projection  operators is LMAX  =           4
   number of lm-projection operators is LMMAX =           8
 
 POTCAR:   PAW_PBE H 15Jun2001                    
   VRHFIN =H: ultrasoft test                                                                        
   LEXCH  = PE                                                                                      
   EATOM  =    12.4884 eV,     .9179 Ry                                                             
                                                                                                    
   TITEL  = PAW_PBE H 15Jun2001                                                                     
   LULTRA =        F    use ultrasoft PP ?                                                          
   IUNSCR =        0    unscreen: 0-lin 1-nonlin 2-no                                               
   RPACOR =     .000    partial core radius                                                         
   POMASS =    1.000; ZVAL   =    1.000    mass and valenz                                          
   RCORE  =    1.100    outmost cutoff radius                                                       
   RWIGS  =     .700; RWIGS  =     .370    wigner-seitz radius (au A)                               
   ENMAX  =  250.000; ENMIN  =  200.000 eV                                                          
   RCLOC  =     .701    cutoff for local pot                                                        
   LCOR   =        T    correct aug charges                                                         
   LPAW   =        T    paw PP                                                                      
   EAUG   =  400.000                                                                                
   RMAX   =    2.174    core radius for proj-oper                                                   
   RAUG   =    1.200    factor for augmentation sphere                                              
   RDEP   =    1.112    radius for radial grids                                                     
   QCUT   =   -5.749; QGAM   =   11.498    optimization parameters                                  
                                                                                                    
   Description                                                                                      
     l     E      TYP  RCUT    TYP  RCUT                                                            
     0   .000     23  1.100                                                                         
     0   .500     23  1.100                                                                         
     1  -.300     23  1.100                                                                         
  local pseudopotential read in
  atomic valenz-charges read in
  non local Contribution for L=           0  read in
    real space projection operators read in
  non local Contribution for L=           0  read in
    real space projection operators read in
  non local Contribution for L=           1  read in
    real space projection operators read in
    PAW grid and wavefunctions read in
 
   number of l-projection  operators is LMAX  =           3
   number of lm-projection operators is LMMAX =           5
 
 Optimization of the real space projectors (new method)

 maximal supplied QI-value         = 25.13
 optimisation between [QCUT,QGAM] = [ 11.56, 23.12] = [ 37.43,149.72] Ry 
 Optimized for a Real-space Cutoff    1.04 Angstroem

   l    n(q)    QCUT    max X(q) W(low)/X(q) W(high)/X(q)  e(spline) 
   0      7    11.561     5.582    0.47E-04    0.94E-04    0.17E-07
   0      7    11.561    69.432    0.20E-03    0.59E-03    0.21E-06
   1      7    11.561     2.780    0.24E-04    0.70E-04    0.44E-07
   1      7    11.561     4.549    0.18E-03    0.25E-03    0.12E-06
 Optimization of the real space projectors (new method)

 maximal supplied QI-value         = 34.20
 optimisation between [QCUT,QGAM] = [ 11.63, 23.26] = [ 37.87,151.49] Ry 
 Optimized for a Real-space Cutoff    1.21 Angstroem

   l    n(q)    QCUT    max X(q) W(low)/X(q) W(high)/X(q)  e(spline) 
   0      8    11.629     4.436    0.19E-04    0.32E-04    0.47E-07
   0      8    11.629    16.131    0.16E-03    0.33E-03    0.21E-06
   1      8    11.629     4.654    0.18E-03    0.16E-03    0.26E-06
 PAW_PBE C 08Apr2002                    :
 energy of atom  1       EATOM= -147.1560
 kinetic energy error for atom=    0.0071 (will be added to EATOM!!)
 PAW_PBE H 15Jun2001                    :
 energy of atom  2       EATOM=  -12.4884
 kinetic energy error for atom=    0.0014 (will be added to EATOM!!)
 
 
 POSCAR:  C  H
  positions in cartesian coordinates
  No initial velocities read in
 exchange correlation table for  LEXCH =        8
   RHO(1)=    0.500       N(1)  =     2000
   RHO(2)=  100.500       N(2)  =     4000

 VTST: version 4.1, (05/19/21)

 CHAIN: initializing optimizer
 
 OPT: Using VASP Dynamics algorithm
 CHAIN: Read ICHAIN            0
 
 POSCAR:  C  H
  positions in cartesian coordinates
  No initial velocities read in
 


--------------------------------------------------------------------------------------------------------


 ion  position               nearest neighbor table
   1  0.525  0.538  0.438-   6 1.07   5 1.14   2 1.50   4 1.94
   2  0.485  0.447  0.450-   7 1.13   3 1.37   1 1.50
   3  0.475  0.440  0.540-   8 1.06   2 1.37   4 1.49
   4  0.500  0.533  0.564-  10 1.07   9 1.09   3 1.49   1 1.94
   5  0.601  0.541  0.436-   1 1.14
   6  0.493  0.593  0.405-   1 1.07
   7  0.466  0.399  0.394-   2 1.13
   8  0.454  0.389  0.585-   3 1.06
   9  0.556  0.543  0.610-   4 1.09
  10  0.446  0.578  0.578-   4 1.07
 

IMPORTANT INFORMATION: All symmetrisations will be switched off!
NOSYMM: (Re-)initialisation of all symmetry stuff for point group C_1.


----------------------------------------------------------------------------------------

                                     Primitive cell                                     

  volume of cell :    3375.0000

  direct lattice vectors                    reciprocal lattice vectors
    15.000000000  0.000000000  0.000000000     0.066666667  0.000000000  0.000000000
     0.000000000 15.000000000  0.000000000     0.000000000  0.066666667  0.000000000
     0.000000000  0.000000000 15.000000000     0.000000000  0.000000000  0.066666667

  length of vectors
    15.000000000 15.000000000 15.000000000     0.066666667  0.066666667  0.066666667

  position of ions in fractional coordinates (direct lattice)
     0.525066662  0.538066673  0.438066673
     0.484666665  0.447066657  0.449533335
     0.474733321  0.439599991  0.540333303
     0.499800014  0.532933331  0.564466667
     0.601000023  0.541400019  0.435933336
     0.492866675  0.592733320  0.404999987
     0.465999985  0.398733330  0.394466654
     0.453666655  0.388600000  0.584866651
     0.556066640  0.543199984  0.609600004
     0.446133327  0.577733358  0.577733358

  ion indices of the primitive-cell ions
   primitive index   ion index
                 1           1
                 2           2
                 3           3
                 4           4
                 5           5
                 6           6
                 7           7
                 8           8
                 9           9
                10          10

----------------------------------------------------------------------------------------

 
 
 KPOINTS: K-Spacing Value to Generate K-Mesh: 1.00

Automatic generation of k-mesh.
 Grid dimensions read from file:
 generate k-points for:    1    1    1

 Generating k-lattice:

  Cartesian coordinates                     Fractional coordinates (reciprocal lattice)
     0.066666667  0.000000000  0.000000000     1.000000000  0.000000000  0.000000000
     0.000000000  0.066666667  0.000000000     0.000000000  1.000000000  0.000000000
     0.000000000  0.000000000  0.066666667     0.000000000  0.000000000  1.000000000

  Length of vectors
     0.066666667  0.066666667  0.066666667

  Shift w.r.t. Gamma in fractional coordinates (k-lattice)
     0.000000000  0.000000000  0.000000000

 
 Subroutine IBZKPT returns following result:
 ===========================================
 
 Found      1 irreducible k-points:
 
 Following reciprocal coordinates:
            Coordinates               Weight
  0.000000  0.000000  0.000000      1.000000
 
 Following cartesian coordinates:
            Coordinates               Weight
  0.000000  0.000000  0.000000      1.000000
 


--------------------------------------------------------------------------------------------------------




 Dimension of arrays:
   k-points           NKPTS =      1   k-points in BZ     NKDIM =      1   number of bands    NBANDS=     24
   number of dos      NEDOS =    301   number of ions     NIONS =     10
   non local maximal  LDIM  =      4   non local SUM 2l+1 LMDIM =      8
   total plane-waves  NPLWV = ******
   max r-space proj   IRMAX =   3145   max aug-charges    IRDMAX=  39494
   dimension x,y,z NGX =   112 NGY =  112 NGZ =  112
   dimension x,y,z NGXF=   224 NGYF=  224 NGZF=  224
   support grid    NGXF=   448 NGYF=  448 NGZF=  448
   ions per type =               4   6
   NGX,Y,Z   is equivalent  to a cutoff of  12.41, 12.41, 12.41 a.u.
   NGXF,Y,Z  is equivalent  to a cutoff of  24.83, 24.83, 24.83 a.u.

 SYSTEM =  unknown system                          
 POSCAR =   C  H                                   

 Startparameter for this run:
   NWRITE =      2    write-flag & timer
   PREC   = accura    normal or accurate (medium, high low for compatibility)
   ISTART =      0    job   : 0-new  1-cont  2-samecut
   ICHARG =      2    charge: 1-file 2-atom 10-const
   ISPIN  =      1    spin polarized calculation?
   LNONCOLLINEAR =      F non collinear calculations
   LSORBIT =      F    spin-orbit coupling
   INIWAV =      1    electr: 0-lowe 1-rand  2-diag
   LASPH  =      T    aspherical Exc in radial PAW
 Electronic Relaxation 1
   ENCUT  =  520.0 eV  38.22 Ry    6.18 a.u.  27.89 27.89 27.89*2*pi/ulx,y,z
   ENINI  =  520.0     initial cutoff
   ENAUG  =  644.9 eV  augmentation charge cutoff
   NELM   =     60;   NELMIN=  2; NELMDL= -5     # of ELM steps 
   EDIFF  = 0.1E-05   stopping-criterion for ELM
   LREAL  =      T    real-space projection
   NLSPLINE    = F    spline interpolate recip. space projectors
   LCOMPAT=      F    compatible to vasp.4.4
   GGA_COMPAT  = T    GGA compatible to vasp.4.4-vasp.4.6
   LMAXPAW     = -100 max onsite density
   LMAXMIX     =    2 max onsite mixed and CHGCAR
   VOSKOWN=      0    Vosko Wilk Nusair interpolation
   ROPT   =   -0.00025  -0.00025
 Ionic relaxation
   EDIFFG = 0.1E-04   stopping-criterion for IOM
   NSW    =      0    number of steps for IOM
   NBLOCK =      1;   KBLOCK =      1    inner block; outer block 
   IBRION =     -1    ionic relax: 0-MD 1-quasi-New 2-CG
   NFREE  =      0    steps in history (QN), initial steepest desc. (CG)
   ISIF   =      2    stress and relaxation
   IWAVPR =     10    prediction:  0-non 1-charg 2-wave 3-comb
   ISYM   =      0    0-nonsym 1-usesym 2-fastsym
   LCORR  =      T    Harris-Foulkes like correction to forces

   POTIM  = 0.5000    time-step for ionic-motion
   TEIN   =    0.0    initial temperature
   TEBEG  =  300.0;   TEEND  = 700.0 temperature during run
   SMASS  =  -3.00    Nose mass-parameter (am)
   estimated Nose-frequenzy (Omega)   =  0.10E-29 period in steps = 0.13E+47 mass=  -0.514E-26a.u.
   SCALEE = 1.0000    scale energy and forces
   NPACO  =    256;   APACO  = 10.0  distance and # of slots for P.C.
   PSTRESS=    0.0 pullay stress

  Mass of Ions in am
   POMASS =  12.01  1.00
  Ionic Valenz
   ZVAL   =   4.00  1.00
  Atomic Wigner-Seitz radii
   RWIGS  =  -1.00 -1.00
  virtual crystal weights 
   VCA    =   1.00  1.00
   NELECT =      22.0000    total number of electrons
   NUPDOWN=      -1.0000    fix difference up-down

 DOS related values:
   EMIN   =  10.00;   EMAX   =-10.00  energy-range for DOS
   EFERMI =   0.00;   METHOD = LEGACY      
   ISMEAR =     0;   SIGMA  =   0.05  broadening in eV -4-tet -1-fermi 0-gaus

 Electronic relaxation 2 (details)
   IALGO  =     38    algorithm
   LDIAG  =      T    sub-space diagonalisation (order eigenvalues)
   LSUBROT=      F    optimize rotation matrix (better conditioning)
   TURBO    =      0    0=normal 1=particle mesh
   IRESTART =      0    0=no restart 2=restart with 2 vectors
   NREBOOT  =      0    no. of reboots
   NMIN     =      0    reboot dimension
   EREF     =   0.00    reference energy to select bands
   IMIX   =      4    mixing-type and parameters
     AMIX     =   0.40;   BMIX     =  1.00
     AMIX_MAG =   1.60;   BMIX_MAG =  1.00
     AMIN     =   0.10
     WC   =   100.;   INIMIX=   1;  MIXPRE=   1;  MAXMIX= -45

 Intra band minimization:
   WEIMIN = 0.0000     energy-eigenvalue tresh-hold
   EBREAK =  0.10E-07  absolut break condition
   DEPER  =   0.30     relativ break condition  

   TIME   =   0.40     timestep for ELM

  volume/ion in A,a.u.               =     337.50      2277.56
  Fermi-wavevector in a.u.,A,eV,Ry     =   0.305814  0.577905  1.272449  0.093522
  Thomas-Fermi vector in A             =   1.179187
 
 Write flags
   LWAVE        =      F    write WAVECAR
   LDOWNSAMPLE  =      F    k-point downsampling of WAVECAR
   LCHARG       =      F    write CHGCAR
   LVTOT        =      F    write LOCPOT, total local potential
   LVHAR        =      F    write LOCPOT, Hartree potential only
   LELF         =      F    write electronic localiz. function (ELF)
   LORBIT       =      0    0 simple, 1 ext, 2 COOP (PROOUT), +10 PAW based schemes


 Dipole corrections
   LMONO  =      F    monopole corrections only (constant potential shift)
   LDIPOL =      F    correct potential (dipole corrections)
   IDIPOL =      0    1-x, 2-y, 3-z, 4-all directions 
   EPSILON=  1.0000000 bulk dielectric constant

 Exchange correlation treatment:
   GGA     =    --    GGA type
   LEXCH   =     8    internal setting for exchange type
   LIBXC   =     F    Libxc                    
   VOSKOWN =     0    Vosko Wilk Nusair interpolation
   LHFCALC =     F    Hartree Fock is set to
   LHFONE  =     F    Hartree Fock one center treatment
   AEXX    =    0.0000 exact exchange contribution

 Linear response parameters
   LEPSILON=     F    determine dielectric tensor
   LRPA    =     F    only Hartree local field effects (RPA)
   LNABLA  =     F    use nabla operator in PAW spheres
   LVEL    =     F    velocity operator in full k-point grid
   CSHIFT  =0.1000    complex shift for real part using Kramers Kronig
   OMEGAMAX=  -1.0    maximum frequency
   DEG_THRESHOLD= 0.2000000E-02 threshold for treating states as degnerate
   RTIME   =   -0.100 relaxation time in fs
  (WPLASMAI=    0.000 imaginary part of plasma frequency in eV, 0.658/RTIME)
   DFIELD  = 0.0000000 0.0000000 0.0000000 field for delta impulse in time
 
  Optional k-point grid parameters
   LKPOINTS_OPT  =     F    use optional k-point grid
   KPOINTS_OPT_MODE=     1    mode for optional k-point grid
 
 Orbital magnetization related:
   ORBITALMAG=     F  switch on orbital magnetization
   LCHIMAG   =     F  perturbation theory with respect to B field
   DQ        =  0.001000  dq finite difference perturbation B field
   LLRAUG    =     F  two centre corrections for induced B field
   LBONE     =     F  B-component reconstruction in AE one-centre
   LVGVCALC  =     T  calculate vGv susceptibility
   LVGVAPPL  =     F  apply vGv susceptibility instead of pGv for G=0

 Random number generation:
   RANDOM_GENERATOR = DEFAULT
   PCG_SEED         = not used


--------------------------------------------------------------------------------------------------------


 Static calculation
 charge density and potential will be updated during run
 non-spin polarized calculation
 Variant of blocked Davidson
 Davidson routine will perform the subspace rotation
 perform sub-space diagonalisation
    after iterative eigenvector-optimisation
 modified Broyden-mixing scheme, WC =      100.0
 initial mixing is a Kerker type mixing with AMIX =  0.4000 and BMIX =      1.0000
 Hartree-type preconditioning will be used
 using additional bands           13
 real space projection scheme for non local part
 calculate Harris-corrections to forces 
   (improved forces if not selfconsistent)
 use gradient corrections 
 use of overlap-Matrix (Vanderbilt PP)
 Gauss-broadening in eV      SIGMA  =   0.05


--------------------------------------------------------------------------------------------------------


  energy-cutoff  :      520.00
  volume of cell :     3375.00
      direct lattice vectors                 reciprocal lattice vectors
    15.000000000  0.000000000  0.000000000     0.066666667  0.000000000  0.000000000
     0.000000000 15.000000000  0.000000000     0.000000000  0.066666667  0.000000000
     0.000000000  0.000000000 15.000000000     0.000000000  0.000000000  0.066666667

  length of vectors
    15.000000000 15.000000000 15.000000000     0.066666667  0.066666667  0.066666667


 
 k-points in units of 2pi/SCALE and weight: K-Spacing Value to Generate K-Mesh: 1.00
   0.00000000  0.00000000  0.00000000       1.000
 
 k-points in reciprocal lattice and weights: K-Spacing Value to Generate K-Mesh: 1.00
   0.00000000  0.00000000  0.00000000       1.000
 
 position of ions in fractional coordinates (direct lattice) 
   0.52506666  0.53806667  0.43806667
   0.48466667  0.44706666  0.44953334
   0.47473332  0.43959999  0.54033330
   0.49980001  0.53293333  0.56446667
   0.60100002  0.54140002  0.43593334
   0.49286668  0.59273332  0.40499999
   0.46599998  0.39873333  0.39446665
   0.45366666  0.38860000  0.58486665
   0.55606664  0.54319998  0.60960000
   0.44613333  0.57773336  0.57773336
 
 position of ions in cartesian coordinates  (Angst):
   7.87599993  8.07100010  6.57100010
   7.26999998  6.70599985  6.74300003
   7.12099981  6.59399986  8.10499954
   7.49700022  7.99399996  8.46700001
   9.01500034  8.12100029  6.53900003
   7.39300013  8.89099979  6.07499981
   6.98999977  5.98099995  5.91699982
   6.80499983  5.82900000  8.77299976
   8.34099960  8.14799976  9.14400005
   6.69199991  8.66600037  8.66600037
 


--------------------------------------------------------------------------------------------------------


 k-point   1 :   0.0000 0.0000 0.0000  plane waves:   90879

 maximum and minimum number of plane-waves per node :     45467    45412

 maximum number of plane-waves:     90879
 maximum index in each direction: 
   IXMAX=   27   IYMAX=   27   IZMAX=   27
   IXMIN=  -27   IYMIN=  -27   IZMIN=  -27


 real space projection operators:
  total allocation   :       1186.46 KBytes
  max/ min on nodes  :        593.25        593.21


 parallel 3D FFT for wavefunctions:
    minimum data exchange during FFTs selected (reduces bandwidth)
 parallel 3D FFT for charge:
    minimum data exchange during FFTs selected (reduces bandwidth)


 total amount of memory used by VASP MPI-rank0   224784. kBytes
=======================================================================

   base      :      30000. kBytes
   nonlr-proj:       1260. kBytes
   fftplans  :     123538. kBytes
   grid      :      67787. kBytes
   one-center:         15. kBytes
   wavefun   :       2184. kBytes
 
     INWAV:  cpu time      0.0000: real time      0.0000
 Broyden mixing: mesh for mixing (old mesh)
   NGX = 55   NGY = 55   NGZ = 55
  (NGX  =224   NGY  =224   NGZ  =224)
  gives a total of 166375 points

 initial charge density was supplied:
 charge density of overlapping atoms calculated
 number of electron      22.0000000 magnetization 
 keeping initial charge density in first step


--------------------------------------------------------------------------------------------------------


 Maximum index for non-local projection operator         1512
 Maximum index for augmentation-charges         2501 (set IRDMAX)


--------------------------------------------------------------------------------------------------------


 First call to EWALD:  gamma=   0.118
 Maximum number of real-space cells 3x 3x 3
 Maximum number of reciprocal cells 3x 3x 3

    FEWALD:  cpu time      0.0012: real time      0.0013


--------------------------------------- Ionic step        1  -------------------------------------------




--------------------------------------- Iteration      1(   1)  ---------------------------------------


    POTLOK:  cpu time      0.3365: real time      0.3384
    SETDIJ:  cpu time      0.1936: real time      0.1944
     EDDAV:  cpu time      0.4165: real time      0.4188
       DOS:  cpu time      0.0002: real time      0.0002
    --------------------------------------------
      LOOP:  cpu time      0.9469: real time      0.9518

 eigenvalue-minimisations  :    64
 total energy-change (2. order) : 0.9700699E+02  (-0.5326838E+03)
 number of electron      22.0000000 magnetization 
 augmentation part       22.0000000 magnetization 

 Free energy of the ion-electron system (eV)
  ---------------------------------------------------
  alpha Z        PSCENC =         0.62641250
  Ewald energy   TEWEN  =       950.26360735
  -Hartree energ DENC   =     -1378.76319266
  -exchange      EXHF   =         0.00000000
  -V(xc)+E(xc)   XCENC  =        67.31789356
  PAW double counting   =       156.01372664     -160.66969168
  entropy T*S    EENTRO =        -0.00015464
  eigenvalues    EBANDS =      -201.29901173
  atomic energy  EATOM  =       663.51739852
  Solvation  Ediel_sol  =         0.00000000
  ---------------------------------------------------
  free energy    TOTEN  =        97.00698788 eV

  energy without entropy =       97.00714252  energy(sigma->0) =       97.00706520


--------------------------------------------------------------------------------------------------------




--------------------------------------- Iteration      1(   2)  ---------------------------------------


     EDDAV:  cpu time      0.4849: real time      0.4876
       DOS:  cpu time      0.0001: real time      0.0001
    --------------------------------------------
      LOOP:  cpu time      0.4850: real time      0.4877

 eigenvalue-minimisations  :    80
 total energy-change (2. order) :-0.1163033E+03  (-0.1135069E+03)
 number of electron      22.0000000 magnetization 
 augmentation part       22.0000000 magnetization 

 Free energy of the ion-electron system (eV)
  ---------------------------------------------------
  alpha Z        PSCENC =         0.62641250
  Ewald energy   TEWEN  =       950.26360735
  -Hartree energ DENC   =     -1378.76319266
  -exchange      EXHF   =         0.00000000
  -V(xc)+E(xc)   XCENC  =        67.31789356
  PAW double counting   =       156.01372664     -160.66969168
  entropy T*S    EENTRO =        -0.00000000
  eigenvalues    EBANDS =      -317.60242326
  atomic energy  EATOM  =       663.51739852
  Solvation  Ediel_sol  =         0.00000000
  ---------------------------------------------------
  free energy    TOTEN  =       -19.29626902 eV

  energy without entropy =      -19.29626902  energy(sigma->0) =      -19.29626902


--------------------------------------------------------------------------------------------------------




--------------------------------------- Iteration      1(   3)  ---------------------------------------


     EDDAV:  cpu time      0.4041: real time      0.4064
       DOS:  cpu time      0.0001: real time      0.0001
    --------------------------------------------
      LOOP:  cpu time      0.4042: real time      0.4065

 eigenvalue-minimisations  :    64
 total energy-change (2. order) :-0.3779897E+02  (-0.3772146E+02)
 number of electron      22.0000000 magnetization 
 augmentation part       22.0000000 magnetization 

 Free energy of the ion-electron system (eV)
  ---------------------------------------------------
  alpha Z        PSCENC =         0.62641250
  Ewald energy   TEWEN  =       950.26360735
  -Hartree energ DENC   =     -1378.76319266
  -exchange      EXHF   =         0.00000000
  -V(xc)+E(xc)   XCENC  =        67.31789356
  PAW double counting   =       156.01372664     -160.66969168
  entropy T*S    EENTRO =        -0.00000000
  eigenvalues    EBANDS =      -355.40139612
  atomic energy  EATOM  =       663.51739852
  Solvation  Ediel_sol  =         0.00000000
  ---------------------------------------------------
  free energy    TOTEN  =       -57.09524187 eV

  energy without entropy =      -57.09524187  energy(sigma->0) =      -57.09524187


--------------------------------------------------------------------------------------------------------




--------------------------------------- Iteration      1(   4)  ---------------------------------------


     EDDAV:  cpu time      0.4425: real time      0.4450
       DOS:  cpu time      0.0001: real time      0.0001
    --------------------------------------------
      LOOP:  cpu time      0.4426: real time      0.4451

 eigenvalue-minimisations  :    72
 total energy-change (2. order) :-0.4436429E+01  (-0.4428108E+01)
 number of electron      22.0000000 magnetization 
 augmentation part       22.0000000 magnetization 

 Free energy of the ion-electron system (eV)
  ---------------------------------------------------
  alpha Z        PSCENC =         0.62641250
  Ewald energy   TEWEN  =       950.26360735
  -Hartree energ DENC   =     -1378.76319266
  -exchange      EXHF   =         0.00000000
  -V(xc)+E(xc)   XCENC  =        67.31789356
  PAW double counting   =       156.01372664     -160.66969168
  entropy T*S    EENTRO =        -0.00000000
  eigenvalues    EBANDS =      -359.83782526
  atomic energy  EATOM  =       663.51739852
  Solvation  Ediel_sol  =         0.00000000
  ---------------------------------------------------
  free energy    TOTEN  =       -61.53167101 eV

  energy without entropy =      -61.53167101  energy(sigma->0) =      -61.53167101


--------------------------------------------------------------------------------------------------------




--------------------------------------- Iteration      1(   5)  ---------------------------------------


     EDDAV:  cpu time      0.4064: real time      0.4086
       DOS:  cpu time      0.0001: real time      0.0001
    CHARGE:  cpu time      0.1977: real time      0.1985
    MIXING:  cpu time      0.0150: real time      0.0151
    --------------------------------------------
      LOOP:  cpu time      0.6192: real time      0.6223

 eigenvalue-minimisations  :    64
 total energy-change (2. order) :-0.3142676E-01  (-0.3142233E-01)
 number of electron      22.0000000 magnetization 
 augmentation part        0.5549435 magnetization 

 Broyden mixing:
  rms(total) = 0.11249E+01    rms(broyden)= 0.11247E+01
  rms(prec ) = 0.13518E+01
  weight for this iteration     100.00

 Free energy of the ion-electron system (eV)
  ---------------------------------------------------
  alpha Z        PSCENC =         0.62641250
  Ewald energy   TEWEN  =       950.26360735
  -Hartree energ DENC   =     -1378.76319266
  -exchange      EXHF   =         0.00000000
  -V(xc)+E(xc)   XCENC  =        67.31789356
  PAW double counting   =       156.01372664     -160.66969168
  entropy T*S    EENTRO =        -0.00000000
  eigenvalues    EBANDS =      -359.86925202
  atomic energy  EATOM  =       663.51739852
  Solvation  Ediel_sol  =         0.00000000
  ---------------------------------------------------
  free energy    TOTEN  =       -61.56309778 eV

  energy without entropy =      -61.56309778  energy(sigma->0) =      -61.56309778


--------------------------------------------------------------------------------------------------------




--------------------------------------- Iteration      1(   6)  ---------------------------------------


    POTLOK:  cpu time      0.3086: real time      0.3103
    SETDIJ:  cpu time      0.1926: real time      0.1934
     EDDAV:  cpu time      0.4026: real time      0.4048
       DOS:  cpu time      0.0001: real time      0.0001
    CHARGE:  cpu time      0.1927: real time      0.1935
    MIXING:  cpu time      0.0142: real time      0.0143
    --------------------------------------------
      LOOP:  cpu time      1.1108: real time      1.1164

 eigenvalue-minimisations  :    64
 total energy-change (2. order) : 0.4561017E+01  (-0.6337678E+00)
 number of electron      22.0000000 magnetization 
 augmentation part        0.5128285 magnetization 

 Broyden mixing:
  rms(total) = 0.56160E+00    rms(broyden)= 0.56157E+00
  rms(prec ) = 0.66771E+00
  weight for this iteration     100.00

 eigenvalues of (default mixing * dielectric matrix)
  average eigenvalue GAMMA=   1.6834
  1.6834

 Free energy of the ion-electron system (eV)
  ---------------------------------------------------
  alpha Z        PSCENC =         0.62641250
  Ewald energy   TEWEN  =       950.26360735
  -Hartree energ DENC   =     -1423.96482421
  -exchange      EXHF   =         0.00000000
  -V(xc)+E(xc)   XCENC  =        69.55789588
  PAW double counting   =       222.29575174     -227.44819530
  entropy T*S    EENTRO =        -0.00000000
  eigenvalues    EBANDS =      -311.85012739
  atomic energy  EATOM  =       663.51739852
  Solvation  Ediel_sol  =         0.00000000
  ---------------------------------------------------
  free energy    TOTEN  =       -57.00208091 eV

  energy without entropy =      -57.00208091  energy(sigma->0) =      -57.00208091


--------------------------------------------------------------------------------------------------------




--------------------------------------- Iteration      1(   7)  ---------------------------------------


    POTLOK:  cpu time      0.3100: real time      0.3116
    SETDIJ:  cpu time      0.1924: real time      0.1932
     EDDAV:  cpu time      0.4117: real time      0.4139
       DOS:  cpu time      0.0001: real time      0.0001
    CHARGE:  cpu time      0.1946: real time      0.1953
    MIXING:  cpu time      0.0143: real time      0.0143
    --------------------------------------------
      LOOP:  cpu time      1.1230: real time      1.1285

 eigenvalue-minimisations  :    64
 total energy-change (2. order) : 0.1233478E+01  (-0.4073783E+00)
 number of electron      22.0000000 magnetization 
 augmentation part        0.4829817 magnetization 

 Broyden mixing:
  rms(total) = 0.21246E+00    rms(broyden)= 0.21241E+00
  rms(prec ) = 0.24627E+00
  weight for this iteration     100.00

 eigenvalues of (default mixing * dielectric matrix)
  average eigenvalue GAMMA=   1.8942
  1.8942  1.8942

 Free energy of the ion-electron system (eV)
  ---------------------------------------------------
  alpha Z        PSCENC =         0.62641250
  Ewald energy   TEWEN  =       950.26360735
  -Hartree energ DENC   =     -1462.90828564
  -exchange      EXHF   =         0.00000000
  -V(xc)+E(xc)   XCENC  =        71.75679666
  PAW double counting   =       280.72452177     -286.12337685
  entropy T*S    EENTRO =        -0.00000000
  eigenvalues    EBANDS =      -273.62567727
  atomic energy  EATOM  =       663.51739852
  Solvation  Ediel_sol  =         0.00000000
  ---------------------------------------------------
  free energy    TOTEN  =       -55.76860296 eV

  energy without entropy =      -55.76860296  energy(sigma->0) =      -55.76860296


--------------------------------------------------------------------------------------------------------




--------------------------------------- Iteration      1(   8)  ---------------------------------------


    POTLOK:  cpu time      0.3134: real time      0.3151
    SETDIJ:  cpu time      0.1931: real time      0.1939
     EDDAV:  cpu time      0.3660: real time      0.3680
       DOS:  cpu time      0.0001: real time      0.0001
    CHARGE:  cpu time      0.1921: real time      0.1929
    MIXING:  cpu time      0.0134: real time      0.0135
    --------------------------------------------
      LOOP:  cpu time      1.0781: real time      1.0834

 eigenvalue-minimisations  :    56
 total energy-change (2. order) : 0.1606796E+00  (-0.3103481E-01)
 number of electron      22.0000000 magnetization 
 augmentation part        0.4859369 magnetization 

 Broyden mixing:
  rms(total) = 0.43103E-01    rms(broyden)= 0.43099E-01
  rms(prec ) = 0.76993E-01
  weight for this iteration     100.00

 eigenvalues of (default mixing * dielectric matrix)
  average eigenvalue GAMMA=   1.6126
  2.2878  0.9067  1.6434

 Free energy of the ion-electron system (eV)
  ---------------------------------------------------
  alpha Z        PSCENC =         0.62641250
  Ewald energy   TEWEN  =       950.26360735
  -Hartree energ DENC   =     -1469.17948184
  -exchange      EXHF   =         0.00000000
  -V(xc)+E(xc)   XCENC  =        72.26168668
  PAW double counting   =       283.17016864     -288.42934654
  entropy T*S    EENTRO =        -0.00000000
  eigenvalues    EBANDS =      -267.83836868
  atomic energy  EATOM  =       663.51739852
  Solvation  Ediel_sol  =         0.00000000
  ---------------------------------------------------
  free energy    TOTEN  =       -55.60792337 eV

  energy without entropy =      -55.60792337  energy(sigma->0) =      -55.60792337


--------------------------------------------------------------------------------------------------------




--------------------------------------- Iteration      1(   9)  ---------------------------------------


    POTLOK:  cpu time      0.3143: real time      0.3160
    SETDIJ:  cpu time      0.1929: real time      0.1937
     EDDAV:  cpu time      0.4892: real time      0.4918
       DOS:  cpu time      0.0001: real time      0.0001
    CHARGE:  cpu time      0.1932: real time      0.1940
    MIXING:  cpu time      0.0146: real time      0.0147
    --------------------------------------------
      LOOP:  cpu time      1.2044: real time      1.2103

 eigenvalue-minimisations  :    80
 total energy-change (2. order) : 0.2942921E-01  (-0.5480792E-02)
 number of electron      22.0000000 magnetization 
 augmentation part        0.4835944 magnetization 

 Broyden mixing:
  rms(total) = 0.24057E-01    rms(broyden)= 0.24054E-01
  rms(prec ) = 0.49132E-01
  weight for this iteration     100.00

 eigenvalues of (default mixing * dielectric matrix)
  average eigenvalue GAMMA=   1.4908
  2.1244  1.7213  0.9874  1.1303

 Free energy of the ion-electron system (eV)
  ---------------------------------------------------
  alpha Z        PSCENC =         0.62641250
  Ewald energy   TEWEN  =       950.26360735
  -Hartree energ DENC   =     -1474.57900062
  -exchange      EXHF   =         0.00000000
  -V(xc)+E(xc)   XCENC  =        72.51533913
  PAW double counting   =       287.38914742     -292.65482302
  entropy T*S    EENTRO =        -0.00000000
  eigenvalues    EBANDS =      -262.65657545
  atomic energy  EATOM  =       663.51739852
  Solvation  Ediel_sol  =         0.00000000
  ---------------------------------------------------
  free energy    TOTEN  =       -55.57849416 eV

  energy without entropy =      -55.57849416  energy(sigma->0) =      -55.57849416


--------------------------------------------------------------------------------------------------------




--------------------------------------- Iteration      1(  10)  ---------------------------------------


    POTLOK:  cpu time      0.3211: real time      0.3230
    SETDIJ:  cpu time      0.1945: real time      0.1953
     EDDAV:  cpu time      0.4058: real time      0.4080
       DOS:  cpu time      0.0002: real time      0.0002
    CHARGE:  cpu time      0.1919: real time      0.1927
    MIXING:  cpu time      0.0151: real time      0.0151
    --------------------------------------------
      LOOP:  cpu time      1.1285: real time      1.1343

 eigenvalue-minimisations  :    64
 total energy-change (2. order) : 0.7946962E-02  (-0.2880422E-02)
 number of electron      22.0000000 magnetization 
 augmentation part        0.4816250 magnetization 

 Broyden mixing:
  rms(total) = 0.19893E-01    rms(broyden)= 0.19890E-01
  rms(prec ) = 0.35290E-01
  weight for this iteration     100.00

 eigenvalues of (default mixing * dielectric matrix)
  average eigenvalue GAMMA=   1.6658
  2.4883  2.4883  1.0055  1.1733  1.1733

 Free energy of the ion-electron system (eV)
  ---------------------------------------------------
  alpha Z        PSCENC =         0.62641250
  Ewald energy   TEWEN  =       950.26360735
  -Hartree energ DENC   =     -1478.66716231
  -exchange      EXHF   =         0.00000000
  -V(xc)+E(xc)   XCENC  =        72.61039068
  PAW double counting   =       287.35621865     -292.63233981
  entropy T*S    EENTRO =        -0.00000000
  eigenvalues    EBANDS =      -258.64507278
  atomic energy  EATOM  =       663.51739852
  Solvation  Ediel_sol  =         0.00000000
  ---------------------------------------------------
  free energy    TOTEN  =       -55.57054719 eV

  energy without entropy =      -55.57054719  energy(sigma->0) =      -55.57054719


--------------------------------------------------------------------------------------------------------




--------------------------------------- Iteration      1(  11)  ---------------------------------------


    POTLOK:  cpu time      0.3156: real time      0.3173
    SETDIJ:  cpu time      0.1919: real time      0.1927
     EDDAV:  cpu time      0.3665: real time      0.3685
       DOS:  cpu time      0.0001: real time      0.0001
    CHARGE:  cpu time      0.1927: real time      0.1935
    MIXING:  cpu time      0.0161: real time      0.0162
    --------------------------------------------
      LOOP:  cpu time      1.0830: real time      1.0884

 eigenvalue-minimisations  :    56
 total energy-change (2. order) : 0.1118967E-01  (-0.6219865E-03)
 number of electron      22.0000000 magnetization 
 augmentation part        0.4817667 magnetization 

 Broyden mixing:
  rms(total) = 0.83232E-02    rms(broyden)= 0.83229E-02
  rms(prec ) = 0.18689E-01
  weight for this iteration     100.00

 eigenvalues of (default mixing * dielectric matrix)
  average eigenvalue GAMMA=   1.7917
  3.4037  2.4415  1.6470  1.0348  1.1116  1.1116

 Free energy of the ion-electron system (eV)
  ---------------------------------------------------
  alpha Z        PSCENC =         0.62641250
  Ewald energy   TEWEN  =       950.26360735
  -Hartree energ DENC   =     -1481.87069274
  -exchange      EXHF   =         0.00000000
  -V(xc)+E(xc)   XCENC  =        72.69351358
  PAW double counting   =       285.68077936     -290.93739031
  entropy T*S    EENTRO =        -0.00000000
  eigenvalues    EBANDS =      -255.53298578
  atomic energy  EATOM  =       663.51739852
  Solvation  Ediel_sol  =         0.00000000
  ---------------------------------------------------
  free energy    TOTEN  =       -55.55935752 eV

  energy without entropy =      -55.55935752  energy(sigma->0) =      -55.55935752


--------------------------------------------------------------------------------------------------------




--------------------------------------- Iteration      1(  12)  ---------------------------------------


    POTLOK:  cpu time      0.3144: real time      0.3160
    SETDIJ:  cpu time      0.1903: real time      0.1911
     EDDAV:  cpu time      0.4074: real time      0.4096
       DOS:  cpu time      0.0001: real time      0.0001
    CHARGE:  cpu time      0.1918: real time      0.1926
    MIXING:  cpu time      0.0154: real time      0.0154
    --------------------------------------------
      LOOP:  cpu time      1.1194: real time      1.1249

 eigenvalue-minimisations  :    64
 total energy-change (2. order) :-0.2242727E-02  (-0.3345367E-03)
 number of electron      22.0000000 magnetization 
 augmentation part        0.4812593 magnetization 

 Broyden mixing:
  rms(total) = 0.49958E-02    rms(broyden)= 0.49955E-02
  rms(prec ) = 0.10572E-01
  weight for this iteration     100.00

 eigenvalues of (default mixing * dielectric matrix)
  average eigenvalue GAMMA=   1.9166
  4.4413  2.4275  2.1181  1.3368  1.0557  1.0184  1.0184

 Free energy of the ion-electron system (eV)
  ---------------------------------------------------
  alpha Z        PSCENC =         0.62641250
  Ewald energy   TEWEN  =       950.26360735
  -Hartree energ DENC   =     -1484.59496176
  -exchange      EXHF   =         0.00000000
  -V(xc)+E(xc)   XCENC  =        72.74514033
  PAW double counting   =       285.54720988     -290.80889377
  entropy T*S    EENTRO =        -0.00000000
  eigenvalues    EBANDS =      -252.85751331
  atomic energy  EATOM  =       663.51739852
  Solvation  Ediel_sol  =         0.00000000
  ---------------------------------------------------
  free energy    TOTEN  =       -55.56160025 eV

  energy without entropy =      -55.56160025  energy(sigma->0) =      -55.56160025


--------------------------------------------------------------------------------------------------------




--------------------------------------- Iteration      1(  13)  ---------------------------------------


    POTLOK:  cpu time      0.3099: real time      0.3115
    SETDIJ:  cpu time      0.1907: real time      0.1916
     EDDAV:  cpu time      0.3263: real time      0.3281
       DOS:  cpu time      0.0001: real time      0.0001
    CHARGE:  cpu time      0.1930: real time      0.1938
    MIXING:  cpu time      0.0132: real time      0.0132
    --------------------------------------------
      LOOP:  cpu time      1.0332: real time      1.0384

 eigenvalue-minimisations  :    48
 total energy-change (2. order) :-0.8379316E-02  (-0.1137376E-03)
 number of electron      22.0000000 magnetization 
 augmentation part        0.4812212 magnetization 

 Broyden mixing:
  rms(total) = 0.29328E-02    rms(broyden)= 0.29327E-02
  rms(prec ) = 0.64749E-02
  weight for this iteration     100.00

 eigenvalues of (default mixing * dielectric matrix)
  average eigenvalue GAMMA=   2.0986
  5.2867  3.1177  2.2234  1.8312  1.2838  0.9896  1.0281  1.0281

 Free energy of the ion-electron system (eV)
  ---------------------------------------------------
  alpha Z        PSCENC =         0.62641250
  Ewald energy   TEWEN  =       950.26360735
  -Hartree energ DENC   =     -1485.09224145
  -exchange      EXHF   =         0.00000000
  -V(xc)+E(xc)   XCENC  =        72.73853072
  PAW double counting   =       285.45471925     -290.71581927
  entropy T*S    EENTRO =        -0.00000000
  eigenvalues    EBANDS =      -252.36258720
  atomic energy  EATOM  =       663.51739852
  Solvation  Ediel_sol  =         0.00000000
  ---------------------------------------------------
  free energy    TOTEN  =       -55.56997957 eV

  energy without entropy =      -55.56997957  energy(sigma->0) =      -55.56997957


--------------------------------------------------------------------------------------------------------




--------------------------------------- Iteration      1(  14)  ---------------------------------------


    POTLOK:  cpu time      0.3095: real time      0.3112
    SETDIJ:  cpu time      0.1922: real time      0.1930
     EDDAV:  cpu time      0.4084: real time      0.4106
       DOS:  cpu time      0.0002: real time      0.0002
    CHARGE:  cpu time      0.1927: real time      0.1935
    MIXING:  cpu time      0.0165: real time      0.0166
    --------------------------------------------
      LOOP:  cpu time      1.1195: real time      1.1251

 eigenvalue-minimisations  :    64
 total energy-change (2. order) :-0.8080126E-02  (-0.1584462E-03)
 number of electron      22.0000000 magnetization 
 augmentation part        0.4812869 magnetization 

 Broyden mixing:
  rms(total) = 0.18371E-02    rms(broyden)= 0.18369E-02
  rms(prec ) = 0.32880E-02
  weight for this iteration     100.00

 eigenvalues of (default mixing * dielectric matrix)
  average eigenvalue GAMMA=   2.1880
  6.1492  3.5528  2.1847  2.1847  1.3356  1.3356  1.0053  1.0053  0.9390

 Free energy of the ion-electron system (eV)
  ---------------------------------------------------
  alpha Z        PSCENC =         0.62641250
  Ewald energy   TEWEN  =       950.26360735
  -Hartree energ DENC   =     -1485.30005545
  -exchange      EXHF   =         0.00000000
  -V(xc)+E(xc)   XCENC  =        72.72125198
  PAW double counting   =       285.35832069     -290.61732006
  entropy T*S    EENTRO =        -0.00000000
  eigenvalues    EBANDS =      -252.14767524
  atomic energy  EATOM  =       663.51739852
  Solvation  Ediel_sol  =         0.00000000
  ---------------------------------------------------
  free energy    TOTEN  =       -55.57805969 eV

  energy without entropy =      -55.57805969  energy(sigma->0) =      -55.57805969


--------------------------------------------------------------------------------------------------------




--------------------------------------- Iteration      1(  15)  ---------------------------------------


    POTLOK:  cpu time      0.3044: real time      0.3060
    SETDIJ:  cpu time      0.1917: real time      0.1925
     EDDAV:  cpu time      0.4057: real time      0.4079
       DOS:  cpu time      0.0001: real time      0.0001
    CHARGE:  cpu time      0.1914: real time      0.1922
    MIXING:  cpu time      0.0161: real time      0.0162
    --------------------------------------------
      LOOP:  cpu time      1.1094: real time      1.1149

 eigenvalue-minimisations  :    64
 total energy-change (2. order) :-0.2878427E-02  (-0.4043805E-04)
 number of electron      22.0000000 magnetization 
 augmentation part        0.4812092 magnetization 

 Broyden mixing:
  rms(total) = 0.91997E-03    rms(broyden)= 0.91984E-03
  rms(prec ) = 0.16687E-02
  weight for this iteration     100.00

 eigenvalues of (default mixing * dielectric matrix)
  average eigenvalue GAMMA=   2.3074
  7.1545  4.1711  2.4227  2.2818  1.6527  1.3554  1.0127  1.0127  0.9280  1.0830

 Free energy of the ion-electron system (eV)
  ---------------------------------------------------
  alpha Z        PSCENC =         0.62641250
  Ewald energy   TEWEN  =       950.26360735
  -Hartree energ DENC   =     -1485.40343658
  -exchange      EXHF   =         0.00000000
  -V(xc)+E(xc)   XCENC  =        72.71792718
  PAW double counting   =       285.42320463     -290.68227677
  entropy T*S    EENTRO =        -0.00000000
  eigenvalues    EBANDS =      -252.04377495
  atomic energy  EATOM  =       663.51739852
  Solvation  Ediel_sol  =         0.00000000
  ---------------------------------------------------
  free energy    TOTEN  =       -55.58093812 eV

  energy without entropy =      -55.58093812  energy(sigma->0) =      -55.58093812


--------------------------------------------------------------------------------------------------------




--------------------------------------- Iteration      1(  16)  ---------------------------------------


    POTLOK:  cpu time      0.3023: real time      0.3040
    SETDIJ:  cpu time      0.1902: real time      0.1910
     EDDAV:  cpu time      0.4061: real time      0.4083
       DOS:  cpu time      0.0002: real time      0.0002
    CHARGE:  cpu time      0.1918: real time      0.1926
    MIXING:  cpu time      0.0176: real time      0.0177
    --------------------------------------------
      LOOP:  cpu time      1.1082: real time      1.1138

 eigenvalue-minimisations  :    64
 total energy-change (2. order) :-0.1222193E-02  (-0.1183167E-04)
 number of electron      22.0000000 magnetization 
 augmentation part        0.4811564 magnetization 

 Broyden mixing:
  rms(total) = 0.50464E-03    rms(broyden)= 0.50452E-03
  rms(prec ) = 0.90378E-03
  weight for this iteration     100.00

 eigenvalues of (default mixing * dielectric matrix)
  average eigenvalue GAMMA=   2.3563
  7.8237  4.4291  2.5167  2.5167  1.7857  1.4148  1.4148  1.0136  1.0136  0.9406
  1.0502

 Free energy of the ion-electron system (eV)
  ---------------------------------------------------
  alpha Z        PSCENC =         0.62641250
  Ewald energy   TEWEN  =       950.26360735
  -Hartree energ DENC   =     -1485.44902385
  -exchange      EXHF   =         0.00000000
  -V(xc)+E(xc)   XCENC  =        72.71739828
  PAW double counting   =       285.45908565     -290.71853884
  entropy T*S    EENTRO =        -0.00000000
  eigenvalues    EBANDS =      -251.99849993
  atomic energy  EATOM  =       663.51739852
  Solvation  Ediel_sol  =         0.00000000
  ---------------------------------------------------
  free energy    TOTEN  =       -55.58216031 eV

  energy without entropy =      -55.58216031  energy(sigma->0) =      -55.58216031


--------------------------------------------------------------------------------------------------------




--------------------------------------- Iteration      1(  17)  ---------------------------------------


    POTLOK:  cpu time      0.2986: real time      0.3002
    SETDIJ:  cpu time      0.1918: real time      0.1926
     EDDAV:  cpu time      0.4458: real time      0.4483
       DOS:  cpu time      0.0001: real time      0.0001
    CHARGE:  cpu time      0.1924: real time      0.1931
    MIXING:  cpu time      0.0175: real time      0.0175
    --------------------------------------------
      LOOP:  cpu time      1.1462: real time      1.1519

 eigenvalue-minimisations  :    72
 total energy-change (2. order) :-0.4931039E-03  (-0.3071847E-05)
 number of electron      22.0000000 magnetization 
 augmentation part        0.4811260 magnetization 

 Broyden mixing:
  rms(total) = 0.44432E-03    rms(broyden)= 0.44425E-03
  rms(prec ) = 0.64752E-03
  weight for this iteration     100.00

 eigenvalues of (default mixing * dielectric matrix)
  average eigenvalue GAMMA=   2.3705
  8.3236  4.9316  2.7582  2.4590  1.9824  1.6988  1.0058  1.0058  1.1862  1.1862
  0.9545  0.9545

 Free energy of the ion-electron system (eV)
  ---------------------------------------------------
  alpha Z        PSCENC =         0.62641250
  Ewald energy   TEWEN  =       950.26360735
  -Hartree energ DENC   =     -1485.46647116
  -exchange      EXHF   =         0.00000000
  -V(xc)+E(xc)   XCENC  =        72.71686214
  PAW double counting   =       285.44559239     -290.70538070
  entropy T*S    EENTRO =        -0.00000000
  eigenvalues    EBANDS =      -251.98067446
  atomic energy  EATOM  =       663.51739852
  Solvation  Ediel_sol  =         0.00000000
  ---------------------------------------------------
  free energy    TOTEN  =       -55.58265342 eV

  energy without entropy =      -55.58265342  energy(sigma->0) =      -55.58265342


--------------------------------------------------------------------------------------------------------




--------------------------------------- Iteration      1(  18)  ---------------------------------------


    POTLOK:  cpu time      0.2980: real time      0.2996
    SETDIJ:  cpu time      0.1910: real time      0.1918
     EDDAV:  cpu time      0.4043: real time      0.4065
       DOS:  cpu time      0.0001: real time      0.0001
    CHARGE:  cpu time      0.1926: real time      0.1934
    MIXING:  cpu time      0.0175: real time      0.0175
    --------------------------------------------
      LOOP:  cpu time      1.1035: real time      1.1089

 eigenvalue-minimisations  :    64
 total energy-change (2. order) :-0.1598577E-03  (-0.1074871E-05)
 number of electron      22.0000000 magnetization 
 augmentation part        0.4811478 magnetization 

 Broyden mixing:
  rms(total) = 0.17186E-03    rms(broyden)= 0.17178E-03
  rms(prec ) = 0.32468E-03
  weight for this iteration     100.00

 eigenvalues of (default mixing * dielectric matrix)
  average eigenvalue GAMMA=   2.3889
  8.4514  5.2430  3.1706  2.3969  2.1775  1.6254  1.6254  1.0090  1.0090  0.9528
  0.9918  1.2016  1.2016

 Free energy of the ion-electron system (eV)
  ---------------------------------------------------
  alpha Z        PSCENC =         0.62641250
  Ewald energy   TEWEN  =       950.26360735
  -Hartree energ DENC   =     -1485.44300055
  -exchange      EXHF   =         0.00000000
  -V(xc)+E(xc)   XCENC  =        72.71600300
  PAW double counting   =       285.42427028     -290.68374199
  entropy T*S    EENTRO =        -0.00000000
  eigenvalues    EBANDS =      -252.00376239
  atomic energy  EATOM  =       663.51739852
  Solvation  Ediel_sol  =         0.00000000
  ---------------------------------------------------
  free energy    TOTEN  =       -55.58281327 eV

  energy without entropy =      -55.58281327  energy(sigma->0) =      -55.58281327


--------------------------------------------------------------------------------------------------------




--------------------------------------- Iteration      1(  19)  ---------------------------------------


    POTLOK:  cpu time      0.2989: real time      0.3006
    SETDIJ:  cpu time      0.1899: real time      0.1907
     EDDAV:  cpu time      0.4072: real time      0.4094
       DOS:  cpu time      0.0001: real time      0.0001
    CHARGE:  cpu time      0.1922: real time      0.1930
    MIXING:  cpu time      0.0176: real time      0.0176
    --------------------------------------------
      LOOP:  cpu time      1.1059: real time      1.1114

 eigenvalue-minimisations  :    64
 total energy-change (2. order) :-0.1137664E-03  (-0.4684119E-06)
 number of electron      22.0000000 magnetization 
 augmentation part        0.4811356 magnetization 

 Broyden mixing:
  rms(total) = 0.12583E-03    rms(broyden)= 0.12576E-03
  rms(prec ) = 0.20652E-03
  weight for this iteration     100.00

 eigenvalues of (default mixing * dielectric matrix)
  average eigenvalue GAMMA=   2.4128
  8.8092  5.5840  3.6925  2.6381  2.3059  1.8405  1.3795  1.3795  0.9619  1.0178
  1.0120  1.0120  1.0730  1.0730

 Free energy of the ion-electron system (eV)
  ---------------------------------------------------
  alpha Z        PSCENC =         0.62641250
  Ewald energy   TEWEN  =       950.26360735
  -Hartree energ DENC   =     -1485.47136130
  -exchange      EXHF   =         0.00000000
  -V(xc)+E(xc)   XCENC  =        72.71666898
  PAW double counting   =       285.43507331     -290.69466077
  entropy T*S    EENTRO =        -0.00000000
  eigenvalues    EBANDS =      -251.97606562
  atomic energy  EATOM  =       663.51739852
  Solvation  Ediel_sol  =         0.00000000
  ---------------------------------------------------
  free energy    TOTEN  =       -55.58292704 eV

  energy without entropy =      -55.58292704  energy(sigma->0) =      -55.58292704


--------------------------------------------------------------------------------------------------------




--------------------------------------- Iteration      1(  20)  ---------------------------------------


    POTLOK:  cpu time      0.3043: real time      0.3059
    SETDIJ:  cpu time      0.1910: real time      0.1919
     EDDAV:  cpu time      0.3702: real time      0.3722
       DOS:  cpu time      0.0001: real time      0.0001
    CHARGE:  cpu time      0.1946: real time      0.1954
    MIXING:  cpu time      0.0185: real time      0.0186
    --------------------------------------------
      LOOP:  cpu time      1.0788: real time      1.0842

 eigenvalue-minimisations  :    56
 total energy-change (2. order) :-0.3615330E-04  (-0.1299223E-06)
 number of electron      22.0000000 magnetization 
 augmentation part        0.4811449 magnetization 

 Broyden mixing:
  rms(total) = 0.65033E-04    rms(broyden)= 0.64908E-04
  rms(prec ) = 0.10568E-03
  weight for this iteration     100.00

 eigenvalues of (default mixing * dielectric matrix)
  average eigenvalue GAMMA=   2.3930
  8.7566  5.7207  3.7908  2.5530  2.5530  1.8327  1.8327  1.2467  1.2467  1.3099
  1.0108  1.0108  0.9532  0.9532  1.1245

 Free energy of the ion-electron system (eV)
  ---------------------------------------------------
  alpha Z        PSCENC =         0.62641250
  Ewald energy   TEWEN  =       950.26360735
  -Hartree energ DENC   =     -1485.45878000
  -exchange      EXHF   =         0.00000000
  -V(xc)+E(xc)   XCENC  =        72.71607149
  PAW double counting   =       285.42440631     -290.68387748
  entropy T*S    EENTRO =        -0.00000000
  eigenvalues    EBANDS =      -251.98820189
  atomic energy  EATOM  =       663.51739852
  Solvation  Ediel_sol  =         0.00000000
  ---------------------------------------------------
  free energy    TOTEN  =       -55.58296319 eV

  energy without entropy =      -55.58296319  energy(sigma->0) =      -55.58296319


--------------------------------------------------------------------------------------------------------




--------------------------------------- Iteration      1(  21)  ---------------------------------------


    POTLOK:  cpu time      0.3104: real time      0.3121
    SETDIJ:  cpu time      0.1908: real time      0.1916
     EDDAV:  cpu time      0.3274: real time      0.3292
       DOS:  cpu time      0.0001: real time      0.0001
    CHARGE:  cpu time      0.1922: real time      0.1930
    MIXING:  cpu time      0.0180: real time      0.0181
    --------------------------------------------
      LOOP:  cpu time      1.0389: real time      1.0441

 eigenvalue-minimisations  :    48
 total energy-change (2. order) :-0.1935458E-04  (-0.2710751E-07)
 number of electron      22.0000000 magnetization 
 augmentation part        0.4811442 magnetization 

 Broyden mixing:
  rms(total) = 0.44209E-04    rms(broyden)= 0.44032E-04
  rms(prec ) = 0.60912E-04
  weight for this iteration     100.00

 eigenvalues of (default mixing * dielectric matrix)
  average eigenvalue GAMMA=   2.4479
  9.0106  6.1762  4.5325  3.0147  2.4229  2.3376  1.8090  1.3350  1.2546  1.2546
  1.0183  1.0183  1.0516  1.0516  0.9398  0.9398

 Free energy of the ion-electron system (eV)
  ---------------------------------------------------
  alpha Z        PSCENC =         0.62641250
  Ewald energy   TEWEN  =       950.26360735
  -Hartree energ DENC   =     -1485.46337702
  -exchange      EXHF   =         0.00000000
  -V(xc)+E(xc)   XCENC  =        72.71619444
  PAW double counting   =       285.42943632     -290.68891289
  entropy T*S    EENTRO =        -0.00000000
  eigenvalues    EBANDS =      -251.98374177
  atomic energy  EATOM  =       663.51739852
  Solvation  Ediel_sol  =         0.00000000
  ---------------------------------------------------
  free energy    TOTEN  =       -55.58298255 eV

  energy without entropy =      -55.58298255  energy(sigma->0) =      -55.58298255


--------------------------------------------------------------------------------------------------------




--------------------------------------- Iteration      1(  22)  ---------------------------------------


    POTLOK:  cpu time      0.3112: real time      0.3128
    SETDIJ:  cpu time      0.1910: real time      0.1918
     EDDAV:  cpu time      0.3321: real time      0.3338
       DOS:  cpu time      0.0001: real time      0.0001
    CHARGE:  cpu time      0.1924: real time      0.1931
    MIXING:  cpu time      0.0188: real time      0.0189
    --------------------------------------------
      LOOP:  cpu time      1.0456: real time      1.0507

 eigenvalue-minimisations  :    48
 total energy-change (2. order) :-0.5324417E-05  (-0.6415599E-08)
 number of electron      22.0000000 magnetization 
 augmentation part        0.4811436 magnetization 

 Broyden mixing:
  rms(total) = 0.20990E-04    rms(broyden)= 0.20620E-04
  rms(prec ) = 0.31080E-04
  weight for this iteration     100.00

 eigenvalues of (default mixing * dielectric matrix)
  average eigenvalue GAMMA=   2.4791
  9.0728  6.4382  4.7640  3.3632  2.4485  2.4485  1.8397  1.8397  1.3484  1.3484
  1.0094  1.0094  1.1518  1.1518  0.9451  0.9828  0.9828

 Free energy of the ion-electron system (eV)
  ---------------------------------------------------
  alpha Z        PSCENC =         0.62641250
  Ewald energy   TEWEN  =       950.26360735
  -Hartree energ DENC   =     -1485.46431186
  -exchange      EXHF   =         0.00000000
  -V(xc)+E(xc)   XCENC  =        72.71614029
  PAW double counting   =       285.42916941     -290.68866975
  entropy T*S    EENTRO =        -0.00000000
  eigenvalues    EBANDS =      -251.98273434
  atomic energy  EATOM  =       663.51739852
  Solvation  Ediel_sol  =         0.00000000
  ---------------------------------------------------
  free energy    TOTEN  =       -55.58298787 eV

  energy without entropy =      -55.58298787  energy(sigma->0) =      -55.58298787


--------------------------------------------------------------------------------------------------------




--------------------------------------- Iteration      1(  23)  ---------------------------------------


    POTLOK:  cpu time      0.3098: real time      0.3115
    SETDIJ:  cpu time      0.1909: real time      0.1917
     EDDAV:  cpu time      0.3268: real time      0.3286
       DOS:  cpu time      0.0001: real time      0.0001
    CHARGE:  cpu time      0.1911: real time      0.1919
    MIXING:  cpu time      0.0175: real time      0.0176
    --------------------------------------------
      LOOP:  cpu time      1.0363: real time      1.0414

 eigenvalue-minimisations  :    48
 total energy-change (2. order) :-0.3340165E-05  (-0.6189635E-08)
 number of electron      22.0000000 magnetization 
 augmentation part        0.4811434 magnetization 

 Broyden mixing:
  rms(total) = 0.97126E-05    rms(broyden)= 0.88864E-05
  rms(prec ) = 0.14728E-04
  weight for this iteration     100.00

 eigenvalues of (default mixing * dielectric matrix)
  average eigenvalue GAMMA=   2.4722
  9.1143  6.7495  5.0741  3.5446  2.6949  2.3611  2.1556  1.8078  1.3461  1.3461
  1.3113  1.0131  1.0131  1.0675  1.0675  0.9424  0.9453  0.9453

 Free energy of the ion-electron system (eV)
  ---------------------------------------------------
  alpha Z        PSCENC =         0.62641250
  Ewald energy   TEWEN  =       950.26360735
  -Hartree energ DENC   =     -1485.46446451
  -exchange      EXHF   =         0.00000000
  -V(xc)+E(xc)   XCENC  =        72.71612873
  PAW double counting   =       285.42872749     -290.68823123
  entropy T*S    EENTRO =        -0.00000000
  eigenvalues    EBANDS =      -251.98257006
  atomic energy  EATOM  =       663.51739852
  Solvation  Ediel_sol  =         0.00000000
  ---------------------------------------------------
  free energy    TOTEN  =       -55.58299121 eV

  energy without entropy =      -55.58299121  energy(sigma->0) =      -55.58299121


--------------------------------------------------------------------------------------------------------




--------------------------------------- Iteration      1(  24)  ---------------------------------------


    POTLOK:  cpu time      0.3142: real time      0.3159
    SETDIJ:  cpu time      0.1904: real time      0.1912
     EDDAV:  cpu time      0.3654: real time      0.3674
       DOS:  cpu time      0.0001: real time      0.0001
    --------------------------------------------
      LOOP:  cpu time      0.8701: real time      0.8747

 eigenvalue-minimisations  :    56
 total energy-change (2. order) :-0.7732847E-06  (-0.1518258E-08)
 number of electron      22.0000000 magnetization 
 augmentation part        0.4811434 magnetization 

 Free energy of the ion-electron system (eV)
  ---------------------------------------------------
  alpha Z        PSCENC =         0.62641250
  Ewald energy   TEWEN  =       950.26360735
  -Hartree energ DENC   =     -1485.46561113
  -exchange      EXHF   =         0.00000000
  -V(xc)+E(xc)   XCENC  =        72.71616815
  PAW double counting   =       285.42910025     -290.68861010
  entropy T*S    EENTRO =        -0.00000000
  eigenvalues    EBANDS =      -251.98145753
  atomic energy  EATOM  =       663.51739852
  Solvation  Ediel_sol  =         0.00000000
  ---------------------------------------------------
  free energy    TOTEN  =       -55.58299199 eV

  energy without entropy =      -55.58299199  energy(sigma->0) =      -55.58299199


--------------------------------------------------------------------------------------------------------




 average (electrostatic) potential at core
  the test charge radii are     0.6991  0.5201
  (the norm of the test charge is              1.0000)
       1 -58.7824       2 -58.6538       3 -58.5207       4 -58.6377       5 -41.4666
       6 -42.0682       7 -41.4841       8 -42.2956       9 -41.7101      10 -41.9784
 
 
 
 E-fermi :  -5.5484     XC(G=0):  -0.4299     alpha+bet : -0.1681

 Fermi energy:        -5.5484040304

 k-point     1 :       0.0000    0.0000    0.0000
  band No.  band energies     occupation 
      1     -20.3493      2.00000
      2     -16.2874      2.00000
      3     -15.4232      2.00000
      4     -12.6984      2.00000
      5     -11.7144      2.00000
      6     -10.7597      2.00000
      7      -9.3316      2.00000
      8      -9.2617      2.00000
      9      -8.1243      2.00000
     10      -6.2289      2.00000
     11      -5.8120      2.00000
     12      -0.8910      0.00000
     13      -0.4620      0.00000
     14      -0.3389      0.00000
     15       0.1564      0.00000
     16       0.3284      0.00000
     17       0.3864      0.00000
     18       0.5677      0.00000
     19       0.6028      0.00000
     20       0.6354      0.00000
     21       0.8720      0.00000
     22       0.9733      0.00000
     23       1.0299      0.00000
     24       1.0735      0.00000


--------------------------------------------------------------------------------------------------------


 soft charge-density along one line, spin component           1
         0         1         2         3         4         5         6         7         8         9
 total charge-density along one line
 
 pseudopotential strength for first ion, spin component:           1
 10.255   0.020  -0.001   0.005  -0.000   0.000   0.002   0.001
  0.020  -0.001   0.000  -0.000  -0.000  -0.000   0.000   0.000
 -0.001   0.000  -4.382   0.006   0.001  -0.013   0.002   0.000
  0.005  -0.000   0.006  -4.370  -0.002   0.002  -0.009  -0.001
 -0.000  -0.000   0.001  -0.002  -4.380   0.000  -0.001  -0.012
  0.000  -0.000  -0.013   0.002   0.000  -0.773   0.000   0.000
  0.002   0.000   0.002  -0.009  -0.001   0.000  -0.773  -0.000
  0.001   0.000   0.000  -0.001  -0.012   0.000  -0.000  -0.773
 total augmentation occupancy for first ion, spin component:           1
  1.447  -0.940   0.008  -0.073  -0.007  -0.001  -0.020  -0.002
 -0.940   0.703   0.008   0.054   0.006   0.016   0.005   0.008
  0.008   0.008   1.136  -0.078  -0.012   0.181  -0.029   0.002
 -0.073   0.054  -0.078   0.916   0.039  -0.029   0.105   0.011
 -0.007   0.006  -0.012   0.039   1.119   0.002   0.011   0.172
 -0.001   0.016   0.181  -0.029   0.002   0.032  -0.007   0.002
 -0.020   0.005  -0.029   0.105   0.011  -0.007   0.015   0.002
 -0.002   0.008   0.002   0.011   0.172   0.002   0.002   0.028


------------------------ aborting loop because EDIFF is reached ----------------------------------------


    CHARGE:  cpu time      0.1922: real time      0.1930
    FORLOC:  cpu time      0.0359: real time      0.0360
    FORNL :  cpu time      1.0700: real time      1.0750
    STRESS:  cpu time      3.3916: real time      3.4075
    FORHAR:  cpu time      0.1110: real time      0.1115
    MIXING:  cpu time      0.0117: real time      0.0118
    OFIELD:  cpu time      0.0001: real time      0.0001

  FORCE on cell =-STRESS in cart. coord.  units (eV):
  Direction    XX          YY          ZZ          XY          YZ          ZX
  --------------------------------------------------------------------------------------
  Alpha Z     0.62641     0.62641     0.62641
  Ewald      45.61658   420.70401   483.94269   153.72635     3.00459   -46.86502
  Hartree   324.58410   550.01856   610.86255    94.31847     6.39791   -38.91692
  E(xc)     -76.71675   -75.94644   -75.92672     0.32313    -0.01290     0.00483
  Local    -574.76254 -1165.90665 -1293.29008  -245.74747   -11.42030    87.74192
  n-local   -29.86204   -29.78298   -29.52804     0.16906    -0.03438    -0.52051
  augment    -0.53811    -0.55897    -0.56007     0.00574     0.02114    -0.00937
  Kinetic   310.22224   302.01543   296.29778    -3.48838     2.65902    -0.05880
  Fock        0.00000     0.00000     0.00000     0.00000     0.00000     0.00000
  -------------------------------------------------------------------------------------
  Total      -0.83010     1.16937    -7.57547    -0.69310     0.61508     1.37613
  in kB      -0.39407     0.55512    -3.59622    -0.32903     0.29199     0.65327
  external pressure =       -1.15 kB  Pullay stress =        0.00 kB


 VOLUME and BASIS-vectors are now :
 -----------------------------------------------------------------------------
  energy-cutoff  :      520.00
  volume of cell :     3375.00
      direct lattice vectors                 reciprocal lattice vectors
    15.000000000  0.000000000  0.000000000     0.066666667  0.000000000  0.000000000
     0.000000000 15.000000000  0.000000000     0.000000000  0.066666667  0.000000000
     0.000000000  0.000000000 15.000000000     0.000000000  0.000000000  0.066666667

  length of vectors
    15.000000000 15.000000000 15.000000000     0.066666667  0.066666667  0.066666667


 FORCES acting on ions
    electron-ion (+dipol)            ewald-force                    non-local-force                 convergence-correction
 -----------------------------------------------------------------------------------------------
   -.536E+02 -.935E+02 0.941E+02   0.545E+02 0.935E+02 -.936E+02   0.172E+00 -.623E+00 0.357E+01   -.444E-04 -.714E-04 0.775E-04
   0.284E+02 0.101E+03 0.130E+03   -.295E+02 -.104E+03 -.131E+03   0.431E+00 0.131E+01 0.792E+00   0.209E-04 0.996E-04 0.770E-04
   0.466E+02 0.122E+03 -.105E+03   -.470E+02 -.123E+03 0.103E+03   0.823E+00 0.246E+01 -.133E+01   0.336E-04 0.602E-04 -.132E-03
   -.177E+02 -.935E+02 -.103E+03   0.185E+02 0.940E+02 0.102E+03   0.537E+00 -.615E+00 -.199E+01   0.102E-04 -.389E-04 -.116E-03
   -.659E+02 -.124E+02 0.149E+02   0.696E+02 0.126E+02 -.151E+02   -.497E+01 -.237E+00 0.286E-01   -.310E-04 -.337E-05 0.835E-05
   0.218E+02 -.552E+02 0.395E+02   -.249E+02 0.602E+02 -.427E+02   0.267E+01 -.465E+01 0.267E+01   0.814E-05 -.239E-04 0.205E-04
   0.167E+02 0.446E+02 0.504E+02   -.176E+02 -.473E+02 -.532E+02   0.129E+01 0.326E+01 0.368E+01   0.600E-05 0.247E-04 0.216E-04
   0.218E+02 0.535E+02 -.450E+02   -.239E+02 -.588E+02 0.492E+02   0.183E+01 0.441E+01 -.390E+01   0.609E-05 0.165E-04 -.154E-04
   -.478E+02 -.174E+02 -.497E+02   0.523E+02 0.183E+02 0.533E+02   -.437E+01 -.802E+00 -.346E+01   -.198E-05 0.458E-06 -.117E-04
   0.467E+02 -.494E+02 -.260E+02   -.520E+02 0.539E+02 0.273E+02   0.455E+01 -.384E+01 -.108E+01   0.403E-05 -.163E-05 -.986E-05
 -----------------------------------------------------------------------------------------------
   -.295E+01 -.658E+00 0.103E+01   -.711E-14 0.426E-13 0.320E-13   0.296E+01 0.666E+00 -.101E+01   0.116E-04 0.623E-04 -.797E-04
 
 
 POSITION                                       TOTAL-FORCE (eV/Angst)
 -----------------------------------------------------------------------------------
      7.87600      8.07100      6.57100         1.073407     -0.584332      4.061039
      7.27000      6.70600      6.74300        -0.647116     -1.336431      0.199853
      7.12100      6.59400      8.10500         0.416679      1.292951     -2.435584
      7.49700      7.99400      8.46700         1.358163     -0.137242     -2.500784
      9.01500      8.12100      6.53900        -1.287409     -0.088892     -0.210855
      7.39300      8.89100      6.07500        -0.402174      0.352392     -0.534272
      6.99000      5.98100      5.91700         0.346313      0.630022      0.846688
      6.80500      5.82900      8.77300        -0.303003     -0.889106      0.353641
      8.34100      8.14800      9.14400         0.188157      0.120244      0.048284
      6.69200      8.66600      8.66600        -0.743017      0.640395      0.171991
 -----------------------------------------------------------------------------------
    total drift:                                0.001949      0.008587      0.015715


--------------------------------------------------------------------------------------------------------



  FREE ENERGIE OF THE ION-ELECTRON SYSTEM (eV)
  ---------------------------------------------------
  free  energy   TOTEN  =       -55.58299199 eV

  energy  without entropy=      -55.58299199  energy(sigma->0) =      -55.58299199
 


--------------------------------------------------------------------------------------------------------


    POTLOK:  cpu time      0.5070: real time      0.5094


--------------------------------------------------------------------------------------------------------


 stress matrix after NEB project (eV)
     -0.83010     -0.69310      1.37613
     -0.69310      1.16937      0.61508
      1.37613      0.61508     -7.57547
  FORCES: max atom, RMS     4.240953    2.041848
  FORCE total and by dimension    6.456891    4.061039
  Stress total and by dimension    8.059105    7.575474
     LOOP+:  cpu time     29.0541: real time     29.1980
    4ORBIT:  cpu time      0.0000: real time      0.0000

 total amount of memory used by VASP MPI-rank0   224784. kBytes
=======================================================================

   base      :      30000. kBytes
   nonlr-proj:       1260. kBytes
   fftplans  :     123538. kBytes
   grid      :      67787. kBytes
   one-center:         15. kBytes
   wavefun   :       2184. kBytes
 
  
  
 General timing and accounting informations for this job:
 ========================================================
  
                  Total CPU time used (sec):       35.666
                            User time (sec):       32.489
                          System time (sec):        3.177
                         Elapsed time (sec):       37.016
  
                   Maximum memory used (kb):      561660.
                   Average memory used (kb):          N/A
  
                          Minor page faults:       158605
                          Major page faults:         5443
                 Voluntary context switches:         3132
