 vasp.6.4.2 20Jul23 (build Apr 10 2024 13:39:58) complex                        
  
 executed on             LinuxIFC date 2024.05.18  09:54:15
 running   16 mpi-ranks, on    1 nodes
 distrk:  each k-point on   16 cores,    1 groups
 distr:  one band on NCORE=   2 cores,    8 groups


--------------------------------------------------------------------------------------------------------


 INCAR:
   ISTART = 0
   ISPIN = 1
   LREAL = Auto
   ENCUT = 520
   NPAR = 8
   LPLANE = .TRUE.
   LSCALU = .FALSE.
   NSIM = 4
   LWAVE = .FALSE.
   LCHARG = .FALSE.
   ADDGRID = .TRUE.
   LASPH = .TRUE.
   PREC = Accurate
   ISMEAR = 0
   SIGMA = 0.05
   EDIFF = 1E-06
   NSW = 0
   TEBEG = 300
   TEEND = 700     	
   ISYM = 0
   NWRITE = 2

 POTCAR:   PAW_PBE C 08Apr2002                    
 POTCAR:   PAW_PBE H 15Jun2001                    
 POTCAR:   PAW_PBE C 08Apr2002                    
   VRHFIN =C: s2p2                                                                                  
   LEXCH  = PE                                                                                      
   EATOM  =   147.1560 eV,   10.8157 Ry                                                             
                                                                                                    
   TITEL  = PAW_PBE C 08Apr2002                                                                     
   LULTRA =        F    use ultrasoft PP ?                                                          
   IUNSCR =        0    unscreen: 0-lin 1-nonlin 2-no                                               
   RPACOR =     .000    partial core radius                                                         
   POMASS =   12.011; ZVAL   =    4.000    mass and valenz                                          
   RCORE  =    1.500    outmost cutoff radius                                                       
   RWIGS  =    1.630; RWIGS  =     .863    wigner-seitz radius (au A)                               
   ENMAX  =  400.000; ENMIN  =  300.000 eV                                                          
   ICORE  =        2    local potential                                                             
   LCOR   =        T    correct aug charges                                                         
   LPAW   =        T    paw PP                                                                      
   EAUG   =  644.873                                                                                
   DEXC   =     .000                                                                                
   RMAX   =    2.266    core radius for proj-oper                                                   
   RAUG   =    1.300    factor for augmentation sphere                                              
   RDEP   =    1.501    radius for radial grids                                                     
   RDEPT  =    1.300    core radius for aug-charge                                                  
   QCUT   =   -5.516; QGAM   =   11.032    optimization parameters                                  
                                                                                                    
   Description                                                                                      
     l     E      TYP  RCUT    TYP  RCUT                                                            
     0   .000     23  1.200                                                                         
     0   .000     23  1.200                                                                         
     1   .000     23  1.500                                                                         
     1  2.500     23  1.500                                                                         
     2   .000      7  1.500                                                                         
  local pseudopotential read in
  atomic valenz-charges read in
  non local Contribution for L=           0  read in
    real space projection operators read in
  non local Contribution for L=           0  read in
    real space projection operators read in
  non local Contribution for L=           1  read in
    real space projection operators read in
  non local Contribution for L=           1  read in
    real space projection operators read in
    PAW grid and wavefunctions read in
 
   number of l-projection  operators is LMAX  =           4
   number of lm-projection operators is LMMAX =           8
 
 POTCAR:   PAW_PBE H 15Jun2001                    
   VRHFIN =H: ultrasoft test                                                                        
   LEXCH  = PE                                                                                      
   EATOM  =    12.4884 eV,     .9179 Ry                                                             
                                                                                                    
   TITEL  = PAW_PBE H 15Jun2001                                                                     
   LULTRA =        F    use ultrasoft PP ?                                                          
   IUNSCR =        0    unscreen: 0-lin 1-nonlin 2-no                                               
   RPACOR =     .000    partial core radius                                                         
   POMASS =    1.000; ZVAL   =    1.000    mass and valenz                                          
   RCORE  =    1.100    outmost cutoff radius                                                       
   RWIGS  =     .700; RWIGS  =     .370    wigner-seitz radius (au A)                               
   ENMAX  =  250.000; ENMIN  =  200.000 eV                                                          
   RCLOC  =     .701    cutoff for local pot                                                        
   LCOR   =        T    correct aug charges                                                         
   LPAW   =        T    paw PP                                                                      
   EAUG   =  400.000                                                                                
   RMAX   =    2.174    core radius for proj-oper                                                   
   RAUG   =    1.200    factor for augmentation sphere                                              
   RDEP   =    1.112    radius for radial grids                                                     
   QCUT   =   -5.749; QGAM   =   11.498    optimization parameters                                  
                                                                                                    
   Description                                                                                      
     l     E      TYP  RCUT    TYP  RCUT                                                            
     0   .000     23  1.100                                                                         
     0   .500     23  1.100                                                                         
     1  -.300     23  1.100                                                                         
  local pseudopotential read in
  atomic valenz-charges read in
  non local Contribution for L=           0  read in
    real space projection operators read in
  non local Contribution for L=           0  read in
    real space projection operators read in
  non local Contribution for L=           1  read in
    real space projection operators read in
    PAW grid and wavefunctions read in
 
   number of l-projection  operators is LMAX  =           3
   number of lm-projection operators is LMMAX =           5
 
 Optimization of the real space projectors (new method)

 maximal supplied QI-value         = 25.13
 optimisation between [QCUT,QGAM] = [ 11.56, 23.12] = [ 37.43,149.72] Ry 
 Optimized for a Real-space Cutoff    1.04 Angstroem

   l    n(q)    QCUT    max X(q) W(low)/X(q) W(high)/X(q)  e(spline) 
   0      7    11.561     5.582    0.47E-04    0.94E-04    0.17E-07
   0      7    11.561    69.432    0.20E-03    0.59E-03    0.21E-06
   1      7    11.561     2.780    0.24E-04    0.70E-04    0.44E-07
   1      7    11.561     4.549    0.18E-03    0.25E-03    0.12E-06
 Optimization of the real space projectors (new method)

 maximal supplied QI-value         = 34.20
 optimisation between [QCUT,QGAM] = [ 11.63, 23.26] = [ 37.87,151.49] Ry 
 Optimized for a Real-space Cutoff    1.21 Angstroem

   l    n(q)    QCUT    max X(q) W(low)/X(q) W(high)/X(q)  e(spline) 
   0      8    11.629     4.436    0.19E-04    0.32E-04    0.47E-07
   0      8    11.629    16.131    0.16E-03    0.33E-03    0.21E-06
   1      8    11.629     4.654    0.18E-03    0.16E-03    0.26E-06
 PAW_PBE C 08Apr2002                    :
 energy of atom  1       EATOM= -147.1560
 kinetic energy error for atom=    0.0071 (will be added to EATOM!!)
 PAW_PBE H 15Jun2001                    :
 energy of atom  2       EATOM=  -12.4884
 kinetic energy error for atom=    0.0014 (will be added to EATOM!!)
 
 
 POSCAR:  C  H
  positions in cartesian coordinates
  No initial velocities read in
 exchange correlation table for  LEXCH =        8
   RHO(1)=    0.500       N(1)  =     2000
   RHO(2)=  100.500       N(2)  =     4000

 VTST: version 4.1, (05/19/21)

 CHAIN: initializing optimizer
 
 OPT: Using VASP Dynamics algorithm
 CHAIN: Read ICHAIN            0
 
 POSCAR:  C  H
  positions in cartesian coordinates
  No initial velocities read in
 


--------------------------------------------------------------------------------------------------------


 ion  position               nearest neighbor table
   1  0.530  0.478  0.422-   5 1.09   6 1.10   2 1.33
   2  0.478  0.547  0.445-   7 1.10   1 1.33   3 1.58
   3  0.478  0.550  0.551-   8 1.10   4 1.33   2 1.58
   4  0.493  0.467  0.581-  10 1.07   9 1.11   3 1.33
   5  0.538  0.455  0.353-   1 1.09
   6  0.583  0.447  0.462-   1 1.10
   7  0.436  0.586  0.401-   2 1.10
   8  0.476  0.609  0.594-   3 1.10
   9  0.487  0.405  0.541-   4 1.11
  10  0.500  0.455  0.651-   4 1.07
 

IMPORTANT INFORMATION: All symmetrisations will be switched off!
NOSYMM: (Re-)initialisation of all symmetry stuff for point group C_1.


----------------------------------------------------------------------------------------

                                     Primitive cell                                     

  volume of cell :    3375.0000

  direct lattice vectors                    reciprocal lattice vectors
    15.000000000  0.000000000  0.000000000     0.066666667  0.000000000  0.000000000
     0.000000000 15.000000000  0.000000000     0.000000000  0.066666667  0.000000000
     0.000000000  0.000000000 15.000000000     0.000000000  0.000000000  0.066666667

  length of vectors
    15.000000000 15.000000000 15.000000000     0.066666667  0.066666667  0.066666667

  position of ions in fractional coordinates (direct lattice)
     0.530333328  0.478400008  0.421800009
     0.478400008  0.546600024  0.445333322
     0.478333346  0.549799983  0.550866636
     0.492599996  0.467199993  0.580533346
     0.538333321  0.455066681  0.353199991
     0.583133316  0.447333336  0.462266668
     0.436066659  0.586266645  0.400599988
     0.475800006  0.609266663  0.594133313
     0.486800003  0.405333328  0.540533320
     0.500199986  0.454666678  0.650599988

  ion indices of the primitive-cell ions
   primitive index   ion index
                 1           1
                 2           2
                 3           3
                 4           4
                 5           5
                 6           6
                 7           7
                 8           8
                 9           9
                10          10

----------------------------------------------------------------------------------------

 
 
 KPOINTS: K-Spacing Value to Generate K-Mesh: 1.00

Automatic generation of k-mesh.
 Grid dimensions read from file:
 generate k-points for:    1    1    1

 Generating k-lattice:

  Cartesian coordinates                     Fractional coordinates (reciprocal lattice)
     0.066666667  0.000000000  0.000000000     1.000000000  0.000000000  0.000000000
     0.000000000  0.066666667  0.000000000     0.000000000  1.000000000  0.000000000
     0.000000000  0.000000000  0.066666667     0.000000000  0.000000000  1.000000000

  Length of vectors
     0.066666667  0.066666667  0.066666667

  Shift w.r.t. Gamma in fractional coordinates (k-lattice)
     0.000000000  0.000000000  0.000000000

 
 Subroutine IBZKPT returns following result:
 ===========================================
 
 Found      1 irreducible k-points:
 
 Following reciprocal coordinates:
            Coordinates               Weight
  0.000000  0.000000  0.000000      1.000000
 
 Following cartesian coordinates:
            Coordinates               Weight
  0.000000  0.000000  0.000000      1.000000
 


--------------------------------------------------------------------------------------------------------




 Dimension of arrays:
   k-points           NKPTS =      1   k-points in BZ     NKDIM =      1   number of bands    NBANDS=     24
   number of dos      NEDOS =    301   number of ions     NIONS =     10
   non local maximal  LDIM  =      4   non local SUM 2l+1 LMDIM =      8
   total plane-waves  NPLWV = ******
   max r-space proj   IRMAX =   3145   max aug-charges    IRDMAX=  39494
   dimension x,y,z NGX =   112 NGY =  112 NGZ =  112
   dimension x,y,z NGXF=   224 NGYF=  224 NGZF=  224
   support grid    NGXF=   448 NGYF=  448 NGZF=  448
   ions per type =               4   6
   NGX,Y,Z   is equivalent  to a cutoff of  12.41, 12.41, 12.41 a.u.
   NGXF,Y,Z  is equivalent  to a cutoff of  24.83, 24.83, 24.83 a.u.

 SYSTEM =  unknown system                          
 POSCAR =   C  H                                   

 Startparameter for this run:
   NWRITE =      2    write-flag & timer
   PREC   = accura    normal or accurate (medium, high low for compatibility)
   ISTART =      0    job   : 0-new  1-cont  2-samecut
   ICHARG =      2    charge: 1-file 2-atom 10-const
   ISPIN  =      1    spin polarized calculation?
   LNONCOLLINEAR =      F non collinear calculations
   LSORBIT =      F    spin-orbit coupling
   INIWAV =      1    electr: 0-lowe 1-rand  2-diag
   LASPH  =      T    aspherical Exc in radial PAW
 Electronic Relaxation 1
   ENCUT  =  520.0 eV  38.22 Ry    6.18 a.u.  27.89 27.89 27.89*2*pi/ulx,y,z
   ENINI  =  520.0     initial cutoff
   ENAUG  =  644.9 eV  augmentation charge cutoff
   NELM   =     60;   NELMIN=  2; NELMDL= -5     # of ELM steps 
   EDIFF  = 0.1E-05   stopping-criterion for ELM
   LREAL  =      T    real-space projection
   NLSPLINE    = F    spline interpolate recip. space projectors
   LCOMPAT=      F    compatible to vasp.4.4
   GGA_COMPAT  = T    GGA compatible to vasp.4.4-vasp.4.6
   LMAXPAW     = -100 max onsite density
   LMAXMIX     =    2 max onsite mixed and CHGCAR
   VOSKOWN=      0    Vosko Wilk Nusair interpolation
   ROPT   =   -0.00025  -0.00025
 Ionic relaxation
   EDIFFG = 0.1E-04   stopping-criterion for IOM
   NSW    =      0    number of steps for IOM
   NBLOCK =      1;   KBLOCK =      1    inner block; outer block 
   IBRION =     -1    ionic relax: 0-MD 1-quasi-New 2-CG
   NFREE  =      0    steps in history (QN), initial steepest desc. (CG)
   ISIF   =      2    stress and relaxation
   IWAVPR =     10    prediction:  0-non 1-charg 2-wave 3-comb
   ISYM   =      0    0-nonsym 1-usesym 2-fastsym
   LCORR  =      T    Harris-Foulkes like correction to forces

   POTIM  = 0.5000    time-step for ionic-motion
   TEIN   =    0.0    initial temperature
   TEBEG  =  300.0;   TEEND  = 700.0 temperature during run
   SMASS  =  -3.00    Nose mass-parameter (am)
   estimated Nose-frequenzy (Omega)   =  0.10E-29 period in steps = 0.13E+47 mass=  -0.514E-26a.u.
   SCALEE = 1.0000    scale energy and forces
   NPACO  =    256;   APACO  = 10.0  distance and # of slots for P.C.
   PSTRESS=    0.0 pullay stress

  Mass of Ions in am
   POMASS =  12.01  1.00
  Ionic Valenz
   ZVAL   =   4.00  1.00
  Atomic Wigner-Seitz radii
   RWIGS  =  -1.00 -1.00
  virtual crystal weights 
   VCA    =   1.00  1.00
   NELECT =      22.0000    total number of electrons
   NUPDOWN=      -1.0000    fix difference up-down

 DOS related values:
   EMIN   =  10.00;   EMAX   =-10.00  energy-range for DOS
   EFERMI =   0.00;   METHOD = LEGACY      
   ISMEAR =     0;   SIGMA  =   0.05  broadening in eV -4-tet -1-fermi 0-gaus

 Electronic relaxation 2 (details)
   IALGO  =     38    algorithm
   LDIAG  =      T    sub-space diagonalisation (order eigenvalues)
   LSUBROT=      F    optimize rotation matrix (better conditioning)
   TURBO    =      0    0=normal 1=particle mesh
   IRESTART =      0    0=no restart 2=restart with 2 vectors
   NREBOOT  =      0    no. of reboots
   NMIN     =      0    reboot dimension
   EREF     =   0.00    reference energy to select bands
   IMIX   =      4    mixing-type and parameters
     AMIX     =   0.40;   BMIX     =  1.00
     AMIX_MAG =   1.60;   BMIX_MAG =  1.00
     AMIN     =   0.10
     WC   =   100.;   INIMIX=   1;  MIXPRE=   1;  MAXMIX= -45

 Intra band minimization:
   WEIMIN = 0.0000     energy-eigenvalue tresh-hold
   EBREAK =  0.10E-07  absolut break condition
   DEPER  =   0.30     relativ break condition  

   TIME   =   0.40     timestep for ELM

  volume/ion in A,a.u.               =     337.50      2277.56
  Fermi-wavevector in a.u.,A,eV,Ry     =   0.305814  0.577905  1.272449  0.093522
  Thomas-Fermi vector in A             =   1.179187
 
 Write flags
   LWAVE        =      F    write WAVECAR
   LDOWNSAMPLE  =      F    k-point downsampling of WAVECAR
   LCHARG       =      F    write CHGCAR
   LVTOT        =      F    write LOCPOT, total local potential
   LVHAR        =      F    write LOCPOT, Hartree potential only
   LELF         =      F    write electronic localiz. function (ELF)
   LORBIT       =      0    0 simple, 1 ext, 2 COOP (PROOUT), +10 PAW based schemes


 Dipole corrections
   LMONO  =      F    monopole corrections only (constant potential shift)
   LDIPOL =      F    correct potential (dipole corrections)
   IDIPOL =      0    1-x, 2-y, 3-z, 4-all directions 
   EPSILON=  1.0000000 bulk dielectric constant

 Exchange correlation treatment:
   GGA     =    --    GGA type
   LEXCH   =     8    internal setting for exchange type
   LIBXC   =     F    Libxc                    
   VOSKOWN =     0    Vosko Wilk Nusair interpolation
   LHFCALC =     F    Hartree Fock is set to
   LHFONE  =     F    Hartree Fock one center treatment
   AEXX    =    0.0000 exact exchange contribution

 Linear response parameters
   LEPSILON=     F    determine dielectric tensor
   LRPA    =     F    only Hartree local field effects (RPA)
   LNABLA  =     F    use nabla operator in PAW spheres
   LVEL    =     F    velocity operator in full k-point grid
   CSHIFT  =0.1000    complex shift for real part using Kramers Kronig
   OMEGAMAX=  -1.0    maximum frequency
   DEG_THRESHOLD= 0.2000000E-02 threshold for treating states as degnerate
   RTIME   =   -0.100 relaxation time in fs
  (WPLASMAI=    0.000 imaginary part of plasma frequency in eV, 0.658/RTIME)
   DFIELD  = 0.0000000 0.0000000 0.0000000 field for delta impulse in time
 
  Optional k-point grid parameters
   LKPOINTS_OPT  =     F    use optional k-point grid
   KPOINTS_OPT_MODE=     1    mode for optional k-point grid
 
 Orbital magnetization related:
   ORBITALMAG=     F  switch on orbital magnetization
   LCHIMAG   =     F  perturbation theory with respect to B field
   DQ        =  0.001000  dq finite difference perturbation B field
   LLRAUG    =     F  two centre corrections for induced B field
   LBONE     =     F  B-component reconstruction in AE one-centre
   LVGVCALC  =     T  calculate vGv susceptibility
   LVGVAPPL  =     F  apply vGv susceptibility instead of pGv for G=0

 Random number generation:
   RANDOM_GENERATOR = DEFAULT
   PCG_SEED         = not used


--------------------------------------------------------------------------------------------------------


 Static calculation
 charge density and potential will be updated during run
 non-spin polarized calculation
 Variant of blocked Davidson
 Davidson routine will perform the subspace rotation
 perform sub-space diagonalisation
    after iterative eigenvector-optimisation
 modified Broyden-mixing scheme, WC =      100.0
 initial mixing is a Kerker type mixing with AMIX =  0.4000 and BMIX =      1.0000
 Hartree-type preconditioning will be used
 using additional bands           13
 real space projection scheme for non local part
 calculate Harris-corrections to forces 
   (improved forces if not selfconsistent)
 use gradient corrections 
 use of overlap-Matrix (Vanderbilt PP)
 Gauss-broadening in eV      SIGMA  =   0.05


--------------------------------------------------------------------------------------------------------


  energy-cutoff  :      520.00
  volume of cell :     3375.00
      direct lattice vectors                 reciprocal lattice vectors
    15.000000000  0.000000000  0.000000000     0.066666667  0.000000000  0.000000000
     0.000000000 15.000000000  0.000000000     0.000000000  0.066666667  0.000000000
     0.000000000  0.000000000 15.000000000     0.000000000  0.000000000  0.066666667

  length of vectors
    15.000000000 15.000000000 15.000000000     0.066666667  0.066666667  0.066666667


 
 k-points in units of 2pi/SCALE and weight: K-Spacing Value to Generate K-Mesh: 1.00
   0.00000000  0.00000000  0.00000000       1.000
 
 k-points in reciprocal lattice and weights: K-Spacing Value to Generate K-Mesh: 1.00
   0.00000000  0.00000000  0.00000000       1.000
 
 position of ions in fractional coordinates (direct lattice) 
   0.53033333  0.47840001  0.42180001
   0.47840001  0.54660002  0.44533332
   0.47833335  0.54979998  0.55086664
   0.49260000  0.46719999  0.58053335
   0.53833332  0.45506668  0.35319999
   0.58313332  0.44733334  0.46226667
   0.43606666  0.58626664  0.40059999
   0.47580001  0.60926666  0.59413331
   0.48680000  0.40533333  0.54053332
   0.50019999  0.45466668  0.65059999
 
 position of ions in cartesian coordinates  (Angst):
   7.95499992  7.17600012  6.32700014
   7.17600012  8.19900036  6.67999983
   7.17500019  8.24699974  8.26299953
   7.38899994  7.00799990  8.70800018
   8.07499981  6.82600021  5.29799986
   8.74699974  6.71000004  6.93400002
   6.54099989  8.79399967  6.00899982
   7.13700008  9.13899994  8.91199970
   7.30200005  6.07999992  8.10799980
   7.50299978  6.82000017  9.75899982
 


--------------------------------------------------------------------------------------------------------


 k-point   1 :   0.0000 0.0000 0.0000  plane waves:   90879

 maximum and minimum number of plane-waves per node :     45467    45412

 maximum number of plane-waves:     90879
 maximum index in each direction: 
   IXMAX=   27   IYMAX=   27   IZMAX=   27
   IXMIN=  -27   IYMIN=  -27   IZMIN=  -27


 real space projection operators:
  total allocation   :       1186.55 KBytes
  max/ min on nodes  :        593.70        592.86


 parallel 3D FFT for wavefunctions:
    minimum data exchange during FFTs selected (reduces bandwidth)
 parallel 3D FFT for charge:
    minimum data exchange during FFTs selected (reduces bandwidth)


 total amount of memory used by VASP MPI-rank0   224785. kBytes
=======================================================================

   base      :      30000. kBytes
   nonlr-proj:       1261. kBytes
   fftplans  :     123538. kBytes
   grid      :      67787. kBytes
   one-center:         15. kBytes
   wavefun   :       2184. kBytes
 
     INWAV:  cpu time      0.0000: real time      0.0000
 Broyden mixing: mesh for mixing (old mesh)
   NGX = 55   NGY = 55   NGZ = 55
  (NGX  =224   NGY  =224   NGZ  =224)
  gives a total of 166375 points

 initial charge density was supplied:
 charge density of overlapping atoms calculated
 number of electron      22.0000000 magnetization 
 keeping initial charge density in first step


--------------------------------------------------------------------------------------------------------


 Maximum index for non-local projection operator         1513
 Maximum index for augmentation-charges         2443 (set IRDMAX)


--------------------------------------------------------------------------------------------------------


 First call to EWALD:  gamma=   0.118
 Maximum number of real-space cells 3x 3x 3
 Maximum number of reciprocal cells 3x 3x 3

    FEWALD:  cpu time      0.0011: real time      0.0011


--------------------------------------- Ionic step        1  -------------------------------------------




--------------------------------------- Iteration      1(   1)  ---------------------------------------


    POTLOK:  cpu time      0.3344: real time      0.3363
    SETDIJ:  cpu time      0.1925: real time      0.1933
     EDDAV:  cpu time      0.4141: real time      0.4164
       DOS:  cpu time      0.0003: real time      0.0003
    --------------------------------------------
      LOOP:  cpu time      0.9413: real time      0.9463

 eigenvalue-minimisations  :    64
 total energy-change (2. order) : 0.1071494E+03  (-0.5256058E+03)
 number of electron      22.0000000 magnetization 
 augmentation part       22.0000000 magnetization 

 Free energy of the ion-electron system (eV)
  ---------------------------------------------------
  alpha Z        PSCENC =         0.62641250
  Ewald energy   TEWEN  =       928.93491437
  -Hartree energ DENC   =     -1353.61230460
  -exchange      EXHF   =         0.00000000
  -V(xc)+E(xc)   XCENC  =        67.36604822
  PAW double counting   =       156.01372664     -160.66969168
  entropy T*S    EENTRO =        -0.00128383
  eigenvalues    EBANDS =      -195.02582354
  atomic energy  EATOM  =       663.51739852
  Solvation  Ediel_sol  =         0.00000000
  ---------------------------------------------------
  free energy    TOTEN  =       107.14939661 eV

  energy without entropy =      107.15068043  energy(sigma->0) =      107.15003852


--------------------------------------------------------------------------------------------------------




--------------------------------------- Iteration      1(   2)  ---------------------------------------


     EDDAV:  cpu time      0.4830: real time      0.4857
       DOS:  cpu time      0.0002: real time      0.0002
    --------------------------------------------
      LOOP:  cpu time      0.4832: real time      0.4859

 eigenvalue-minimisations  :    80
 total energy-change (2. order) :-0.1254187E+03  (-0.1228041E+03)
 number of electron      22.0000000 magnetization 
 augmentation part       22.0000000 magnetization 

 Free energy of the ion-electron system (eV)
  ---------------------------------------------------
  alpha Z        PSCENC =         0.62641250
  Ewald energy   TEWEN  =       928.93491437
  -Hartree energ DENC   =     -1353.61230460
  -exchange      EXHF   =         0.00000000
  -V(xc)+E(xc)   XCENC  =        67.36604822
  PAW double counting   =       156.01372664     -160.66969168
  entropy T*S    EENTRO =        -0.00000000
  eigenvalues    EBANDS =      -320.44582731
  atomic energy  EATOM  =       663.51739852
  Solvation  Ediel_sol  =         0.00000000
  ---------------------------------------------------
  free energy    TOTEN  =       -18.26932333 eV

  energy without entropy =      -18.26932333  energy(sigma->0) =      -18.26932333


--------------------------------------------------------------------------------------------------------




--------------------------------------- Iteration      1(   3)  ---------------------------------------


     EDDAV:  cpu time      0.4405: real time      0.4429
       DOS:  cpu time      0.0001: real time      0.0001
    --------------------------------------------
      LOOP:  cpu time      0.4406: real time      0.4430

 eigenvalue-minimisations  :    72
 total energy-change (2. order) :-0.4182527E+02  (-0.4174554E+02)
 number of electron      22.0000000 magnetization 
 augmentation part       22.0000000 magnetization 

 Free energy of the ion-electron system (eV)
  ---------------------------------------------------
  alpha Z        PSCENC =         0.62641250
  Ewald energy   TEWEN  =       928.93491437
  -Hartree energ DENC   =     -1353.61230460
  -exchange      EXHF   =         0.00000000
  -V(xc)+E(xc)   XCENC  =        67.36604822
  PAW double counting   =       156.01372664     -160.66969168
  entropy T*S    EENTRO =        -0.00000000
  eigenvalues    EBANDS =      -362.27109958
  atomic energy  EATOM  =       663.51739852
  Solvation  Ediel_sol  =         0.00000000
  ---------------------------------------------------
  free energy    TOTEN  =       -60.09459560 eV

  energy without entropy =      -60.09459560  energy(sigma->0) =      -60.09459560


--------------------------------------------------------------------------------------------------------




--------------------------------------- Iteration      1(   4)  ---------------------------------------


     EDDAV:  cpu time      0.4401: real time      0.4426
       DOS:  cpu time      0.0001: real time      0.0001
    --------------------------------------------
      LOOP:  cpu time      0.4402: real time      0.4427

 eigenvalue-minimisations  :    72
 total energy-change (2. order) :-0.2266726E+01  (-0.2263756E+01)
 number of electron      22.0000000 magnetization 
 augmentation part       22.0000000 magnetization 

 Free energy of the ion-electron system (eV)
  ---------------------------------------------------
  alpha Z        PSCENC =         0.62641250
  Ewald energy   TEWEN  =       928.93491437
  -Hartree energ DENC   =     -1353.61230460
  -exchange      EXHF   =         0.00000000
  -V(xc)+E(xc)   XCENC  =        67.36604822
  PAW double counting   =       156.01372664     -160.66969168
  entropy T*S    EENTRO =        -0.00000000
  eigenvalues    EBANDS =      -364.53782560
  atomic energy  EATOM  =       663.51739852
  Solvation  Ediel_sol  =         0.00000000
  ---------------------------------------------------
  free energy    TOTEN  =       -62.36132162 eV

  energy without entropy =      -62.36132162  energy(sigma->0) =      -62.36132162


--------------------------------------------------------------------------------------------------------




--------------------------------------- Iteration      1(   5)  ---------------------------------------


     EDDAV:  cpu time      0.4037: real time      0.4059
       DOS:  cpu time      0.0001: real time      0.0001
    CHARGE:  cpu time      0.1988: real time      0.1995
    MIXING:  cpu time      0.0152: real time      0.0153
    --------------------------------------------
      LOOP:  cpu time      0.6178: real time      0.6209

 eigenvalue-minimisations  :    64
 total energy-change (2. order) :-0.2004819E-01  (-0.2004148E-01)
 number of electron      22.0000000 magnetization 
 augmentation part        0.5741431 magnetization 

 Broyden mixing:
  rms(total) = 0.11941E+01    rms(broyden)= 0.11939E+01
  rms(prec ) = 0.14346E+01
  weight for this iteration     100.00

 Free energy of the ion-electron system (eV)
  ---------------------------------------------------
  alpha Z        PSCENC =         0.62641250
  Ewald energy   TEWEN  =       928.93491437
  -Hartree energ DENC   =     -1353.61230460
  -exchange      EXHF   =         0.00000000
  -V(xc)+E(xc)   XCENC  =        67.36604822
  PAW double counting   =       156.01372664     -160.66969168
  entropy T*S    EENTRO =        -0.00000000
  eigenvalues    EBANDS =      -364.55787379
  atomic energy  EATOM  =       663.51739852
  Solvation  Ediel_sol  =         0.00000000
  ---------------------------------------------------
  free energy    TOTEN  =       -62.38136981 eV

  energy without entropy =      -62.38136981  energy(sigma->0) =      -62.38136981


--------------------------------------------------------------------------------------------------------




--------------------------------------- Iteration      1(   6)  ---------------------------------------


    POTLOK:  cpu time      0.3070: real time      0.3087
    SETDIJ:  cpu time      0.1930: real time      0.1938
     EDDAV:  cpu time      0.4479: real time      0.4504
       DOS:  cpu time      0.0001: real time      0.0001
    CHARGE:  cpu time      0.1945: real time      0.1953
    MIXING:  cpu time      0.0148: real time      0.0149
    --------------------------------------------
      LOOP:  cpu time      1.1573: real time      1.1631

 eigenvalue-minimisations  :    72
 total energy-change (2. order) : 0.5244300E+01  (-0.8535195E+00)
 number of electron      22.0000000 magnetization 
 augmentation part        0.5250886 magnetization 

 Broyden mixing:
  rms(total) = 0.57704E+00    rms(broyden)= 0.57700E+00
  rms(prec ) = 0.68328E+00
  weight for this iteration     100.00

 eigenvalues of (default mixing * dielectric matrix)
  average eigenvalue GAMMA=   1.5521
  1.5521

 Free energy of the ion-electron system (eV)
  ---------------------------------------------------
  alpha Z        PSCENC =         0.62641250
  Ewald energy   TEWEN  =       928.93491437
  -Hartree energ DENC   =     -1400.67045935
  -exchange      EXHF   =         0.00000000
  -V(xc)+E(xc)   XCENC  =        69.74127362
  PAW double counting   =       228.74922104     -233.95393133
  entropy T*S    EENTRO =        -0.00000000
  eigenvalues    EBANDS =      -314.08189898
  atomic energy  EATOM  =       663.51739852
  Solvation  Ediel_sol  =         0.00000000
  ---------------------------------------------------
  free energy    TOTEN  =       -57.13706961 eV

  energy without entropy =      -57.13706961  energy(sigma->0) =      -57.13706961


--------------------------------------------------------------------------------------------------------




--------------------------------------- Iteration      1(   7)  ---------------------------------------


    POTLOK:  cpu time      0.3079: real time      0.3095
    SETDIJ:  cpu time      0.1888: real time      0.1897
     EDDAV:  cpu time      0.4479: real time      0.4504
       DOS:  cpu time      0.0001: real time      0.0001
    CHARGE:  cpu time      0.1965: real time      0.1973
    MIXING:  cpu time      0.0150: real time      0.0151
    --------------------------------------------
      LOOP:  cpu time      1.1563: real time      1.1621

 eigenvalue-minimisations  :    72
 total energy-change (2. order) : 0.1233652E+01  (-0.3842044E+00)
 number of electron      22.0000000 magnetization 
 augmentation part        0.4954050 magnetization 

 Broyden mixing:
  rms(total) = 0.22896E+00    rms(broyden)= 0.22890E+00
  rms(prec ) = 0.26487E+00
  weight for this iteration     100.00

 eigenvalues of (default mixing * dielectric matrix)
  average eigenvalue GAMMA=   1.5304
  1.3255  1.7352

 Free energy of the ion-electron system (eV)
  ---------------------------------------------------
  alpha Z        PSCENC =         0.62641250
  Ewald energy   TEWEN  =       928.93491437
  -Hartree energ DENC   =     -1436.93799257
  -exchange      EXHF   =         0.00000000
  -V(xc)+E(xc)   XCENC  =        71.77815081
  PAW double counting   =       286.68745699     -292.13314225
  entropy T*S    EENTRO =        -0.00000000
  eigenvalues    EBANDS =      -278.37661551
  atomic energy  EATOM  =       663.51739852
  Solvation  Ediel_sol  =         0.00000000
  ---------------------------------------------------
  free energy    TOTEN  =       -55.90341715 eV

  energy without entropy =      -55.90341715  energy(sigma->0) =      -55.90341715


--------------------------------------------------------------------------------------------------------




--------------------------------------- Iteration      1(   8)  ---------------------------------------


    POTLOK:  cpu time      0.3111: real time      0.3127
    SETDIJ:  cpu time      0.1891: real time      0.1899
     EDDAV:  cpu time      0.4079: real time      0.4101
       DOS:  cpu time      0.0001: real time      0.0001
    CHARGE:  cpu time      0.1946: real time      0.1954
    MIXING:  cpu time      0.0153: real time      0.0153
    --------------------------------------------
      LOOP:  cpu time      1.1181: real time      1.1236

 eigenvalue-minimisations  :    64
 total energy-change (2. order) : 0.1590134E+00  (-0.1993240E-01)
 number of electron      22.0000000 magnetization 
 augmentation part        0.4929721 magnetization 

 Broyden mixing:
  rms(total) = 0.99201E-01    rms(broyden)= 0.99195E-01
  rms(prec ) = 0.12420E+00
  weight for this iteration     100.00

 eigenvalues of (default mixing * dielectric matrix)
  average eigenvalue GAMMA=   1.6268
  2.4036  0.8795  1.5972

 Free energy of the ion-electron system (eV)
  ---------------------------------------------------
  alpha Z        PSCENC =         0.62641250
  Ewald energy   TEWEN  =       928.93491437
  -Hartree energ DENC   =     -1444.61185138
  -exchange      EXHF   =         0.00000000
  -V(xc)+E(xc)   XCENC  =        72.30711497
  PAW double counting   =       295.62906503     -301.01155129
  entropy T*S    EENTRO =        -0.00000000
  eigenvalues    EBANDS =      -271.13590646
  atomic energy  EATOM  =       663.51739852
  Solvation  Ediel_sol  =         0.00000000
  ---------------------------------------------------
  free energy    TOTEN  =       -55.74440375 eV

  energy without entropy =      -55.74440375  energy(sigma->0) =      -55.74440375


--------------------------------------------------------------------------------------------------------




--------------------------------------- Iteration      1(   9)  ---------------------------------------


    POTLOK:  cpu time      0.3131: real time      0.3148
    SETDIJ:  cpu time      0.1904: real time      0.1912
     EDDAV:  cpu time      0.4488: real time      0.4512
       DOS:  cpu time      0.0001: real time      0.0001
    CHARGE:  cpu time      0.1932: real time      0.1939
    MIXING:  cpu time      0.0174: real time      0.0174
    --------------------------------------------
      LOOP:  cpu time      1.1629: real time      1.1687

 eigenvalue-minimisations  :    72
 total energy-change (2. order) : 0.5785525E-01  (-0.8176779E-02)
 number of electron      22.0000000 magnetization 
 augmentation part        0.4917168 magnetization 

 Broyden mixing:
  rms(total) = 0.27549E-01    rms(broyden)= 0.27542E-01
  rms(prec ) = 0.50669E-01
  weight for this iteration     100.00

 eigenvalues of (default mixing * dielectric matrix)
  average eigenvalue GAMMA=   1.4295
  2.2178  1.6202  0.9400  0.9400

 Free energy of the ion-electron system (eV)
  ---------------------------------------------------
  alpha Z        PSCENC =         0.62641250
  Ewald energy   TEWEN  =       928.93491437
  -Hartree energ DENC   =     -1451.55361991
  -exchange      EXHF   =         0.00000000
  -V(xc)+E(xc)   XCENC  =        72.72053660
  PAW double counting   =       300.48002912     -305.80487517
  entropy T*S    EENTRO =        -0.00000000
  eigenvalues    EBANDS =      -264.60734453
  atomic energy  EATOM  =       663.51739852
  Solvation  Ediel_sol  =         0.00000000
  ---------------------------------------------------
  free energy    TOTEN  =       -55.68654850 eV

  energy without entropy =      -55.68654850  energy(sigma->0) =      -55.68654850


--------------------------------------------------------------------------------------------------------




--------------------------------------- Iteration      1(  10)  ---------------------------------------


    POTLOK:  cpu time      0.3131: real time      0.3148
    SETDIJ:  cpu time      0.1892: real time      0.1900
     EDDAV:  cpu time      0.4039: real time      0.4061
       DOS:  cpu time      0.0001: real time      0.0001
    CHARGE:  cpu time      0.1931: real time      0.1938
    MIXING:  cpu time      0.0162: real time      0.0162
    --------------------------------------------
      LOOP:  cpu time      1.1155: real time      1.1210

 eigenvalue-minimisations  :    64
 total energy-change (2. order) : 0.4461927E-02  (-0.1822763E-02)
 number of electron      22.0000000 magnetization 
 augmentation part        0.4907731 magnetization 

 Broyden mixing:
  rms(total) = 0.18035E-01    rms(broyden)= 0.18032E-01
  rms(prec ) = 0.37170E-01
  weight for this iteration     100.00

 eigenvalues of (default mixing * dielectric matrix)
  average eigenvalue GAMMA=   1.6512
  2.6884  2.2666  1.0376  1.0376  1.2259

 Free energy of the ion-electron system (eV)
  ---------------------------------------------------
  alpha Z        PSCENC =         0.62641250
  Ewald energy   TEWEN  =       928.93491437
  -Hartree energ DENC   =     -1453.80007868
  -exchange      EXHF   =         0.00000000
  -V(xc)+E(xc)   XCENC  =        72.74892014
  PAW double counting   =       299.92540027     -305.26044338
  entropy T*S    EENTRO =        -0.00000000
  eigenvalues    EBANDS =      -262.37461032
  atomic energy  EATOM  =       663.51739852
  Solvation  Ediel_sol  =         0.00000000
  ---------------------------------------------------
  free energy    TOTEN  =       -55.68208657 eV

  energy without entropy =      -55.68208657  energy(sigma->0) =      -55.68208657


--------------------------------------------------------------------------------------------------------




--------------------------------------- Iteration      1(  11)  ---------------------------------------


    POTLOK:  cpu time      0.3146: real time      0.3163
    SETDIJ:  cpu time      0.1924: real time      0.1932
     EDDAV:  cpu time      0.4495: real time      0.4520
       DOS:  cpu time      0.0001: real time      0.0001
    CHARGE:  cpu time      0.1964: real time      0.1972
    MIXING:  cpu time      0.0150: real time      0.0150
    --------------------------------------------
      LOOP:  cpu time      1.1680: real time      1.1739

 eigenvalue-minimisations  :    72
 total energy-change (2. order) : 0.1334634E-01  (-0.9507466E-03)
 number of electron      22.0000000 magnetization 
 augmentation part        0.4903308 magnetization 

 Broyden mixing:
  rms(total) = 0.79476E-02    rms(broyden)= 0.79472E-02
  rms(prec ) = 0.18204E-01
  weight for this iteration     100.00

 eigenvalues of (default mixing * dielectric matrix)
  average eigenvalue GAMMA=   1.7007
  3.2097  2.4670  1.4285  0.9544  1.0724  1.0724

 Free energy of the ion-electron system (eV)
  ---------------------------------------------------
  alpha Z        PSCENC =         0.62641250
  Ewald energy   TEWEN  =       928.93491437
  -Hartree energ DENC   =     -1458.70863331
  -exchange      EXHF   =         0.00000000
  -V(xc)+E(xc)   XCENC  =        72.88305424
  PAW double counting   =       298.72524535     -304.04510312
  entropy T*S    EENTRO =        -0.00000000
  eigenvalues    EBANDS =      -257.60202877
  atomic energy  EATOM  =       663.51739852
  Solvation  Ediel_sol  =         0.00000000
  ---------------------------------------------------
  free energy    TOTEN  =       -55.66874023 eV

  energy without entropy =      -55.66874023  energy(sigma->0) =      -55.66874023


--------------------------------------------------------------------------------------------------------




--------------------------------------- Iteration      1(  12)  ---------------------------------------


    POTLOK:  cpu time      0.3121: real time      0.3137
    SETDIJ:  cpu time      0.1905: real time      0.1913
     EDDAV:  cpu time      0.4073: real time      0.4096
       DOS:  cpu time      0.0001: real time      0.0001
    CHARGE:  cpu time      0.1935: real time      0.1943
    MIXING:  cpu time      0.0157: real time      0.0158
    --------------------------------------------
      LOOP:  cpu time      1.1192: real time      1.1248

 eigenvalue-minimisations  :    64
 total energy-change (2. order) :-0.1277988E-02  (-0.1806962E-03)
 number of electron      22.0000000 magnetization 
 augmentation part        0.4899719 magnetization 

 Broyden mixing:
  rms(total) = 0.62615E-02    rms(broyden)= 0.62613E-02
  rms(prec ) = 0.12392E-01
  weight for this iteration     100.00

 eigenvalues of (default mixing * dielectric matrix)
  average eigenvalue GAMMA=   1.9065
  4.3170  2.5595  2.0922  1.4425  0.9034  1.0156  1.0156

 Free energy of the ion-electron system (eV)
  ---------------------------------------------------
  alpha Z        PSCENC =         0.62641250
  Ewald energy   TEWEN  =       928.93491437
  -Hartree energ DENC   =     -1460.52100678
  -exchange      EXHF   =         0.00000000
  -V(xc)+E(xc)   XCENC  =        72.91055190
  PAW double counting   =       298.17921311     -303.50102815
  entropy T*S    EENTRO =        -0.00000000
  eigenvalues    EBANDS =      -255.81647370
  atomic energy  EATOM  =       663.51739852
  Solvation  Ediel_sol  =         0.00000000
  ---------------------------------------------------
  free energy    TOTEN  =       -55.67001822 eV

  energy without entropy =      -55.67001822  energy(sigma->0) =      -55.67001822


--------------------------------------------------------------------------------------------------------




--------------------------------------- Iteration      1(  13)  ---------------------------------------


    POTLOK:  cpu time      0.3084: real time      0.3100
    SETDIJ:  cpu time      0.1911: real time      0.1919
     EDDAV:  cpu time      0.3664: real time      0.3683
       DOS:  cpu time      0.0001: real time      0.0001
    CHARGE:  cpu time      0.1957: real time      0.1965
    MIXING:  cpu time      0.0161: real time      0.0161
    --------------------------------------------
      LOOP:  cpu time      1.0777: real time      1.0830

 eigenvalue-minimisations  :    56
 total energy-change (2. order) :-0.9908625E-02  (-0.1828282E-03)
 number of electron      22.0000000 magnetization 
 augmentation part        0.4899809 magnetization 

 Broyden mixing:
  rms(total) = 0.31010E-02    rms(broyden)= 0.31008E-02
  rms(prec ) = 0.65588E-02
  weight for this iteration     100.00

 eigenvalues of (default mixing * dielectric matrix)
  average eigenvalue GAMMA=   1.9877
  5.0224  2.6719  2.2654  1.5029  1.5029  1.0134  1.0134  0.9095

 Free energy of the ion-electron system (eV)
  ---------------------------------------------------
  alpha Z        PSCENC =         0.62641250
  Ewald energy   TEWEN  =       928.93491437
  -Hartree energ DENC   =     -1461.41833401
  -exchange      EXHF   =         0.00000000
  -V(xc)+E(xc)   XCENC  =        72.91223389
  PAW double counting   =       298.03467942     -303.35627662
  entropy T*S    EENTRO =        -0.00000000
  eigenvalues    EBANDS =      -254.93095492
  atomic energy  EATOM  =       663.51739852
  Solvation  Ediel_sol  =         0.00000000
  ---------------------------------------------------
  free energy    TOTEN  =       -55.67992684 eV

  energy without entropy =      -55.67992684  energy(sigma->0) =      -55.67992684


--------------------------------------------------------------------------------------------------------




--------------------------------------- Iteration      1(  14)  ---------------------------------------


    POTLOK:  cpu time      0.3093: real time      0.3110
    SETDIJ:  cpu time      0.1904: real time      0.1912
     EDDAV:  cpu time      0.4102: real time      0.4124
       DOS:  cpu time      0.0002: real time      0.0002
    CHARGE:  cpu time      0.1947: real time      0.1955
    MIXING:  cpu time      0.0144: real time      0.0145
    --------------------------------------------
      LOOP:  cpu time      1.1192: real time      1.1248

 eigenvalue-minimisations  :    64
 total energy-change (2. order) :-0.6900867E-02  (-0.1197176E-03)
 number of electron      22.0000000 magnetization 
 augmentation part        0.4897873 magnetization 

 Broyden mixing:
  rms(total) = 0.17834E-02    rms(broyden)= 0.17832E-02
  rms(prec ) = 0.36917E-02
  weight for this iteration     100.00

 eigenvalues of (default mixing * dielectric matrix)
  average eigenvalue GAMMA=   2.1860
  6.4149  3.4999  2.2769  2.0208  1.2949  1.2949  0.9873  0.9873  0.8972

 Free energy of the ion-electron system (eV)
  ---------------------------------------------------
  alpha Z        PSCENC =         0.62641250
  Ewald energy   TEWEN  =       928.93491437
  -Hartree energ DENC   =     -1461.87598046
  -exchange      EXHF   =         0.00000000
  -V(xc)+E(xc)   XCENC  =        72.90942756
  PAW double counting   =       298.27010999     -303.59237430
  entropy T*S    EENTRO =        -0.00000000
  eigenvalues    EBANDS =      -254.47673589
  atomic energy  EATOM  =       663.51739852
  Solvation  Ediel_sol  =         0.00000000
  ---------------------------------------------------
  free energy    TOTEN  =       -55.68682771 eV

  energy without entropy =      -55.68682771  energy(sigma->0) =      -55.68682771


--------------------------------------------------------------------------------------------------------




--------------------------------------- Iteration      1(  15)  ---------------------------------------


    POTLOK:  cpu time      0.3041: real time      0.3058
    SETDIJ:  cpu time      0.1908: real time      0.1917
     EDDAV:  cpu time      0.4099: real time      0.4122
       DOS:  cpu time      0.0003: real time      0.0002
    CHARGE:  cpu time      0.1931: real time      0.1938
    MIXING:  cpu time      0.0154: real time      0.0155
    --------------------------------------------
      LOOP:  cpu time      1.1136: real time      1.1192

 eigenvalue-minimisations  :    64
 total energy-change (2. order) :-0.3793054E-02  (-0.5855179E-04)
 number of electron      22.0000000 magnetization 
 augmentation part        0.4898366 magnetization 

 Broyden mixing:
  rms(total) = 0.10730E-02    rms(broyden)= 0.10729E-02
  rms(prec ) = 0.19282E-02
  weight for this iteration     100.00

 eigenvalues of (default mixing * dielectric matrix)
  average eigenvalue GAMMA=   2.2906
  6.9142  4.2900  2.5565  2.1350  1.5634  1.4498  1.0086  1.0086  1.0854  0.8949

 Free energy of the ion-electron system (eV)
  ---------------------------------------------------
  alpha Z        PSCENC =         0.62641250
  Ewald energy   TEWEN  =       928.93491437
  -Hartree energ DENC   =     -1461.80353033
  -exchange      EXHF   =         0.00000000
  -V(xc)+E(xc)   XCENC  =        72.89537122
  PAW double counting   =       298.16092987     -303.48181866
  entropy T*S    EENTRO =        -0.00000000
  eigenvalues    EBANDS =      -254.54029825
  atomic energy  EATOM  =       663.51739852
  Solvation  Ediel_sol  =         0.00000000
  ---------------------------------------------------
  free energy    TOTEN  =       -55.69062076 eV

  energy without entropy =      -55.69062076  energy(sigma->0) =      -55.69062076


--------------------------------------------------------------------------------------------------------




--------------------------------------- Iteration      1(  16)  ---------------------------------------


    POTLOK:  cpu time      0.3017: real time      0.3033
    SETDIJ:  cpu time      0.1934: real time      0.1943
     EDDAV:  cpu time      0.4078: real time      0.4100
       DOS:  cpu time      0.0002: real time      0.0002
    CHARGE:  cpu time      0.1943: real time      0.1951
    MIXING:  cpu time      0.0164: real time      0.0164
    --------------------------------------------
      LOOP:  cpu time      1.1137: real time      1.1194

 eigenvalue-minimisations  :    64
 total energy-change (2. order) :-0.1551240E-02  (-0.1747715E-04)
 number of electron      22.0000000 magnetization 
 augmentation part        0.4897892 magnetization 

 Broyden mixing:
  rms(total) = 0.67428E-03    rms(broyden)= 0.67418E-03
  rms(prec ) = 0.10194E-02
  weight for this iteration     100.00

 eigenvalues of (default mixing * dielectric matrix)
  average eigenvalue GAMMA=   2.3364
  7.8242  4.5801  2.6870  2.3410  1.9272  1.3079  1.1983  1.0060  1.0060  0.9113
  0.9113

 Free energy of the ion-electron system (eV)
  ---------------------------------------------------
  alpha Z        PSCENC =         0.62641250
  Ewald energy   TEWEN  =       928.93491437
  -Hartree energ DENC   =     -1461.88726366
  -exchange      EXHF   =         0.00000000
  -V(xc)+E(xc)   XCENC  =        72.89636225
  PAW double counting   =       298.21532673     -303.53603028
  entropy T*S    EENTRO =        -0.00000000
  eigenvalues    EBANDS =      -254.45929244
  atomic energy  EATOM  =       663.51739852
  Solvation  Ediel_sol  =         0.00000000
  ---------------------------------------------------
  free energy    TOTEN  =       -55.69217200 eV

  energy without entropy =      -55.69217200  energy(sigma->0) =      -55.69217200


--------------------------------------------------------------------------------------------------------




--------------------------------------- Iteration      1(  17)  ---------------------------------------


    POTLOK:  cpu time      0.2996: real time      0.3013
    SETDIJ:  cpu time      0.1905: real time      0.1913
     EDDAV:  cpu time      0.3739: real time      0.3761
       DOS:  cpu time      0.0002: real time      0.0001
    CHARGE:  cpu time      0.1944: real time      0.1952
    MIXING:  cpu time      0.0170: real time      0.0170
    --------------------------------------------
      LOOP:  cpu time      1.0755: real time      1.0810

 eigenvalue-minimisations  :    56
 total energy-change (2. order) :-0.4654265E-03  (-0.2971018E-05)
 number of electron      22.0000000 magnetization 
 augmentation part        0.4897562 magnetization 

 Broyden mixing:
  rms(total) = 0.31741E-03    rms(broyden)= 0.31733E-03
  rms(prec ) = 0.54670E-03
  weight for this iteration     100.00

 eigenvalues of (default mixing * dielectric matrix)
  average eigenvalue GAMMA=   2.4568
  8.5388  5.0694  3.1083  2.4794  1.9584  1.9584  1.3467  1.0160  1.0160  1.0460
  1.0460  0.8984

 Free energy of the ion-electron system (eV)
  ---------------------------------------------------
  alpha Z        PSCENC =         0.62641250
  Ewald energy   TEWEN  =       928.93491437
  -Hartree energ DENC   =     -1461.89740856
  -exchange      EXHF   =         0.00000000
  -V(xc)+E(xc)   XCENC  =        72.89533070
  PAW double counting   =       298.19109308     -303.51228890
  entropy T*S    EENTRO =        -0.00000000
  eigenvalues    EBANDS =      -254.44808913
  atomic energy  EATOM  =       663.51739852
  Solvation  Ediel_sol  =         0.00000000
  ---------------------------------------------------
  free energy    TOTEN  =       -55.69263743 eV

  energy without entropy =      -55.69263743  energy(sigma->0) =      -55.69263743


--------------------------------------------------------------------------------------------------------




--------------------------------------- Iteration      1(  18)  ---------------------------------------


    POTLOK:  cpu time      0.2992: real time      0.3008
    SETDIJ:  cpu time      0.1910: real time      0.1918
     EDDAV:  cpu time      0.4098: real time      0.4120
       DOS:  cpu time      0.0002: real time      0.0002
    CHARGE:  cpu time      0.1944: real time      0.1952
    MIXING:  cpu time      0.0167: real time      0.0168
    --------------------------------------------
      LOOP:  cpu time      1.1113: real time      1.1168

 eigenvalue-minimisations  :    64
 total energy-change (2. order) :-0.2470998E-03  (-0.1173732E-05)
 number of electron      22.0000000 magnetization 
 augmentation part        0.4897621 magnetization 

 Broyden mixing:
  rms(total) = 0.16828E-03    rms(broyden)= 0.16822E-03
  rms(prec ) = 0.27031E-03
  weight for this iteration     100.00

 eigenvalues of (default mixing * dielectric matrix)
  average eigenvalue GAMMA=   2.4265
  8.5866  5.3642  3.3848  2.4426  2.4426  1.7542  1.3589  1.0069  1.0069  0.8976
  1.1554  1.1554  0.9891

 Free energy of the ion-electron system (eV)
  ---------------------------------------------------
  alpha Z        PSCENC =         0.62641250
  Ewald energy   TEWEN  =       928.93491437
  -Hartree energ DENC   =     -1461.89179810
  -exchange      EXHF   =         0.00000000
  -V(xc)+E(xc)   XCENC  =        72.89442414
  PAW double counting   =       298.16751345     -303.48860085
  entropy T*S    EENTRO =        -0.00000000
  eigenvalues    EBANDS =      -254.45314856
  atomic energy  EATOM  =       663.51739852
  Solvation  Ediel_sol  =         0.00000000
  ---------------------------------------------------
  free energy    TOTEN  =       -55.69288453 eV

  energy without entropy =      -55.69288453  energy(sigma->0) =      -55.69288453


--------------------------------------------------------------------------------------------------------




--------------------------------------- Iteration      1(  19)  ---------------------------------------


    POTLOK:  cpu time      0.2998: real time      0.3014
    SETDIJ:  cpu time      0.1899: real time      0.1907
     EDDAV:  cpu time      0.3711: real time      0.3731
       DOS:  cpu time      0.0002: real time      0.0002
    CHARGE:  cpu time      0.1950: real time      0.1958
    MIXING:  cpu time      0.0162: real time      0.0163
    --------------------------------------------
      LOOP:  cpu time      1.0722: real time      1.0775

 eigenvalue-minimisations  :    56
 total energy-change (2. order) :-0.6386962E-04  (-0.1630689E-06)
 number of electron      22.0000000 magnetization 
 augmentation part        0.4897611 magnetization 

 Broyden mixing:
  rms(total) = 0.86655E-04    rms(broyden)= 0.86552E-04
  rms(prec ) = 0.15020E-03
  weight for this iteration     100.00

 eigenvalues of (default mixing * dielectric matrix)
  average eigenvalue GAMMA=   2.4813
  8.8669  5.6673  3.9116  2.7323  2.4426  1.8944  1.8944  1.3336  1.0095  1.0095
  1.0678  1.0678  0.9030  0.9380

 Free energy of the ion-electron system (eV)
  ---------------------------------------------------
  alpha Z        PSCENC =         0.62641250
  Ewald energy   TEWEN  =       928.93491437
  -Hartree energ DENC   =     -1461.90250494
  -exchange      EXHF   =         0.00000000
  -V(xc)+E(xc)   XCENC  =        72.89486113
  PAW double counting   =       298.17824009     -303.49936241
  entropy T*S    EENTRO =        -0.00000000
  eigenvalues    EBANDS =      -254.44290767
  atomic energy  EATOM  =       663.51739852
  Solvation  Ediel_sol  =         0.00000000
  ---------------------------------------------------
  free energy    TOTEN  =       -55.69294840 eV

  energy without entropy =      -55.69294840  energy(sigma->0) =      -55.69294840


--------------------------------------------------------------------------------------------------------




--------------------------------------- Iteration      1(  20)  ---------------------------------------


    POTLOK:  cpu time      0.3071: real time      0.3087
    SETDIJ:  cpu time      0.1901: real time      0.1909
     EDDAV:  cpu time      0.3673: real time      0.3693
       DOS:  cpu time      0.0002: real time      0.0002
    CHARGE:  cpu time      0.1934: real time      0.1942
    MIXING:  cpu time      0.0162: real time      0.0163
    --------------------------------------------
      LOOP:  cpu time      1.0742: real time      1.0796

 eigenvalue-minimisations  :    56
 total energy-change (2. order) :-0.3460947E-04  (-0.4466471E-07)
 number of electron      22.0000000 magnetization 
 augmentation part        0.4897618 magnetization 

 Broyden mixing:
  rms(total) = 0.47928E-04    rms(broyden)= 0.47759E-04
  rms(prec ) = 0.74858E-04
  weight for this iteration     100.00

 eigenvalues of (default mixing * dielectric matrix)
  average eigenvalue GAMMA=   2.4846
  8.9157  5.9939  4.2755  2.9897  2.4786  2.3212  1.7659  1.3900  1.1561  1.1561
  1.0039  1.0039  0.8968  0.9610  0.9610

 Free energy of the ion-electron system (eV)
  ---------------------------------------------------
  alpha Z        PSCENC =         0.62641250
  Ewald energy   TEWEN  =       928.93491437
  -Hartree energ DENC   =     -1461.90367315
  -exchange      EXHF   =         0.00000000
  -V(xc)+E(xc)   XCENC  =        72.89468403
  PAW double counting   =       298.18012843     -303.50123644
  entropy T*S    EENTRO =        -0.00000000
  eigenvalues    EBANDS =      -254.44161127
  atomic energy  EATOM  =       663.51739852
  Solvation  Ediel_sol  =         0.00000000
  ---------------------------------------------------
  free energy    TOTEN  =       -55.69298301 eV

  energy without entropy =      -55.69298301  energy(sigma->0) =      -55.69298301


--------------------------------------------------------------------------------------------------------




--------------------------------------- Iteration      1(  21)  ---------------------------------------


    POTLOK:  cpu time      0.3102: real time      0.3118
    SETDIJ:  cpu time      0.1921: real time      0.1929
     EDDAV:  cpu time      0.3675: real time      0.3696
       DOS:  cpu time      0.0001: real time      0.0001
    CHARGE:  cpu time      0.1939: real time      0.1947
    MIXING:  cpu time      0.0176: real time      0.0176
    --------------------------------------------
      LOOP:  cpu time      1.0813: real time      1.0867

 eigenvalue-minimisations  :    56
 total energy-change (2. order) :-0.9958233E-05  (-0.1102799E-07)
 number of electron      22.0000000 magnetization 
 augmentation part        0.4897627 magnetization 

 Broyden mixing:
  rms(total) = 0.25540E-04    rms(broyden)= 0.25224E-04
  rms(prec ) = 0.40401E-04
  weight for this iteration     100.00

 eigenvalues of (default mixing * dielectric matrix)
  average eigenvalue GAMMA=   2.5321
  9.0796  6.3271  4.6674  3.2309  2.3716  2.3032  2.3032  1.8016  1.3505  1.0051
  1.0051  1.1007  1.1007  0.8964  0.9789  0.9919

 Free energy of the ion-electron system (eV)
  ---------------------------------------------------
  alpha Z        PSCENC =         0.62641250
  Ewald energy   TEWEN  =       928.93491437
  -Hartree energ DENC   =     -1461.90378121
  -exchange      EXHF   =         0.00000000
  -V(xc)+E(xc)   XCENC  =        72.89459784
  PAW double counting   =       298.17811456     -303.49919434
  entropy T*S    EENTRO =        -0.00000000
  eigenvalues    EBANDS =      -254.44145522
  atomic energy  EATOM  =       663.51739852
  Solvation  Ediel_sol  =         0.00000000
  ---------------------------------------------------
  free energy    TOTEN  =       -55.69299297 eV

  energy without entropy =      -55.69299297  energy(sigma->0) =      -55.69299297


--------------------------------------------------------------------------------------------------------




--------------------------------------- Iteration      1(  22)  ---------------------------------------


    POTLOK:  cpu time      0.3111: real time      0.3128
    SETDIJ:  cpu time      0.1909: real time      0.1917
     EDDAV:  cpu time      0.3298: real time      0.3316
       DOS:  cpu time      0.0001: real time      0.0001
    CHARGE:  cpu time      0.1975: real time      0.1983
    MIXING:  cpu time      0.0188: real time      0.0189
    --------------------------------------------
      LOOP:  cpu time      1.0483: real time      1.0534

 eigenvalue-minimisations  :    48
 total energy-change (2. order) :-0.5169120E-05  (-0.8490376E-08)
 number of electron      22.0000000 magnetization 
 augmentation part        0.4897618 magnetization 

 Broyden mixing:
  rms(total) = 0.12956E-04    rms(broyden)= 0.12324E-04
  rms(prec ) = 0.20794E-04
  weight for this iteration     100.00

 eigenvalues of (default mixing * dielectric matrix)
  average eigenvalue GAMMA=   2.4923
  9.1174  6.5154  4.8999  3.2961  2.5481  2.5481  1.9340  1.8589  1.3491  1.1514
  1.1514  1.0130  1.0130  0.8992  0.9587  1.0577  1.0577

 Free energy of the ion-electron system (eV)
  ---------------------------------------------------
  alpha Z        PSCENC =         0.62641250
  Ewald energy   TEWEN  =       928.93491437
  -Hartree energ DENC   =     -1461.90519293
  -exchange      EXHF   =         0.00000000
  -V(xc)+E(xc)   XCENC  =        72.89463599
  PAW double counting   =       298.17871529     -303.49981653
  entropy T*S    EENTRO =        -0.00000000
  eigenvalues    EBANDS =      -254.44006535
  atomic energy  EATOM  =       663.51739852
  Solvation  Ediel_sol  =         0.00000000
  ---------------------------------------------------
  free energy    TOTEN  =       -55.69299814 eV

  energy without entropy =      -55.69299814  energy(sigma->0) =      -55.69299814


--------------------------------------------------------------------------------------------------------




--------------------------------------- Iteration      1(  23)  ---------------------------------------


    POTLOK:  cpu time      0.3101: real time      0.3117
    SETDIJ:  cpu time      0.1916: real time      0.1925
     EDDAV:  cpu time      0.4524: real time      0.4549
       DOS:  cpu time      0.0001: real time      0.0001
    CHARGE:  cpu time      0.1941: real time      0.1948
    MIXING:  cpu time      0.0187: real time      0.0188
    --------------------------------------------
      LOOP:  cpu time      1.1670: real time      1.1729

 eigenvalue-minimisations  :    72
 total energy-change (2. order) :-0.1183883E-05  (-0.1818581E-08)
 number of electron      22.0000000 magnetization 
 augmentation part        0.4897616 magnetization 

 Broyden mixing:
  rms(total) = 0.10167E-04    rms(broyden)= 0.93511E-05
  rms(prec ) = 0.15187E-04
  weight for this iteration     100.00

 eigenvalues of (default mixing * dielectric matrix)
  average eigenvalue GAMMA=   2.5127
  9.1575  6.7766  5.0630  3.6263  2.6795  2.5037  2.0740  2.0740  1.7061  1.3805
  1.0063  1.0063  1.1308  1.1166  1.1166  0.8973  0.9569  0.9569

 Free energy of the ion-electron system (eV)
  ---------------------------------------------------
  alpha Z        PSCENC =         0.62641250
  Ewald energy   TEWEN  =       928.93491437
  -Hartree energ DENC   =     -1461.90581589
  -exchange      EXHF   =         0.00000000
  -V(xc)+E(xc)   XCENC  =        72.89465334
  PAW double counting   =       298.17831426     -303.49941349
  entropy T*S    EENTRO =        -0.00000000
  eigenvalues    EBANDS =      -254.43946293
  atomic energy  EATOM  =       663.51739852
  Solvation  Ediel_sol  =         0.00000000
  ---------------------------------------------------
  free energy    TOTEN  =       -55.69299932 eV

  energy without entropy =      -55.69299932  energy(sigma->0) =      -55.69299932


--------------------------------------------------------------------------------------------------------




--------------------------------------- Iteration      1(  24)  ---------------------------------------


    POTLOK:  cpu time      0.3141: real time      0.3157
    SETDIJ:  cpu time      0.1905: real time      0.1913
     EDDAV:  cpu time      0.2867: real time      0.2883
       DOS:  cpu time      0.0002: real time      0.0002
    CHARGE:  cpu time      0.1940: real time      0.1948
    MIXING:  cpu time      0.0190: real time      0.0191
    --------------------------------------------
      LOOP:  cpu time      1.0046: real time      1.0095

 eigenvalue-minimisations  :    40
 total energy-change (2. order) :-0.1103574E-05  (-0.2578615E-08)
 number of electron      22.0000000 magnetization 
 augmentation part        0.4897617 magnetization 

 Broyden mixing:
  rms(total) = 0.57771E-05    rms(broyden)= 0.41770E-05
  rms(prec ) = 0.80571E-05
  weight for this iteration     100.00
  WARNING: grid for Broyden might be to small

 eigenvalues of (default mixing * dielectric matrix)
  average eigenvalue GAMMA=   2.4694
  9.1736  6.9225  5.2020  3.7929  2.8701  2.4691  2.3319  1.7910  1.4229  1.4229
  1.4099  1.1597  1.1597  1.0057  1.0057  0.8976  0.9584  0.9617  0.9617

 Free energy of the ion-electron system (eV)
  ---------------------------------------------------
  alpha Z        PSCENC =         0.62641250
  Ewald energy   TEWEN  =       928.93491437
  -Hartree energ DENC   =     -1461.90565479
  -exchange      EXHF   =         0.00000000
  -V(xc)+E(xc)   XCENC  =        72.89464772
  PAW double counting   =       298.17831998     -303.49941722
  entropy T*S    EENTRO =        -0.00000000
  eigenvalues    EBANDS =      -254.43962150
  atomic energy  EATOM  =       663.51739852
  Solvation  Ediel_sol  =         0.00000000
  ---------------------------------------------------
  free energy    TOTEN  =       -55.69300042 eV

  energy without entropy =      -55.69300042  energy(sigma->0) =      -55.69300042


--------------------------------------------------------------------------------------------------------




--------------------------------------- Iteration      1(  25)  ---------------------------------------


    POTLOK:  cpu time      0.3163: real time      0.3180
    SETDIJ:  cpu time      0.1905: real time      0.1913
     EDDAV:  cpu time      0.3679: real time      0.3699
       DOS:  cpu time      0.0002: real time      0.0002
    --------------------------------------------
      LOOP:  cpu time      0.8748: real time      0.8793

 eigenvalue-minimisations  :    56
 total energy-change (2. order) :-0.2296308E-06  (-0.3239347E-09)
 number of electron      22.0000000 magnetization 
 augmentation part        0.4897617 magnetization 

 Free energy of the ion-electron system (eV)
  ---------------------------------------------------
  alpha Z        PSCENC =         0.62641250
  Ewald energy   TEWEN  =       928.93491437
  -Hartree energ DENC   =     -1461.90586400
  -exchange      EXHF   =         0.00000000
  -V(xc)+E(xc)   XCENC  =        72.89465568
  PAW double counting   =       298.17843779     -303.49953662
  entropy T*S    EENTRO =        -0.00000000
  eigenvalues    EBANDS =      -254.43941889
  atomic energy  EATOM  =       663.51739852
  Solvation  Ediel_sol  =         0.00000000
  ---------------------------------------------------
  free energy    TOTEN  =       -55.69300065 eV

  energy without entropy =      -55.69300065  energy(sigma->0) =      -55.69300065


--------------------------------------------------------------------------------------------------------




 average (electrostatic) potential at core
  the test charge radii are     0.6991  0.5201
  (the norm of the test charge is              1.0000)
       1 -58.3916       2 -58.8464       3 -58.8073       4 -58.3488       5 -41.6457
       6 -41.8268       7 -42.2050       8 -42.1321       9 -41.7905      10 -41.8149
 
 
 
 E-fermi :  -5.5768     XC(G=0):  -0.4293     alpha+bet : -0.1681

 Fermi energy:        -5.5767939117

 k-point     1 :       0.0000    0.0000    0.0000
  band No.  band energies     occupation 
      1     -20.0176      2.00000
      2     -17.4877      2.00000
      3     -14.7517      2.00000
      4     -12.9858      2.00000
      5     -11.9602      2.00000
      6     -10.5025      2.00000
      7      -9.8937      2.00000
      8      -8.9640      2.00000
      9      -7.9159      2.00000
     10      -6.9160      2.00000
     11      -5.8247      2.00000
     12      -1.6866      0.00000
     13      -0.3203      0.00000
     14      -0.0895      0.00000
     15       0.0807      0.00000
     16       0.2497      0.00000
     17       0.4197      0.00000
     18       0.4461      0.00000
     19       0.5693      0.00000
     20       0.6740      0.00000
     21       0.8698      0.00000
     22       0.9519      0.00000
     23       1.0204      0.00000
     24       1.1011      0.00000


--------------------------------------------------------------------------------------------------------


 soft charge-density along one line, spin component           1
         0         1         2         3         4         5         6         7         8         9
 total charge-density along one line
 
 pseudopotential strength for first ion, spin component:           1
 10.244   0.019  -0.002  -0.002   0.001  -0.002  -0.001   0.001
  0.019  -0.001   0.000   0.000  -0.000  -0.000  -0.000   0.000
 -0.002   0.000  -4.353  -0.005   0.012  -0.017  -0.001   0.003
 -0.002   0.000  -0.005  -4.353   0.001  -0.001  -0.017  -0.000
  0.001  -0.000   0.012   0.001  -4.350   0.003  -0.000  -0.016
 -0.002  -0.000  -0.017  -0.001   0.003  -0.772  -0.000   0.000
 -0.001  -0.000  -0.001  -0.017  -0.000  -0.000  -0.772   0.000
  0.001   0.000   0.003  -0.000  -0.016   0.000   0.000  -0.772
 total augmentation occupancy for first ion, spin component:           1
  1.505  -1.093   0.045   0.034  -0.028   0.026   0.003  -0.009
 -1.093   0.921  -0.115   0.008   0.032  -0.044  -0.009   0.021
  0.045  -0.115   1.085   0.076  -0.166   0.168   0.026  -0.069
  0.034   0.008   0.076   1.170   0.023   0.026   0.181   0.006
 -0.028   0.032  -0.166   0.023   1.092  -0.069   0.006   0.163
  0.026  -0.044   0.168   0.026  -0.069   0.030   0.007  -0.018
  0.003  -0.009   0.026   0.181   0.006   0.007   0.031   0.000
 -0.009   0.021  -0.069   0.006   0.163  -0.018   0.000   0.028


------------------------ aborting loop because EDIFF is reached ----------------------------------------


    CHARGE:  cpu time      0.1955: real time      0.1963
    FORLOC:  cpu time      0.0356: real time      0.0357
    FORNL :  cpu time      1.0713: real time      1.0763
    STRESS:  cpu time      3.3923: real time      3.4083
    FORHAR:  cpu time      0.1095: real time      0.1100
    MIXING:  cpu time      0.0119: real time      0.0120
    OFIELD:  cpu time      0.0001: real time      0.0001

  FORCE on cell =-STRESS in cart. coord.  units (eV):
  Direction    XX          YY          ZZ          XY          YZ          ZX
  --------------------------------------------------------------------------------------
  Alpha Z     0.62641     0.62641     0.62641
  Ewald     -26.66441   359.15079   596.44822  -214.14656   -11.13223   -44.05597
  Hartree   294.62926   481.57519   685.70133  -102.30540   -14.17034   -46.35037
  E(xc)     -77.38198   -76.17099   -75.77507    -0.68272     0.07103     0.08569
  Local    -482.06391 -1030.62620 -1473.96816   302.60992    27.40399    94.41411
  n-local   -28.70221   -29.89947   -30.76296     0.61983    -0.14841    -0.33528
  augment    -0.54864    -0.67202    -0.64313     0.07247    -0.01204    -0.02551
  Kinetic   319.74015   294.06103   300.58529    14.62558    -3.30561    -5.49183
  Fock        0.00000     0.00000     0.00000     0.00000     0.00000     0.00000
  -------------------------------------------------------------------------------------
  Total      -0.36532    -1.95525     2.21194     0.79312    -1.29361    -1.75917
  in kB      -0.17343    -0.92819     1.05005     0.37651    -0.61410    -0.83511
  external pressure =       -0.02 kB  Pullay stress =        0.00 kB


 VOLUME and BASIS-vectors are now :
 -----------------------------------------------------------------------------
  energy-cutoff  :      520.00
  volume of cell :     3375.00
      direct lattice vectors                 reciprocal lattice vectors
    15.000000000  0.000000000  0.000000000     0.066666667  0.000000000  0.000000000
     0.000000000 15.000000000  0.000000000     0.000000000  0.066666667  0.000000000
     0.000000000  0.000000000 15.000000000     0.000000000  0.000000000  0.066666667

  length of vectors
    15.000000000 15.000000000 15.000000000     0.066666667  0.066666667  0.066666667


 FORCES acting on ions
    electron-ion (+dipol)            ewald-force                    non-local-force                 convergence-correction
 -----------------------------------------------------------------------------------------------
   -.706E+02 0.848E+02 0.101E+03   0.717E+02 -.854E+02 -.102E+03   0.586E+00 0.431E+00 -.181E+01   0.118E-04 -.137E-04 0.225E-04
   0.655E+02 -.111E+03 0.752E+02   -.661E+02 0.113E+03 -.744E+02   0.620E+00 -.107E+01 0.215E+01   -.235E-05 -.128E-04 0.709E-05
   0.393E+02 -.128E+03 -.646E+02   -.395E+02 0.129E+03 0.637E+02   0.236E+00 -.107E+01 -.190E+01   0.848E-05 0.105E-04 -.210E-04
   -.971E+01 0.107E+03 -.107E+03   0.913E+01 -.108E+03 0.107E+03   -.393E+00 0.479E+00 0.140E+01   0.789E-05 -.150E-04 -.161E-04
   -.125E+02 0.251E+02 0.635E+02   0.128E+02 -.268E+02 -.690E+02   -.716E+00 0.184E+01 0.526E+01   0.644E-06 -.176E-06 0.185E-04
   -.576E+02 0.337E+02 -.117E+02   0.612E+02 -.357E+02 0.148E+02   -.414E+01 0.237E+01 -.299E+01   -.113E-04 0.446E-05 -.532E-05
   0.390E+02 -.403E+02 0.434E+02   -.421E+02 0.431E+02 -.466E+02   0.325E+01 -.305E+01 0.347E+01   0.272E-05 -.469E-05 0.106E-04
   0.495E+01 -.575E+02 -.410E+02   -.517E+01 0.616E+02 0.438E+02   0.170E+00 -.447E+01 -.331E+01   0.190E-05 -.452E-06 -.685E-05
   0.881E+01 0.658E+02 0.916E+01   -.935E+01 -.697E+02 -.117E+02   0.484E+00 0.466E+01 0.295E+01   0.267E-05 0.359E-05 -.272E-05
   -.669E+01 0.195E+02 -.674E+02   0.750E+01 -.206E+02 0.740E+02   -.584E+00 0.106E+01 -.581E+01   0.153E-05 -.239E-05 -.954E-05
 -----------------------------------------------------------------------------------------------
   0.492E+00 -.115E+01 0.586E+00   -.426E-13 -.355E-14 0.142E-13   -.491E+00 0.117E+01 -.586E+00   0.240E-04 -.307E-04 -.281E-05
 
 
 POSITION                                       TOTAL-FORCE (eV/Angst)
 -----------------------------------------------------------------------------------
      7.95500      7.17600      6.32700         1.648274     -0.121379     -2.607962
      7.17600      8.19900      6.68000         0.030315      0.069714      2.922082
      7.17500      8.24700      8.26300         0.004400      0.005594     -2.754381
      7.38900      7.00800      8.70800        -0.973178     -0.796399      1.682606
      8.07500      6.82600      5.29800        -0.416494      0.182287     -0.313010
      8.74700      6.71000      6.93400        -0.577118      0.422094      0.020423
      6.54100      8.79400      6.00900         0.177455     -0.197207      0.271743
      7.13700      9.13900      8.91200        -0.052978     -0.316663     -0.434240
      7.30200      6.08000      8.10800        -0.065613      0.791626      0.407064
      7.50300      6.82000      9.75900         0.224937     -0.039668      0.805673
 -----------------------------------------------------------------------------------
    total drift:                                0.001473      0.017799      0.000081


--------------------------------------------------------------------------------------------------------



  FREE ENERGIE OF THE ION-ELECTRON SYSTEM (eV)
  ---------------------------------------------------
  free  energy   TOTEN  =       -55.69300065 eV

  energy  without entropy=      -55.69300065  energy(sigma->0) =      -55.69300065
 


--------------------------------------------------------------------------------------------------------


    POTLOK:  cpu time      0.5048: real time      0.5072


--------------------------------------------------------------------------------------------------------


 stress matrix after NEB project (eV)
     -0.36532      0.79312     -1.75917
      0.79312     -1.95525     -1.29361
     -1.75917     -1.29361      2.21194
  FORCES: max atom, RMS     3.087557    1.811813
  FORCE total and by dimension    5.729455    2.922082
  Stress total and by dimension    4.432093    2.211939
     LOOP+:  cpu time     30.3703: real time     30.5212
    4ORBIT:  cpu time      0.0000: real time      0.0000

 total amount of memory used by VASP MPI-rank0   224785. kBytes
=======================================================================

   base      :      30000. kBytes
   nonlr-proj:       1261. kBytes
   fftplans  :     123538. kBytes
   grid      :      67787. kBytes
   one-center:         15. kBytes
   wavefun   :       2184. kBytes
 
  
  
 General timing and accounting informations for this job:
 ========================================================
  
                  Total CPU time used (sec):       36.966
                            User time (sec):       33.776
                          System time (sec):        3.191
                         Elapsed time (sec):       38.430
  
                   Maximum memory used (kb):      548948.
                   Average memory used (kb):          N/A
  
                          Minor page faults:       138972
                          Major page faults:         5434
                 Voluntary context switches:         3114
