 vasp.6.4.2 20Jul23 (build Apr 10 2024 13:39:58) complex                        
  
 executed on             LinuxIFC date 2024.05.18  08:43:17
 running   16 mpi-ranks, on    1 nodes
 distrk:  each k-point on   16 cores,    1 groups
 distr:  one band on NCORE=   2 cores,    8 groups


--------------------------------------------------------------------------------------------------------


 INCAR:
   ISTART = 0
   ISPIN = 1
   LREAL = Auto
   ENCUT = 520
   NPAR = 8
   LPLANE = .TRUE.
   LSCALU = .FALSE.
   NSIM = 4
   LWAVE = .FALSE.
   LCHARG = .FALSE.
   ADDGRID = .TRUE.
   LASPH = .TRUE.
   PREC = Accurate
   ISMEAR = 0
   SIGMA = 0.05
   EDIFF = 1E-06
   NSW = 0
   TEBEG = 300
   TEEND = 700     	
   ISYM = 0
   NWRITE = 2

 POTCAR:   PAW_PBE C 08Apr2002                    
 POTCAR:   PAW_PBE H 15Jun2001                    
 POTCAR:   PAW_PBE C 08Apr2002                    
   VRHFIN =C: s2p2                                                                                  
   LEXCH  = PE                                                                                      
   EATOM  =   147.1560 eV,   10.8157 Ry                                                             
                                                                                                    
   TITEL  = PAW_PBE C 08Apr2002                                                                     
   LULTRA =        F    use ultrasoft PP ?                                                          
   IUNSCR =        0    unscreen: 0-lin 1-nonlin 2-no                                               
   RPACOR =     .000    partial core radius                                                         
   POMASS =   12.011; ZVAL   =    4.000    mass and valenz                                          
   RCORE  =    1.500    outmost cutoff radius                                                       
   RWIGS  =    1.630; RWIGS  =     .863    wigner-seitz radius (au A)                               
   ENMAX  =  400.000; ENMIN  =  300.000 eV                                                          
   ICORE  =        2    local potential                                                             
   LCOR   =        T    correct aug charges                                                         
   LPAW   =        T    paw PP                                                                      
   EAUG   =  644.873                                                                                
   DEXC   =     .000                                                                                
   RMAX   =    2.266    core radius for proj-oper                                                   
   RAUG   =    1.300    factor for augmentation sphere                                              
   RDEP   =    1.501    radius for radial grids                                                     
   RDEPT  =    1.300    core radius for aug-charge                                                  
   QCUT   =   -5.516; QGAM   =   11.032    optimization parameters                                  
                                                                                                    
   Description                                                                                      
     l     E      TYP  RCUT    TYP  RCUT                                                            
     0   .000     23  1.200                                                                         
     0   .000     23  1.200                                                                         
     1   .000     23  1.500                                                                         
     1  2.500     23  1.500                                                                         
     2   .000      7  1.500                                                                         
  local pseudopotential read in
  atomic valenz-charges read in
  non local Contribution for L=           0  read in
    real space projection operators read in
  non local Contribution for L=           0  read in
    real space projection operators read in
  non local Contribution for L=           1  read in
    real space projection operators read in
  non local Contribution for L=           1  read in
    real space projection operators read in
    PAW grid and wavefunctions read in
 
   number of l-projection  operators is LMAX  =           4
   number of lm-projection operators is LMMAX =           8
 
 POTCAR:   PAW_PBE H 15Jun2001                    
   VRHFIN =H: ultrasoft test                                                                        
   LEXCH  = PE                                                                                      
   EATOM  =    12.4884 eV,     .9179 Ry                                                             
                                                                                                    
   TITEL  = PAW_PBE H 15Jun2001                                                                     
   LULTRA =        F    use ultrasoft PP ?                                                          
   IUNSCR =        0    unscreen: 0-lin 1-nonlin 2-no                                               
   RPACOR =     .000    partial core radius                                                         
   POMASS =    1.000; ZVAL   =    1.000    mass and valenz                                          
   RCORE  =    1.100    outmost cutoff radius                                                       
   RWIGS  =     .700; RWIGS  =     .370    wigner-seitz radius (au A)                               
   ENMAX  =  250.000; ENMIN  =  200.000 eV                                                          
   RCLOC  =     .701    cutoff for local pot                                                        
   LCOR   =        T    correct aug charges                                                         
   LPAW   =        T    paw PP                                                                      
   EAUG   =  400.000                                                                                
   RMAX   =    2.174    core radius for proj-oper                                                   
   RAUG   =    1.200    factor for augmentation sphere                                              
   RDEP   =    1.112    radius for radial grids                                                     
   QCUT   =   -5.749; QGAM   =   11.498    optimization parameters                                  
                                                                                                    
   Description                                                                                      
     l     E      TYP  RCUT    TYP  RCUT                                                            
     0   .000     23  1.100                                                                         
     0   .500     23  1.100                                                                         
     1  -.300     23  1.100                                                                         
  local pseudopotential read in
  atomic valenz-charges read in
  non local Contribution for L=           0  read in
    real space projection operators read in
  non local Contribution for L=           0  read in
    real space projection operators read in
  non local Contribution for L=           1  read in
    real space projection operators read in
    PAW grid and wavefunctions read in
 
   number of l-projection  operators is LMAX  =           3
   number of lm-projection operators is LMMAX =           5
 
 Optimization of the real space projectors (new method)

 maximal supplied QI-value         = 25.13
 optimisation between [QCUT,QGAM] = [ 11.56, 23.12] = [ 37.43,149.72] Ry 
 Optimized for a Real-space Cutoff    1.04 Angstroem

   l    n(q)    QCUT    max X(q) W(low)/X(q) W(high)/X(q)  e(spline) 
   0      7    11.561     5.582    0.47E-04    0.94E-04    0.17E-07
   0      7    11.561    69.432    0.20E-03    0.59E-03    0.21E-06
   1      7    11.561     2.780    0.24E-04    0.70E-04    0.44E-07
   1      7    11.561     4.549    0.18E-03    0.25E-03    0.12E-06
 Optimization of the real space projectors (new method)

 maximal supplied QI-value         = 34.20
 optimisation between [QCUT,QGAM] = [ 11.63, 23.26] = [ 37.87,151.49] Ry 
 Optimized for a Real-space Cutoff    1.21 Angstroem

   l    n(q)    QCUT    max X(q) W(low)/X(q) W(high)/X(q)  e(spline) 
   0      8    11.629     4.436    0.19E-04    0.32E-04    0.47E-07
   0      8    11.629    16.131    0.16E-03    0.33E-03    0.21E-06
   1      8    11.629     4.654    0.18E-03    0.16E-03    0.26E-06
 PAW_PBE C 08Apr2002                    :
 energy of atom  1       EATOM= -147.1560
 kinetic energy error for atom=    0.0071 (will be added to EATOM!!)
 PAW_PBE H 15Jun2001                    :
 energy of atom  2       EATOM=  -12.4884
 kinetic energy error for atom=    0.0014 (will be added to EATOM!!)
 
 
 POSCAR:  C  H
  positions in cartesian coordinates
  No initial velocities read in
 exchange correlation table for  LEXCH =        8
   RHO(1)=    0.500       N(1)  =     2000
   RHO(2)=  100.500       N(2)  =     4000

 VTST: version 4.1, (05/19/21)

 CHAIN: initializing optimizer
 
 OPT: Using VASP Dynamics algorithm
 CHAIN: Read ICHAIN            0
 
 POSCAR:  C  H
  positions in cartesian coordinates
  No initial velocities read in
 


--------------------------------------------------------------------------------------------------------


 ion  position               nearest neighbor table
   1  0.535  0.477  0.413-   5 1.13   6 1.14   2 1.40
   2  0.482  0.542  0.454-   7 1.21   3 1.38   1 1.40
   3  0.483  0.545  0.546-   8 1.10   4 1.35   2 1.38
   4  0.490  0.465  0.587-  10 1.08   9 1.15   3 1.35
   5  0.528  0.470  0.339-   1 1.13
   6  0.589  0.441  0.452-   1 1.14
   7  0.439  0.593  0.409-   2 1.21
   8  0.481  0.606  0.586-   3 1.10
   9  0.475  0.397  0.556-   4 1.15
  10  0.499  0.464  0.659-   4 1.08
 

IMPORTANT INFORMATION: All symmetrisations will be switched off!
NOSYMM: (Re-)initialisation of all symmetry stuff for point group C_1.


----------------------------------------------------------------------------------------

                                     Primitive cell                                     

  volume of cell :    3375.0000

  direct lattice vectors                    reciprocal lattice vectors
    15.000000000  0.000000000  0.000000000     0.066666667  0.000000000  0.000000000
     0.000000000 15.000000000  0.000000000     0.000000000  0.066666667  0.000000000
     0.000000000  0.000000000 15.000000000     0.000000000  0.000000000  0.066666667

  length of vectors
    15.000000000 15.000000000 15.000000000     0.066666667  0.066666667  0.066666667

  position of ions in fractional coordinates (direct lattice)
     0.534666697  0.477333323  0.413066673
     0.481733322  0.541933314  0.454333337
     0.482933331  0.545200030  0.545999972
     0.489933332  0.465333335  0.587066650
     0.528133329  0.470000013  0.338533338
     0.588933309  0.440733337  0.451799997
     0.438799985  0.592733320  0.408533319
     0.480533346  0.606399981  0.586266645
     0.475266679  0.396666654  0.555666669
     0.499000009  0.463666662  0.658799998

  ion indices of the primitive-cell ions
   primitive index   ion index
                 1           1
                 2           2
                 3           3
                 4           4
                 5           5
                 6           6
                 7           7
                 8           8
                 9           9
                10          10

----------------------------------------------------------------------------------------

 
 
 KPOINTS: K-Spacing Value to Generate K-Mesh: 1.00

Automatic generation of k-mesh.
 Grid dimensions read from file:
 generate k-points for:    1    1    1

 Generating k-lattice:

  Cartesian coordinates                     Fractional coordinates (reciprocal lattice)
     0.066666667  0.000000000  0.000000000     1.000000000  0.000000000  0.000000000
     0.000000000  0.066666667  0.000000000     0.000000000  1.000000000  0.000000000
     0.000000000  0.000000000  0.066666667     0.000000000  0.000000000  1.000000000

  Length of vectors
     0.066666667  0.066666667  0.066666667

  Shift w.r.t. Gamma in fractional coordinates (k-lattice)
     0.000000000  0.000000000  0.000000000

 
 Subroutine IBZKPT returns following result:
 ===========================================
 
 Found      1 irreducible k-points:
 
 Following reciprocal coordinates:
            Coordinates               Weight
  0.000000  0.000000  0.000000      1.000000
 
 Following cartesian coordinates:
            Coordinates               Weight
  0.000000  0.000000  0.000000      1.000000
 


--------------------------------------------------------------------------------------------------------




 Dimension of arrays:
   k-points           NKPTS =      1   k-points in BZ     NKDIM =      1   number of bands    NBANDS=     24
   number of dos      NEDOS =    301   number of ions     NIONS =     10
   non local maximal  LDIM  =      4   non local SUM 2l+1 LMDIM =      8
   total plane-waves  NPLWV = ******
   max r-space proj   IRMAX =   3145   max aug-charges    IRDMAX=  39494
   dimension x,y,z NGX =   112 NGY =  112 NGZ =  112
   dimension x,y,z NGXF=   224 NGYF=  224 NGZF=  224
   support grid    NGXF=   448 NGYF=  448 NGZF=  448
   ions per type =               4   6
   NGX,Y,Z   is equivalent  to a cutoff of  12.41, 12.41, 12.41 a.u.
   NGXF,Y,Z  is equivalent  to a cutoff of  24.83, 24.83, 24.83 a.u.

 SYSTEM =  unknown system                          
 POSCAR =   C  H                                   

 Startparameter for this run:
   NWRITE =      2    write-flag & timer
   PREC   = accura    normal or accurate (medium, high low for compatibility)
   ISTART =      0    job   : 0-new  1-cont  2-samecut
   ICHARG =      2    charge: 1-file 2-atom 10-const
   ISPIN  =      1    spin polarized calculation?
   LNONCOLLINEAR =      F non collinear calculations
   LSORBIT =      F    spin-orbit coupling
   INIWAV =      1    electr: 0-lowe 1-rand  2-diag
   LASPH  =      T    aspherical Exc in radial PAW
 Electronic Relaxation 1
   ENCUT  =  520.0 eV  38.22 Ry    6.18 a.u.  27.89 27.89 27.89*2*pi/ulx,y,z
   ENINI  =  520.0     initial cutoff
   ENAUG  =  644.9 eV  augmentation charge cutoff
   NELM   =     60;   NELMIN=  2; NELMDL= -5     # of ELM steps 
   EDIFF  = 0.1E-05   stopping-criterion for ELM
   LREAL  =      T    real-space projection
   NLSPLINE    = F    spline interpolate recip. space projectors
   LCOMPAT=      F    compatible to vasp.4.4
   GGA_COMPAT  = T    GGA compatible to vasp.4.4-vasp.4.6
   LMAXPAW     = -100 max onsite density
   LMAXMIX     =    2 max onsite mixed and CHGCAR
   VOSKOWN=      0    Vosko Wilk Nusair interpolation
   ROPT   =   -0.00025  -0.00025
 Ionic relaxation
   EDIFFG = 0.1E-04   stopping-criterion for IOM
   NSW    =      0    number of steps for IOM
   NBLOCK =      1;   KBLOCK =      1    inner block; outer block 
   IBRION =     -1    ionic relax: 0-MD 1-quasi-New 2-CG
   NFREE  =      0    steps in history (QN), initial steepest desc. (CG)
   ISIF   =      2    stress and relaxation
   IWAVPR =     10    prediction:  0-non 1-charg 2-wave 3-comb
   ISYM   =      0    0-nonsym 1-usesym 2-fastsym
   LCORR  =      T    Harris-Foulkes like correction to forces

   POTIM  = 0.5000    time-step for ionic-motion
   TEIN   =    0.0    initial temperature
   TEBEG  =  300.0;   TEEND  = 700.0 temperature during run
   SMASS  =  -3.00    Nose mass-parameter (am)
   estimated Nose-frequenzy (Omega)   =  0.10E-29 period in steps = 0.13E+47 mass=  -0.514E-26a.u.
   SCALEE = 1.0000    scale energy and forces
   NPACO  =    256;   APACO  = 10.0  distance and # of slots for P.C.
   PSTRESS=    0.0 pullay stress

  Mass of Ions in am
   POMASS =  12.01  1.00
  Ionic Valenz
   ZVAL   =   4.00  1.00
  Atomic Wigner-Seitz radii
   RWIGS  =  -1.00 -1.00
  virtual crystal weights 
   VCA    =   1.00  1.00
   NELECT =      22.0000    total number of electrons
   NUPDOWN=      -1.0000    fix difference up-down

 DOS related values:
   EMIN   =  10.00;   EMAX   =-10.00  energy-range for DOS
   EFERMI =   0.00;   METHOD = LEGACY      
   ISMEAR =     0;   SIGMA  =   0.05  broadening in eV -4-tet -1-fermi 0-gaus

 Electronic relaxation 2 (details)
   IALGO  =     38    algorithm
   LDIAG  =      T    sub-space diagonalisation (order eigenvalues)
   LSUBROT=      F    optimize rotation matrix (better conditioning)
   TURBO    =      0    0=normal 1=particle mesh
   IRESTART =      0    0=no restart 2=restart with 2 vectors
   NREBOOT  =      0    no. of reboots
   NMIN     =      0    reboot dimension
   EREF     =   0.00    reference energy to select bands
   IMIX   =      4    mixing-type and parameters
     AMIX     =   0.40;   BMIX     =  1.00
     AMIX_MAG =   1.60;   BMIX_MAG =  1.00
     AMIN     =   0.10
     WC   =   100.;   INIMIX=   1;  MIXPRE=   1;  MAXMIX= -45

 Intra band minimization:
   WEIMIN = 0.0000     energy-eigenvalue tresh-hold
   EBREAK =  0.10E-07  absolut break condition
   DEPER  =   0.30     relativ break condition  

   TIME   =   0.40     timestep for ELM

  volume/ion in A,a.u.               =     337.50      2277.56
  Fermi-wavevector in a.u.,A,eV,Ry     =   0.305814  0.577905  1.272449  0.093522
  Thomas-Fermi vector in A             =   1.179187
 
 Write flags
   LWAVE        =      F    write WAVECAR
   LDOWNSAMPLE  =      F    k-point downsampling of WAVECAR
   LCHARG       =      F    write CHGCAR
   LVTOT        =      F    write LOCPOT, total local potential
   LVHAR        =      F    write LOCPOT, Hartree potential only
   LELF         =      F    write electronic localiz. function (ELF)
   LORBIT       =      0    0 simple, 1 ext, 2 COOP (PROOUT), +10 PAW based schemes


 Dipole corrections
   LMONO  =      F    monopole corrections only (constant potential shift)
   LDIPOL =      F    correct potential (dipole corrections)
   IDIPOL =      0    1-x, 2-y, 3-z, 4-all directions 
   EPSILON=  1.0000000 bulk dielectric constant

 Exchange correlation treatment:
   GGA     =    --    GGA type
   LEXCH   =     8    internal setting for exchange type
   LIBXC   =     F    Libxc                    
   VOSKOWN =     0    Vosko Wilk Nusair interpolation
   LHFCALC =     F    Hartree Fock is set to
   LHFONE  =     F    Hartree Fock one center treatment
   AEXX    =    0.0000 exact exchange contribution

 Linear response parameters
   LEPSILON=     F    determine dielectric tensor
   LRPA    =     F    only Hartree local field effects (RPA)
   LNABLA  =     F    use nabla operator in PAW spheres
   LVEL    =     F    velocity operator in full k-point grid
   CSHIFT  =0.1000    complex shift for real part using Kramers Kronig
   OMEGAMAX=  -1.0    maximum frequency
   DEG_THRESHOLD= 0.2000000E-02 threshold for treating states as degnerate
   RTIME   =   -0.100 relaxation time in fs
  (WPLASMAI=    0.000 imaginary part of plasma frequency in eV, 0.658/RTIME)
   DFIELD  = 0.0000000 0.0000000 0.0000000 field for delta impulse in time
 
  Optional k-point grid parameters
   LKPOINTS_OPT  =     F    use optional k-point grid
   KPOINTS_OPT_MODE=     1    mode for optional k-point grid
 
 Orbital magnetization related:
   ORBITALMAG=     F  switch on orbital magnetization
   LCHIMAG   =     F  perturbation theory with respect to B field
   DQ        =  0.001000  dq finite difference perturbation B field
   LLRAUG    =     F  two centre corrections for induced B field
   LBONE     =     F  B-component reconstruction in AE one-centre
   LVGVCALC  =     T  calculate vGv susceptibility
   LVGVAPPL  =     F  apply vGv susceptibility instead of pGv for G=0

 Random number generation:
   RANDOM_GENERATOR = DEFAULT
   PCG_SEED         = not used


--------------------------------------------------------------------------------------------------------


 Static calculation
 charge density and potential will be updated during run
 non-spin polarized calculation
 Variant of blocked Davidson
 Davidson routine will perform the subspace rotation
 perform sub-space diagonalisation
    after iterative eigenvector-optimisation
 modified Broyden-mixing scheme, WC =      100.0
 initial mixing is a Kerker type mixing with AMIX =  0.4000 and BMIX =      1.0000
 Hartree-type preconditioning will be used
 using additional bands           13
 real space projection scheme for non local part
 calculate Harris-corrections to forces 
   (improved forces if not selfconsistent)
 use gradient corrections 
 use of overlap-Matrix (Vanderbilt PP)
 Gauss-broadening in eV      SIGMA  =   0.05


--------------------------------------------------------------------------------------------------------


  energy-cutoff  :      520.00
  volume of cell :     3375.00
      direct lattice vectors                 reciprocal lattice vectors
    15.000000000  0.000000000  0.000000000     0.066666667  0.000000000  0.000000000
     0.000000000 15.000000000  0.000000000     0.000000000  0.066666667  0.000000000
     0.000000000  0.000000000 15.000000000     0.000000000  0.000000000  0.066666667

  length of vectors
    15.000000000 15.000000000 15.000000000     0.066666667  0.066666667  0.066666667


 
 k-points in units of 2pi/SCALE and weight: K-Spacing Value to Generate K-Mesh: 1.00
   0.00000000  0.00000000  0.00000000       1.000
 
 k-points in reciprocal lattice and weights: K-Spacing Value to Generate K-Mesh: 1.00
   0.00000000  0.00000000  0.00000000       1.000
 
 position of ions in fractional coordinates (direct lattice) 
   0.53466670  0.47733332  0.41306667
   0.48173332  0.54193331  0.45433334
   0.48293333  0.54520003  0.54599997
   0.48993333  0.46533333  0.58706665
   0.52813333  0.47000001  0.33853334
   0.58893331  0.44073334  0.45180000
   0.43879999  0.59273332  0.40853332
   0.48053335  0.60639998  0.58626664
   0.47526668  0.39666665  0.55566667
   0.49900001  0.46366666  0.65880000
 
 position of ions in cartesian coordinates  (Angst):
   8.02000046  7.15999985  6.19600010
   7.22599983  8.12899971  6.81500006
   7.24399996  8.17800045  8.18999958
   7.34899998  6.98000002  8.80599976
   7.92199993  7.05000019  5.07800007
   8.83399963  6.61100006  6.77699995
   6.58199978  8.89099979  6.12799978
   7.20800018  9.09599972  8.79399967
   7.12900019  5.94999981  8.33500004
   7.48500013  6.95499992  9.88199997
 


--------------------------------------------------------------------------------------------------------


 k-point   1 :   0.0000 0.0000 0.0000  plane waves:   90879

 maximum and minimum number of plane-waves per node :     45467    45412

 maximum number of plane-waves:     90879
 maximum index in each direction: 
   IXMAX=   27   IYMAX=   27   IZMAX=   27
   IXMIN=  -27   IYMIN=  -27   IZMIN=  -27


 real space projection operators:
  total allocation   :       1184.80 KBytes
  max/ min on nodes  :        592.88        591.92


 parallel 3D FFT for wavefunctions:
    minimum data exchange during FFTs selected (reduces bandwidth)
 parallel 3D FFT for charge:
    minimum data exchange during FFTs selected (reduces bandwidth)


 total amount of memory used by VASP MPI-rank0   224779. kBytes
=======================================================================

   base      :      30000. kBytes
   nonlr-proj:       1255. kBytes
   fftplans  :     123538. kBytes
   grid      :      67787. kBytes
   one-center:         15. kBytes
   wavefun   :       2184. kBytes
 
     INWAV:  cpu time      0.0000: real time      0.0000
 Broyden mixing: mesh for mixing (old mesh)
   NGX = 55   NGY = 55   NGZ = 55
  (NGX  =224   NGY  =224   NGZ  =224)
  gives a total of 166375 points

 initial charge density was supplied:
 charge density of overlapping atoms calculated
 number of electron      22.0000000 magnetization 
 keeping initial charge density in first step


--------------------------------------------------------------------------------------------------------


 Maximum index for non-local projection operator         1526
 Maximum index for augmentation-charges         2484 (set IRDMAX)


--------------------------------------------------------------------------------------------------------


 First call to EWALD:  gamma=   0.118
 Maximum number of real-space cells 3x 3x 3
 Maximum number of reciprocal cells 3x 3x 3

    FEWALD:  cpu time      0.0010: real time      0.0010


--------------------------------------- Ionic step        1  -------------------------------------------




--------------------------------------- Iteration      1(   1)  ---------------------------------------


    POTLOK:  cpu time      0.3337: real time      0.3356
    SETDIJ:  cpu time      0.1928: real time      0.1937
     EDDAV:  cpu time      0.4134: real time      0.4158
       DOS:  cpu time      0.0002: real time      0.0002
    --------------------------------------------
      LOOP:  cpu time      0.9401: real time      0.9453

 eigenvalue-minimisations  :    64
 total energy-change (2. order) : 0.1037137E+03  (-0.5250210E+03)
 number of electron      22.0000000 magnetization 
 augmentation part       22.0000000 magnetization 

 Free energy of the ion-electron system (eV)
  ---------------------------------------------------
  alpha Z        PSCENC =         0.62641250
  Ewald energy   TEWEN  =       911.52845137
  -Hartree energ DENC   =     -1339.57747723
  -exchange      EXHF   =         0.00000000
  -V(xc)+E(xc)   XCENC  =        67.15799891
  PAW double counting   =       156.01372664     -160.66969168
  entropy T*S    EENTRO =        -0.00251079
  eigenvalues    EBANDS =      -194.88059405
  atomic energy  EATOM  =       663.51739852
  Solvation  Ediel_sol  =         0.00000000
  ---------------------------------------------------
  free energy    TOTEN  =       103.71371420 eV

  energy without entropy =      103.71622499  energy(sigma->0) =      103.71496960


--------------------------------------------------------------------------------------------------------




--------------------------------------- Iteration      1(   2)  ---------------------------------------


     EDDAV:  cpu time      0.4446: real time      0.4471
       DOS:  cpu time      0.0001: real time      0.0001
    --------------------------------------------
      LOOP:  cpu time      0.4447: real time      0.4472

 eigenvalue-minimisations  :    72
 total energy-change (2. order) :-0.1209817E+03  (-0.1187663E+03)
 number of electron      22.0000000 magnetization 
 augmentation part       22.0000000 magnetization 

 Free energy of the ion-electron system (eV)
  ---------------------------------------------------
  alpha Z        PSCENC =         0.62641250
  Ewald energy   TEWEN  =       911.52845137
  -Hartree energ DENC   =     -1339.57747723
  -exchange      EXHF   =         0.00000000
  -V(xc)+E(xc)   XCENC  =        67.15799891
  PAW double counting   =       156.01372664     -160.66969168
  entropy T*S    EENTRO =        -0.00000000
  eigenvalues    EBANDS =      -315.86477578
  atomic energy  EATOM  =       663.51739852
  Solvation  Ediel_sol  =         0.00000000
  ---------------------------------------------------
  free energy    TOTEN  =       -17.26795674 eV

  energy without entropy =      -17.26795674  energy(sigma->0) =      -17.26795674


--------------------------------------------------------------------------------------------------------




--------------------------------------- Iteration      1(   3)  ---------------------------------------


     EDDAV:  cpu time      0.4461: real time      0.4487
       DOS:  cpu time      0.0002: real time      0.0002
    --------------------------------------------
      LOOP:  cpu time      0.4463: real time      0.4489

 eigenvalue-minimisations  :    72
 total energy-change (2. order) :-0.4271783E+02  (-0.4261469E+02)
 number of electron      22.0000000 magnetization 
 augmentation part       22.0000000 magnetization 

 Free energy of the ion-electron system (eV)
  ---------------------------------------------------
  alpha Z        PSCENC =         0.62641250
  Ewald energy   TEWEN  =       911.52845137
  -Hartree energ DENC   =     -1339.57747723
  -exchange      EXHF   =         0.00000000
  -V(xc)+E(xc)   XCENC  =        67.15799891
  PAW double counting   =       156.01372664     -160.66969168
  entropy T*S    EENTRO =        -0.00000000
  eigenvalues    EBANDS =      -358.58260228
  atomic energy  EATOM  =       663.51739852
  Solvation  Ediel_sol  =         0.00000000
  ---------------------------------------------------
  free energy    TOTEN  =       -59.98578324 eV

  energy without entropy =      -59.98578324  energy(sigma->0) =      -59.98578324


--------------------------------------------------------------------------------------------------------




--------------------------------------- Iteration      1(   4)  ---------------------------------------


     EDDAV:  cpu time      0.4435: real time      0.4461
       DOS:  cpu time      0.0001: real time      0.0001
    --------------------------------------------
      LOOP:  cpu time      0.4436: real time      0.4462

 eigenvalue-minimisations  :    72
 total energy-change (2. order) :-0.2265137E+01  (-0.2262669E+01)
 number of electron      22.0000000 magnetization 
 augmentation part       22.0000000 magnetization 

 Free energy of the ion-electron system (eV)
  ---------------------------------------------------
  alpha Z        PSCENC =         0.62641250
  Ewald energy   TEWEN  =       911.52845137
  -Hartree energ DENC   =     -1339.57747723
  -exchange      EXHF   =         0.00000000
  -V(xc)+E(xc)   XCENC  =        67.15799891
  PAW double counting   =       156.01372664     -160.66969168
  entropy T*S    EENTRO =        -0.00000000
  eigenvalues    EBANDS =      -360.84773977
  atomic energy  EATOM  =       663.51739852
  Solvation  Ediel_sol  =         0.00000000
  ---------------------------------------------------
  free energy    TOTEN  =       -62.25092073 eV

  energy without entropy =      -62.25092073  energy(sigma->0) =      -62.25092073


--------------------------------------------------------------------------------------------------------




--------------------------------------- Iteration      1(   5)  ---------------------------------------


     EDDAV:  cpu time      0.4075: real time      0.4100
       DOS:  cpu time      0.0001: real time      0.0001
    CHARGE:  cpu time      0.1963: real time      0.1972
    MIXING:  cpu time      0.0148: real time      0.0148
    --------------------------------------------
      LOOP:  cpu time      0.6188: real time      0.6221

 eigenvalue-minimisations  :    64
 total energy-change (2. order) :-0.2318569E-01  (-0.2318262E-01)
 number of electron      22.0000000 magnetization 
 augmentation part        0.5663158 magnetization 

 Broyden mixing:
  rms(total) = 0.11403E+01    rms(broyden)= 0.11401E+01
  rms(prec ) = 0.13785E+01
  weight for this iteration     100.00

 Free energy of the ion-electron system (eV)
  ---------------------------------------------------
  alpha Z        PSCENC =         0.62641250
  Ewald energy   TEWEN  =       911.52845137
  -Hartree energ DENC   =     -1339.57747723
  -exchange      EXHF   =         0.00000000
  -V(xc)+E(xc)   XCENC  =        67.15799891
  PAW double counting   =       156.01372664     -160.66969168
  entropy T*S    EENTRO =        -0.00000000
  eigenvalues    EBANDS =      -360.87092546
  atomic energy  EATOM  =       663.51739852
  Solvation  Ediel_sol  =         0.00000000
  ---------------------------------------------------
  free energy    TOTEN  =       -62.27410642 eV

  energy without entropy =      -62.27410642  energy(sigma->0) =      -62.27410642


--------------------------------------------------------------------------------------------------------




--------------------------------------- Iteration      1(   6)  ---------------------------------------


    POTLOK:  cpu time      0.3040: real time      0.3057
    SETDIJ:  cpu time      0.1911: real time      0.1920
     EDDAV:  cpu time      0.3736: real time      0.3757
       DOS:  cpu time      0.0001: real time      0.0001
    CHARGE:  cpu time      0.1959: real time      0.1968
    MIXING:  cpu time      0.0160: real time      0.0161
    --------------------------------------------
      LOOP:  cpu time      1.0809: real time      1.0863

 eigenvalue-minimisations  :    56
 total energy-change (2. order) : 0.4976782E+01  (-0.7501792E+00)
 number of electron      22.0000000 magnetization 
 augmentation part        0.5189449 magnetization 

 Broyden mixing:
  rms(total) = 0.54889E+00    rms(broyden)= 0.54886E+00
  rms(prec ) = 0.65163E+00
  weight for this iteration     100.00

 eigenvalues of (default mixing * dielectric matrix)
  average eigenvalue GAMMA=   1.6047
  1.6047

 Free energy of the ion-electron system (eV)
  ---------------------------------------------------
  alpha Z        PSCENC =         0.62641250
  Ewald energy   TEWEN  =       911.52845137
  -Hartree energ DENC   =     -1386.14949382
  -exchange      EXHF   =         0.00000000
  -V(xc)+E(xc)   XCENC  =        69.46064175
  PAW double counting   =       226.90517739     -232.09628797
  entropy T*S    EENTRO =        -0.00000000
  eigenvalues    EBANDS =      -311.08962371
  atomic energy  EATOM  =       663.51739852
  Solvation  Ediel_sol  =         0.00000000
  ---------------------------------------------------
  free energy    TOTEN  =       -57.29732397 eV

  energy without entropy =      -57.29732397  energy(sigma->0) =      -57.29732397


--------------------------------------------------------------------------------------------------------




--------------------------------------- Iteration      1(   7)  ---------------------------------------


    POTLOK:  cpu time      0.3080: real time      0.3097
    SETDIJ:  cpu time      0.1914: real time      0.1923
     EDDAV:  cpu time      0.4095: real time      0.4118
       DOS:  cpu time      0.0001: real time      0.0001
    CHARGE:  cpu time      0.1933: real time      0.1941
    MIXING:  cpu time      0.0163: real time      0.0164
    --------------------------------------------
      LOOP:  cpu time      1.1186: real time      1.1243

 eigenvalue-minimisations  :    64
 total energy-change (2. order) : 0.1094607E+01  (-0.4106957E+00)
 number of electron      22.0000000 magnetization 
 augmentation part        0.4868698 magnetization 

 Broyden mixing:
  rms(total) = 0.22773E+00    rms(broyden)= 0.22766E+00
  rms(prec ) = 0.26068E+00
  weight for this iteration     100.00

 eigenvalues of (default mixing * dielectric matrix)
  average eigenvalue GAMMA=   1.9710
  1.9327  2.0092

 Free energy of the ion-electron system (eV)
  ---------------------------------------------------
  alpha Z        PSCENC =         0.62641250
  Ewald energy   TEWEN  =       911.52845137
  -Hartree energ DENC   =     -1422.22787317
  -exchange      EXHF   =         0.00000000
  -V(xc)+E(xc)   XCENC  =        71.48771890
  PAW double counting   =       284.57439176     -290.00821669
  entropy T*S    EENTRO =        -0.00000000
  eigenvalues    EBANDS =      -275.70099998
  atomic energy  EATOM  =       663.51739852
  Solvation  Ediel_sol  =         0.00000000
  ---------------------------------------------------
  free energy    TOTEN  =       -56.20271679 eV

  energy without entropy =      -56.20271679  energy(sigma->0) =      -56.20271679


--------------------------------------------------------------------------------------------------------




--------------------------------------- Iteration      1(   8)  ---------------------------------------


    POTLOK:  cpu time      0.3103: real time      0.3120
    SETDIJ:  cpu time      0.1944: real time      0.1953
     EDDAV:  cpu time      0.4463: real time      0.4487
       DOS:  cpu time      0.0001: real time      0.0001
    CHARGE:  cpu time      0.1949: real time      0.1957
    MIXING:  cpu time      0.0167: real time      0.0168
    --------------------------------------------
      LOOP:  cpu time      1.1626: real time      1.1686

 eigenvalue-minimisations  :    72
 total energy-change (2. order) : 0.1648318E+00  (-0.4388819E-01)
 number of electron      22.0000000 magnetization 
 augmentation part        0.4896071 magnetization 

 Broyden mixing:
  rms(total) = 0.54100E-01    rms(broyden)= 0.54094E-01
  rms(prec ) = 0.85596E-01
  weight for this iteration     100.00

 eigenvalues of (default mixing * dielectric matrix)
  average eigenvalue GAMMA=   1.6174
  2.3509  1.0445  1.4567

 Free energy of the ion-electron system (eV)
  ---------------------------------------------------
  alpha Z        PSCENC =         0.62641250
  Ewald energy   TEWEN  =       911.52845137
  -Hartree energ DENC   =     -1428.98346945
  -exchange      EXHF   =         0.00000000
  -V(xc)+E(xc)   XCENC  =        72.06999886
  PAW double counting   =       289.98073900     -295.24816746
  entropy T*S    EENTRO =        -0.00000000
  eigenvalues    EBANDS =      -269.52924828
  atomic energy  EATOM  =       663.51739852
  Solvation  Ediel_sol  =         0.00000000
  ---------------------------------------------------
  free energy    TOTEN  =       -56.03788494 eV

  energy without entropy =      -56.03788494  energy(sigma->0) =      -56.03788494


--------------------------------------------------------------------------------------------------------




--------------------------------------- Iteration      1(   9)  ---------------------------------------


    POTLOK:  cpu time      0.3116: real time      0.3134
    SETDIJ:  cpu time      0.1941: real time      0.1949
     EDDAV:  cpu time      0.4838: real time      0.4866
       DOS:  cpu time      0.0001: real time      0.0001
    CHARGE:  cpu time      0.1919: real time      0.1927
    MIXING:  cpu time      0.0152: real time      0.0153
    --------------------------------------------
      LOOP:  cpu time      1.1968: real time      1.2030

 eigenvalue-minimisations  :    80
 total energy-change (2. order) : 0.2983994E-01  (-0.8843609E-02)
 number of electron      22.0000000 magnetization 
 augmentation part        0.4856028 magnetization 

 Broyden mixing:
  rms(total) = 0.22390E-01    rms(broyden)= 0.22385E-01
  rms(prec ) = 0.46154E-01
  weight for this iteration     100.00

 eigenvalues of (default mixing * dielectric matrix)
  average eigenvalue GAMMA=   1.4758
  2.2839  1.5951  1.0121  1.0121

 Free energy of the ion-electron system (eV)
  ---------------------------------------------------
  alpha Z        PSCENC =         0.62641250
  Ewald energy   TEWEN  =       911.52845137
  -Hartree energ DENC   =     -1434.04921740
  -exchange      EXHF   =         0.00000000
  -V(xc)+E(xc)   XCENC  =        72.27817449
  PAW double counting   =       295.08249682     -300.38607142
  entropy T*S    EENTRO =        -0.00000000
  eigenvalues    EBANDS =      -264.60568988
  atomic energy  EATOM  =       663.51739852
  Solvation  Ediel_sol  =         0.00000000
  ---------------------------------------------------
  free energy    TOTEN  =       -56.00804500 eV

  energy without entropy =      -56.00804500  energy(sigma->0) =      -56.00804500


--------------------------------------------------------------------------------------------------------




--------------------------------------- Iteration      1(  10)  ---------------------------------------


    POTLOK:  cpu time      0.3135: real time      0.3152
    SETDIJ:  cpu time      0.1926: real time      0.1934
     EDDAV:  cpu time      0.4080: real time      0.4102
       DOS:  cpu time      0.0001: real time      0.0001
    CHARGE:  cpu time      0.1930: real time      0.1938
    MIXING:  cpu time      0.0156: real time      0.0157
    --------------------------------------------
      LOOP:  cpu time      1.1228: real time      1.1285

 eigenvalue-minimisations  :    64
 total energy-change (2. order) : 0.6045236E-02  (-0.1711419E-02)
 number of electron      22.0000000 magnetization 
 augmentation part        0.4840496 magnetization 

 Broyden mixing:
  rms(total) = 0.14239E-01    rms(broyden)= 0.14235E-01
  rms(prec ) = 0.31080E-01
  weight for this iteration     100.00

 eigenvalues of (default mixing * dielectric matrix)
  average eigenvalue GAMMA=   1.6328
  2.4224  2.4224  1.1809  1.1809  0.9574

 Free energy of the ion-electron system (eV)
  ---------------------------------------------------
  alpha Z        PSCENC =         0.62641250
  Ewald energy   TEWEN  =       911.52845137
  -Hartree energ DENC   =     -1437.25860407
  -exchange      EXHF   =         0.00000000
  -V(xc)+E(xc)   XCENC  =        72.34880976
  PAW double counting   =       294.30408057     -299.60763452
  entropy T*S    EENTRO =        -0.00000000
  eigenvalues    EBANDS =      -261.46091389
  atomic energy  EATOM  =       663.51739852
  Solvation  Ediel_sol  =         0.00000000
  ---------------------------------------------------
  free energy    TOTEN  =       -56.00199976 eV

  energy without entropy =      -56.00199976  energy(sigma->0) =      -56.00199976


--------------------------------------------------------------------------------------------------------




--------------------------------------- Iteration      1(  11)  ---------------------------------------


    POTLOK:  cpu time      0.3136: real time      0.3153
    SETDIJ:  cpu time      0.1921: real time      0.1929
     EDDAV:  cpu time      0.4477: real time      0.4502
       DOS:  cpu time      0.0001: real time      0.0001
    CHARGE:  cpu time      0.1935: real time      0.1943
    MIXING:  cpu time      0.0164: real time      0.0165
    --------------------------------------------
      LOOP:  cpu time      1.1635: real time      1.1693

 eigenvalue-minimisations  :    72
 total energy-change (2. order) : 0.7857244E-02  (-0.4268435E-03)
 number of electron      22.0000000 magnetization 
 augmentation part        0.4836863 magnetization 

 Broyden mixing:
  rms(total) = 0.73423E-02    rms(broyden)= 0.73420E-02
  rms(prec ) = 0.18049E-01
  weight for this iteration     100.00

 eigenvalues of (default mixing * dielectric matrix)
  average eigenvalue GAMMA=   1.7128
  3.2755  2.4217  1.4780  1.1070  1.1070  0.8876

 Free energy of the ion-electron system (eV)
  ---------------------------------------------------
  alpha Z        PSCENC =         0.62641250
  Ewald energy   TEWEN  =       911.52845137
  -Hartree energ DENC   =     -1440.39728242
  -exchange      EXHF   =         0.00000000
  -V(xc)+E(xc)   XCENC  =        72.42895768
  PAW double counting   =       293.16716320     -298.45844580
  entropy T*S    EENTRO =        -0.00000000
  eigenvalues    EBANDS =      -258.40679758
  atomic energy  EATOM  =       663.51739852
  Solvation  Ediel_sol  =         0.00000000
  ---------------------------------------------------
  free energy    TOTEN  =       -55.99414252 eV

  energy without entropy =      -55.99414252  energy(sigma->0) =      -55.99414252


--------------------------------------------------------------------------------------------------------




--------------------------------------- Iteration      1(  12)  ---------------------------------------


    POTLOK:  cpu time      0.3099: real time      0.3117
    SETDIJ:  cpu time      0.1944: real time      0.1952
     EDDAV:  cpu time      0.4624: real time      0.4649
       DOS:  cpu time      0.0001: real time      0.0001
    CHARGE:  cpu time      0.1979: real time      0.1987
    MIXING:  cpu time      0.0169: real time      0.0170
    --------------------------------------------
      LOOP:  cpu time      1.1816: real time      1.1876

 eigenvalue-minimisations  :    72
 total energy-change (2. order) : 0.1249949E-02  (-0.3188151E-03)
 number of electron      22.0000000 magnetization 
 augmentation part        0.4831175 magnetization 

 Broyden mixing:
  rms(total) = 0.59070E-02    rms(broyden)= 0.59066E-02
  rms(prec ) = 0.12078E-01
  weight for this iteration     100.00

 eigenvalues of (default mixing * dielectric matrix)
  average eigenvalue GAMMA=   1.8979
  4.3059  2.4727  2.1115  1.4000  0.9284  1.0334  1.0334

 Free energy of the ion-electron system (eV)
  ---------------------------------------------------
  alpha Z        PSCENC =         0.62641250
  Ewald energy   TEWEN  =       911.52845137
  -Hartree energ DENC   =     -1442.73943326
  -exchange      EXHF   =         0.00000000
  -V(xc)+E(xc)   XCENC  =        72.48351475
  PAW double counting   =       293.11357237     -298.40650359
  entropy T*S    EENTRO =        -0.00000000
  eigenvalues    EBANDS =      -256.11630522
  atomic energy  EATOM  =       663.51739852
  Solvation  Ediel_sol  =         0.00000000
  ---------------------------------------------------
  free energy    TOTEN  =       -55.99289257 eV

  energy without entropy =      -55.99289257  energy(sigma->0) =      -55.99289257


--------------------------------------------------------------------------------------------------------




--------------------------------------- Iteration      1(  13)  ---------------------------------------


    POTLOK:  cpu time      0.3147: real time      0.3165
    SETDIJ:  cpu time      0.1904: real time      0.1912
     EDDAV:  cpu time      0.4141: real time      0.4165
       DOS:  cpu time      0.0001: real time      0.0001
    CHARGE:  cpu time      0.1967: real time      0.1975
    MIXING:  cpu time      0.0147: real time      0.0147
    --------------------------------------------
      LOOP:  cpu time      1.1308: real time      1.1366

 eigenvalue-minimisations  :    64
 total energy-change (2. order) :-0.9889644E-02  (-0.1951156E-03)
 number of electron      22.0000000 magnetization 
 augmentation part        0.4832667 magnetization 

 Broyden mixing:
  rms(total) = 0.32158E-02    rms(broyden)= 0.32156E-02
  rms(prec ) = 0.64449E-02
  weight for this iteration     100.00

 eigenvalues of (default mixing * dielectric matrix)
  average eigenvalue GAMMA=   1.9445
  4.9157  2.6589  2.2604  1.3524  1.3524  0.9294  1.0434  1.0434

 Free energy of the ion-electron system (eV)
  ---------------------------------------------------
  alpha Z        PSCENC =         0.62641250
  Ewald energy   TEWEN  =       911.52845137
  -Hartree energ DENC   =     -1443.47966129
  -exchange      EXHF   =         0.00000000
  -V(xc)+E(xc)   XCENC  =        72.47640484
  PAW double counting   =       292.76127040     -298.05273525
  entropy T*S    EENTRO =        -0.00000000
  eigenvalues    EBANDS =      -255.38032331
  atomic energy  EATOM  =       663.51739852
  Solvation  Ediel_sol  =         0.00000000
  ---------------------------------------------------
  free energy    TOTEN  =       -56.00278221 eV

  energy without entropy =      -56.00278221  energy(sigma->0) =      -56.00278221


--------------------------------------------------------------------------------------------------------




--------------------------------------- Iteration      1(  14)  ---------------------------------------


    POTLOK:  cpu time      0.3113: real time      0.3130
    SETDIJ:  cpu time      0.1906: real time      0.1914
     EDDAV:  cpu time      0.4565: real time      0.4590
       DOS:  cpu time      0.0001: real time      0.0001
    CHARGE:  cpu time      0.1949: real time      0.1957
    MIXING:  cpu time      0.0161: real time      0.0161
    --------------------------------------------
      LOOP:  cpu time      1.1694: real time      1.1754

 eigenvalue-minimisations  :    72
 total energy-change (2. order) :-0.5531565E-02  (-0.7817908E-04)
 number of electron      22.0000000 magnetization 
 augmentation part        0.4831121 magnetization 

 Broyden mixing:
  rms(total) = 0.18836E-02    rms(broyden)= 0.18835E-02
  rms(prec ) = 0.38986E-02
  weight for this iteration     100.00

 eigenvalues of (default mixing * dielectric matrix)
  average eigenvalue GAMMA=   2.1388
  6.1468  3.4290  2.3607  1.9465  1.2017  1.2017  1.0064  0.9782  0.9782

 Free energy of the ion-electron system (eV)
  ---------------------------------------------------
  alpha Z        PSCENC =         0.62641250
  Ewald energy   TEWEN  =       911.52845137
  -Hartree energ DENC   =     -1443.81466061
  -exchange      EXHF   =         0.00000000
  -V(xc)+E(xc)   XCENC  =        72.47248796
  PAW double counting   =       292.91232049     -298.20516857
  entropy T*S    EENTRO =        -0.00000000
  eigenvalues    EBANDS =      -255.04555544
  atomic energy  EATOM  =       663.51739852
  Solvation  Ediel_sol  =         0.00000000
  ---------------------------------------------------
  free energy    TOTEN  =       -56.00831378 eV

  energy without entropy =      -56.00831378  energy(sigma->0) =      -56.00831378


--------------------------------------------------------------------------------------------------------




--------------------------------------- Iteration      1(  15)  ---------------------------------------


    POTLOK:  cpu time      0.3084: real time      0.3101
    SETDIJ:  cpu time      0.1920: real time      0.1928
     EDDAV:  cpu time      0.3711: real time      0.3731
       DOS:  cpu time      0.0001: real time      0.0001
    CHARGE:  cpu time      0.1974: real time      0.1982
    MIXING:  cpu time      0.0143: real time      0.0143
    --------------------------------------------
      LOOP:  cpu time      1.0833: real time      1.0886

 eigenvalue-minimisations  :    56
 total energy-change (2. order) :-0.4540448E-02  (-0.7213556E-04)
 number of electron      22.0000000 magnetization 
 augmentation part        0.4831486 magnetization 

 Broyden mixing:
  rms(total) = 0.11918E-02    rms(broyden)= 0.11918E-02
  rms(prec ) = 0.20269E-02
  weight for this iteration     100.00

 eigenvalues of (default mixing * dielectric matrix)
  average eigenvalue GAMMA=   2.1935
  6.6902  3.9581  2.4128  2.0927  1.4891  1.2700  1.0292  1.0292  0.9818  0.9818

 Free energy of the ion-electron system (eV)
  ---------------------------------------------------
  alpha Z        PSCENC =         0.62641250
  Ewald energy   TEWEN  =       911.52845137
  -Hartree energ DENC   =     -1443.81371772
  -exchange      EXHF   =         0.00000000
  -V(xc)+E(xc)   XCENC  =        72.45971777
  PAW double counting   =       292.88617122     -298.17809128
  entropy T*S    EENTRO =        -0.00000000
  eigenvalues    EBANDS =      -255.03919660
  atomic energy  EATOM  =       663.51739852
  Solvation  Ediel_sol  =         0.00000000
  ---------------------------------------------------
  free energy    TOTEN  =       -56.01285423 eV

  energy without entropy =      -56.01285423  energy(sigma->0) =      -56.01285423


--------------------------------------------------------------------------------------------------------




--------------------------------------- Iteration      1(  16)  ---------------------------------------


    POTLOK:  cpu time      0.3073: real time      0.3090
    SETDIJ:  cpu time      0.1962: real time      0.1970
     EDDAV:  cpu time      0.4948: real time      0.4976
       DOS:  cpu time      0.0001: real time      0.0001
    CHARGE:  cpu time      0.1967: real time      0.1975
    MIXING:  cpu time      0.0170: real time      0.0171
    --------------------------------------------
      LOOP:  cpu time      1.2120: real time      1.2183

 eigenvalue-minimisations  :    80
 total energy-change (2. order) :-0.1252096E-02  (-0.1438028E-04)
 number of electron      22.0000000 magnetization 
 augmentation part        0.4830473 magnetization 

 Broyden mixing:
  rms(total) = 0.56788E-03    rms(broyden)= 0.56774E-03
  rms(prec ) = 0.10848E-02
  weight for this iteration     100.00

 eigenvalues of (default mixing * dielectric matrix)
  average eigenvalue GAMMA=   2.2830
  7.6649  4.4405  2.5028  2.5028  1.7403  1.2258  1.0053  1.0053  1.0821  1.0821
  0.8614

 Free energy of the ion-electron system (eV)
  ---------------------------------------------------
  alpha Z        PSCENC =         0.62641250
  Ewald energy   TEWEN  =       911.52845137
  -Hartree energ DENC   =     -1443.94930613
  -exchange      EXHF   =         0.00000000
  -V(xc)+E(xc)   XCENC  =        72.46211539
  PAW double counting   =       292.94382445     -298.23609702
  entropy T*S    EENTRO =        -0.00000000
  eigenvalues    EBANDS =      -254.90690540
  atomic energy  EATOM  =       663.51739852
  Solvation  Ediel_sol  =         0.00000000
  ---------------------------------------------------
  free energy    TOTEN  =       -56.01410632 eV

  energy without entropy =      -56.01410632  energy(sigma->0) =      -56.01410632


--------------------------------------------------------------------------------------------------------




--------------------------------------- Iteration      1(  17)  ---------------------------------------


    POTLOK:  cpu time      0.3028: real time      0.3045
    SETDIJ:  cpu time      0.1911: real time      0.1919
     EDDAV:  cpu time      0.3749: real time      0.3770
       DOS:  cpu time      0.0001: real time      0.0001
    CHARGE:  cpu time      0.1956: real time      0.1965
    MIXING:  cpu time      0.0174: real time      0.0175
    --------------------------------------------
      LOOP:  cpu time      1.0819: real time      1.0874

 eigenvalue-minimisations  :    56
 total energy-change (2. order) :-0.7193975E-03  (-0.6089740E-05)
 number of electron      22.0000000 magnetization 
 augmentation part        0.4830411 magnetization 

 Broyden mixing:
  rms(total) = 0.46048E-03    rms(broyden)= 0.46044E-03
  rms(prec ) = 0.69126E-03
  weight for this iteration     100.00

 eigenvalues of (default mixing * dielectric matrix)
  average eigenvalue GAMMA=   2.3075
  7.9813  4.8562  2.7177  2.3562  1.9588  1.5604  1.3133  1.0476  1.0476  0.9043
  0.9735  0.9735

 Free energy of the ion-electron system (eV)
  ---------------------------------------------------
  alpha Z        PSCENC =         0.62641250
  Ewald energy   TEWEN  =       911.52845137
  -Hartree energ DENC   =     -1443.92409009
  -exchange      EXHF   =         0.00000000
  -V(xc)+E(xc)   XCENC  =        72.45979441
  PAW double counting   =       292.91356430     -298.20582718
  entropy T*S    EENTRO =        -0.00000000
  eigenvalues    EBANDS =      -254.93052955
  atomic energy  EATOM  =       663.51739852
  Solvation  Ediel_sol  =         0.00000000
  ---------------------------------------------------
  free energy    TOTEN  =       -56.01482572 eV

  energy without entropy =      -56.01482572  energy(sigma->0) =      -56.01482572


--------------------------------------------------------------------------------------------------------




--------------------------------------- Iteration      1(  18)  ---------------------------------------


    POTLOK:  cpu time      0.3009: real time      0.3027
    SETDIJ:  cpu time      0.1896: real time      0.1904
     EDDAV:  cpu time      0.4520: real time      0.4545
       DOS:  cpu time      0.0001: real time      0.0001
    CHARGE:  cpu time      0.1948: real time      0.1957
    MIXING:  cpu time      0.0182: real time      0.0183
    --------------------------------------------
      LOOP:  cpu time      1.1557: real time      1.1616

 eigenvalue-minimisations  :    72
 total energy-change (2. order) :-0.2384657E-03  (-0.1309996E-05)
 number of electron      22.0000000 magnetization 
 augmentation part        0.4830588 magnetization 

 Broyden mixing:
  rms(total) = 0.17103E-03    rms(broyden)= 0.17090E-03
  rms(prec ) = 0.32747E-03
  weight for this iteration     100.00

 eigenvalues of (default mixing * dielectric matrix)
  average eigenvalue GAMMA=   2.3152
  8.4169  5.1593  3.0563  2.4364  2.1266  1.6385  1.3426  1.0578  1.0578  1.0085
  1.0085  0.8941  0.8941

 Free energy of the ion-electron system (eV)
  ---------------------------------------------------
  alpha Z        PSCENC =         0.62641250
  Ewald energy   TEWEN  =       911.52845137
  -Hartree energ DENC   =     -1443.91983239
  -exchange      EXHF   =         0.00000000
  -V(xc)+E(xc)   XCENC  =        72.45959076
  PAW double counting   =       292.90305501     -298.19508596
  entropy T*S    EENTRO =        -0.00000000
  eigenvalues    EBANDS =      -254.93505399
  atomic energy  EATOM  =       663.51739852
  Solvation  Ediel_sol  =         0.00000000
  ---------------------------------------------------
  free energy    TOTEN  =       -56.01506419 eV

  energy without entropy =      -56.01506419  energy(sigma->0) =      -56.01506419


--------------------------------------------------------------------------------------------------------




--------------------------------------- Iteration      1(  19)  ---------------------------------------


    POTLOK:  cpu time      0.3015: real time      0.3032
    SETDIJ:  cpu time      0.1908: real time      0.1916
     EDDAV:  cpu time      0.3727: real time      0.3747
       DOS:  cpu time      0.0001: real time      0.0001
    CHARGE:  cpu time      0.1947: real time      0.1955
    MIXING:  cpu time      0.0181: real time      0.0182
    --------------------------------------------
      LOOP:  cpu time      1.0779: real time      1.0833

 eigenvalue-minimisations  :    56
 total energy-change (2. order) :-0.9491581E-04  (-0.2700369E-06)
 number of electron      22.0000000 magnetization 
 augmentation part        0.4830554 magnetization 

 Broyden mixing:
  rms(total) = 0.11129E-03    rms(broyden)= 0.11119E-03
  rms(prec ) = 0.20776E-03
  weight for this iteration     100.00

 eigenvalues of (default mixing * dielectric matrix)
  average eigenvalue GAMMA=   2.3529
  8.6426  5.3732  3.4566  2.3631  2.3631  1.8601  1.5916  1.3066  1.0530  1.0530
  0.9873  0.9873  0.9514  0.9514

 Free energy of the ion-electron system (eV)
  ---------------------------------------------------
  alpha Z        PSCENC =         0.62641250
  Ewald energy   TEWEN  =       911.52845137
  -Hartree energ DENC   =     -1443.92825127
  -exchange      EXHF   =         0.00000000
  -V(xc)+E(xc)   XCENC  =        72.45953666
  PAW double counting   =       292.89808226     -298.19015143
  entropy T*S    EENTRO =        -0.00000000
  eigenvalues    EBANDS =      -254.92663772
  atomic energy  EATOM  =       663.51739852
  Solvation  Ediel_sol  =         0.00000000
  ---------------------------------------------------
  free energy    TOTEN  =       -56.01515910 eV

  energy without entropy =      -56.01515910  energy(sigma->0) =      -56.01515910


--------------------------------------------------------------------------------------------------------




--------------------------------------- Iteration      1(  20)  ---------------------------------------


    POTLOK:  cpu time      0.3071: real time      0.3088
    SETDIJ:  cpu time      0.1899: real time      0.1907
     EDDAV:  cpu time      0.4115: real time      0.4138
       DOS:  cpu time      0.0001: real time      0.0001
    CHARGE:  cpu time      0.1946: real time      0.1954
    MIXING:  cpu time      0.0183: real time      0.0183
    --------------------------------------------
      LOOP:  cpu time      1.1214: real time      1.1270

 eigenvalue-minimisations  :    64
 total energy-change (2. order) :-0.6303719E-04  (-0.1620461E-06)
 number of electron      22.0000000 magnetization 
 augmentation part        0.4830533 magnetization 

 Broyden mixing:
  rms(total) = 0.51867E-04    rms(broyden)= 0.51684E-04
  rms(prec ) = 0.97666E-04
  weight for this iteration     100.00

 eigenvalues of (default mixing * dielectric matrix)
  average eigenvalue GAMMA=   2.3641
  8.8688  5.7376  3.9630  2.6771  2.4194  1.8079  1.5356  1.3156  1.1013  1.1013
  1.0136  1.0136  0.9337  0.9863  0.9863

 Free energy of the ion-electron system (eV)
  ---------------------------------------------------
  alpha Z        PSCENC =         0.62641250
  Ewald energy   TEWEN  =       911.52845137
  -Hartree energ DENC   =     -1443.93551691
  -exchange      EXHF   =         0.00000000
  -V(xc)+E(xc)   XCENC  =        72.45956447
  PAW double counting   =       292.90212879     -298.19424708
  entropy T*S    EENTRO =        -0.00000000
  eigenvalues    EBANDS =      -254.91941381
  atomic energy  EATOM  =       663.51739852
  Solvation  Ediel_sol  =         0.00000000
  ---------------------------------------------------
  free energy    TOTEN  =       -56.01522214 eV

  energy without entropy =      -56.01522214  energy(sigma->0) =      -56.01522214


--------------------------------------------------------------------------------------------------------




--------------------------------------- Iteration      1(  21)  ---------------------------------------


    POTLOK:  cpu time      0.3103: real time      0.3120
    SETDIJ:  cpu time      0.1921: real time      0.1930
     EDDAV:  cpu time      0.3728: real time      0.3749
       DOS:  cpu time      0.0001: real time      0.0001
    CHARGE:  cpu time      0.1964: real time      0.1972
    MIXING:  cpu time      0.0179: real time      0.0180
    --------------------------------------------
      LOOP:  cpu time      1.0897: real time      1.0951

 eigenvalue-minimisations  :    56
 total energy-change (2. order) :-0.1432776E-04  (-0.1695857E-07)
 number of electron      22.0000000 magnetization 
 augmentation part        0.4830539 magnetization 

 Broyden mixing:
  rms(total) = 0.37630E-04    rms(broyden)= 0.37385E-04
  rms(prec ) = 0.63834E-04
  weight for this iteration     100.00

 eigenvalues of (default mixing * dielectric matrix)
  average eigenvalue GAMMA=   2.4096
  8.9860  5.9753  4.3350  2.8667  2.3815  2.2347  1.6315  1.6315  1.2842  1.2842
  1.0658  1.0658  0.9910  0.9910  0.9144  0.9144

 Free energy of the ion-electron system (eV)
  ---------------------------------------------------
  alpha Z        PSCENC =         0.62641250
  Ewald energy   TEWEN  =       911.52845137
  -Hartree energ DENC   =     -1443.93555187
  -exchange      EXHF   =         0.00000000
  -V(xc)+E(xc)   XCENC  =        72.45946580
  PAW double counting   =       292.90134797     -298.19347855
  entropy T*S    EENTRO =        -0.00000000
  eigenvalues    EBANDS =      -254.91928220
  atomic energy  EATOM  =       663.51739852
  Solvation  Ediel_sol  =         0.00000000
  ---------------------------------------------------
  free energy    TOTEN  =       -56.01523647 eV

  energy without entropy =      -56.01523647  energy(sigma->0) =      -56.01523647


--------------------------------------------------------------------------------------------------------




--------------------------------------- Iteration      1(  22)  ---------------------------------------


    POTLOK:  cpu time      0.3145: real time      0.3162
    SETDIJ:  cpu time      0.1926: real time      0.1935
     EDDAV:  cpu time      0.4123: real time      0.4146
       DOS:  cpu time      0.0001: real time      0.0001
    CHARGE:  cpu time      0.1948: real time      0.1956
    MIXING:  cpu time      0.0187: real time      0.0187
    --------------------------------------------
      LOOP:  cpu time      1.1330: real time      1.1388

 eigenvalue-minimisations  :    64
 total energy-change (2. order) :-0.1129830E-04  (-0.1759457E-07)
 number of electron      22.0000000 magnetization 
 augmentation part        0.4830537 magnetization 

 Broyden mixing:
  rms(total) = 0.18412E-04    rms(broyden)= 0.17907E-04
  rms(prec ) = 0.29424E-04
  weight for this iteration     100.00

 eigenvalues of (default mixing * dielectric matrix)
  average eigenvalue GAMMA=   2.4189
  9.0458  6.4030  4.7184  3.2539  2.4985  2.3716  1.8250  1.4094  1.2802  1.2802
  1.0586  1.0586  1.0308  1.0308  1.0283  0.9138  0.9138

 Free energy of the ion-electron system (eV)
  ---------------------------------------------------
  alpha Z        PSCENC =         0.62641250
  Ewald energy   TEWEN  =       911.52845137
  -Hartree energ DENC   =     -1443.93655509
  -exchange      EXHF   =         0.00000000
  -V(xc)+E(xc)   XCENC  =        72.45945133
  PAW double counting   =       292.90221159     -298.19433583
  entropy T*S    EENTRO =        -0.00000000
  eigenvalues    EBANDS =      -254.91828215
  atomic energy  EATOM  =       663.51739852
  Solvation  Ediel_sol  =         0.00000000
  ---------------------------------------------------
  free energy    TOTEN  =       -56.01524776 eV

  energy without entropy =      -56.01524776  energy(sigma->0) =      -56.01524776


--------------------------------------------------------------------------------------------------------




--------------------------------------- Iteration      1(  23)  ---------------------------------------


    POTLOK:  cpu time      0.3126: real time      0.3143
    SETDIJ:  cpu time      0.1930: real time      0.1939
     EDDAV:  cpu time      0.3735: real time      0.3755
       DOS:  cpu time      0.0001: real time      0.0001
    CHARGE:  cpu time      0.1953: real time      0.1961
    MIXING:  cpu time      0.0201: real time      0.0202
    --------------------------------------------
      LOOP:  cpu time      1.0946: real time      1.1002

 eigenvalue-minimisations  :    56
 total energy-change (2. order) :-0.1935717E-05  (-0.3143620E-08)
 number of electron      22.0000000 magnetization 
 augmentation part        0.4830534 magnetization 

 Broyden mixing:
  rms(total) = 0.13738E-04    rms(broyden)= 0.13056E-04
  rms(prec ) = 0.20001E-04
  weight for this iteration     100.00

 eigenvalues of (default mixing * dielectric matrix)
  average eigenvalue GAMMA=   2.4565
  9.0896  6.6753  4.9486  3.5086  2.5590  2.5590  2.0914  1.6740  1.3888  1.3888
  1.3859  1.0675  1.0675  1.0022  1.0022  0.9451  0.9319  0.9319

 Free energy of the ion-electron system (eV)
  ---------------------------------------------------
  alpha Z        PSCENC =         0.62641250
  Ewald energy   TEWEN  =       911.52845137
  -Hartree energ DENC   =     -1443.93740620
  -exchange      EXHF   =         0.00000000
  -V(xc)+E(xc)   XCENC  =        72.45947167
  PAW double counting   =       292.90245046     -298.19457436
  entropy T*S    EENTRO =        -0.00000000
  eigenvalues    EBANDS =      -254.91745366
  atomic energy  EATOM  =       663.51739852
  Solvation  Ediel_sol  =         0.00000000
  ---------------------------------------------------
  free energy    TOTEN  =       -56.01524970 eV

  energy without entropy =      -56.01524970  energy(sigma->0) =      -56.01524970


--------------------------------------------------------------------------------------------------------




--------------------------------------- Iteration      1(  24)  ---------------------------------------


    POTLOK:  cpu time      0.3165: real time      0.3182
    SETDIJ:  cpu time      0.1912: real time      0.1920
     EDDAV:  cpu time      0.3694: real time      0.3714
       DOS:  cpu time      0.0001: real time      0.0001
    CHARGE:  cpu time      0.1949: real time      0.1957
    MIXING:  cpu time      0.0204: real time      0.0204
    --------------------------------------------
      LOOP:  cpu time      1.0924: real time      1.0979

 eigenvalue-minimisations  :    56
 total energy-change (2. order) :-0.1773301E-05  (-0.4147269E-08)
 number of electron      22.0000000 magnetization 
 augmentation part        0.4830532 magnetization 

 Broyden mixing:
  rms(total) = 0.87897E-05    rms(broyden)= 0.76812E-05
  rms(prec ) = 0.11631E-04
  weight for this iteration     100.00
  WARNING: grid for Broyden might be to small

 eigenvalues of (default mixing * dielectric matrix)
  average eigenvalue GAMMA=   2.4244
  9.1286  6.8485  5.1351  3.6966  2.7651  2.4496  2.0029  2.0029  1.3066  1.3066
  1.3803  1.0611  1.0611  1.0390  1.0390  0.9232  0.9883  0.9647  0.9647

 Free energy of the ion-electron system (eV)
  ---------------------------------------------------
  alpha Z        PSCENC =         0.62641250
  Ewald energy   TEWEN  =       911.52845137
  -Hartree energ DENC   =     -1443.93791333
  -exchange      EXHF   =         0.00000000
  -V(xc)+E(xc)   XCENC  =        72.45948523
  PAW double counting   =       292.90205278     -298.19417452
  entropy T*S    EENTRO =        -0.00000000
  eigenvalues    EBANDS =      -254.91696402
  atomic energy  EATOM  =       663.51739852
  Solvation  Ediel_sol  =         0.00000000
  ---------------------------------------------------
  free energy    TOTEN  =       -56.01525147 eV

  energy without entropy =      -56.01525147  energy(sigma->0) =      -56.01525147


--------------------------------------------------------------------------------------------------------




--------------------------------------- Iteration      1(  25)  ---------------------------------------


    POTLOK:  cpu time      0.3174: real time      0.3191
    SETDIJ:  cpu time      0.1897: real time      0.1905
     EDDAV:  cpu time      0.4505: real time      0.4530
       DOS:  cpu time      0.0001: real time      0.0001
    --------------------------------------------
      LOOP:  cpu time      0.9576: real time      0.9626

 eigenvalue-minimisations  :    72
 total energy-change (2. order) :-0.3457236E-06  (-0.5270646E-09)
 number of electron      22.0000000 magnetization 
 augmentation part        0.4830532 magnetization 

 Free energy of the ion-electron system (eV)
  ---------------------------------------------------
  alpha Z        PSCENC =         0.62641250
  Ewald energy   TEWEN  =       911.52845137
  -Hartree energ DENC   =     -1443.93790746
  -exchange      EXHF   =         0.00000000
  -V(xc)+E(xc)   XCENC  =        72.45948448
  PAW double counting   =       292.90197908     -298.19409814
  entropy T*S    EENTRO =        -0.00000000
  eigenvalues    EBANDS =      -254.91697218
  atomic energy  EATOM  =       663.51739852
  Solvation  Ediel_sol  =         0.00000000
  ---------------------------------------------------
  free energy    TOTEN  =       -56.01525182 eV

  energy without entropy =      -56.01525182  energy(sigma->0) =      -56.01525182


--------------------------------------------------------------------------------------------------------




 average (electrostatic) potential at core
  the test charge radii are     0.6991  0.5201
  (the norm of the test charge is              1.0000)
       1 -58.6201       2 -58.9336       3 -58.7986       4 -58.5431       5 -41.5826
       6 -41.6423       7 -41.3903       8 -42.1660       9 -41.5209      10 -41.8103
 
 
 
 E-fermi :  -5.2849     XC(G=0):  -0.4411     alpha+bet : -0.1681

 Fermi energy:        -5.2849304223

 k-point     1 :       0.0000    0.0000    0.0000
  band No.  band energies     occupation 
      1     -20.2904      2.00000
      2     -17.3224      2.00000
      3     -15.0674      2.00000
      4     -12.5887      2.00000
      5     -11.9289      2.00000
      6     -10.4068      2.00000
      7      -9.8731      2.00000
      8      -8.7172      2.00000
      9      -8.4136      2.00000
     10      -7.2681      2.00000
     11      -5.5818      2.00000
     12      -2.0371      0.00000
     13      -0.4260      0.00000
     14      -0.0099      0.00000
     15       0.0935      0.00000
     16       0.2286      0.00000
     17       0.4128      0.00000
     18       0.4187      0.00000
     19       0.5600      0.00000
     20       0.6701      0.00000
     21       0.8699      0.00000
     22       0.9219      0.00000
     23       1.0024      0.00000
     24       1.0881      0.00000


--------------------------------------------------------------------------------------------------------


 soft charge-density along one line, spin component           1
         0         1         2         3         4         5         6         7         8         9
 total charge-density along one line
 
 pseudopotential strength for first ion, spin component:           1
 10.249   0.020  -0.001  -0.001  -0.000  -0.001  -0.001   0.001
  0.020  -0.001   0.000   0.000  -0.000  -0.000  -0.000   0.000
 -0.001   0.000  -4.366  -0.003   0.008  -0.012  -0.001   0.002
 -0.001   0.000  -0.003  -4.371  -0.000  -0.001  -0.014  -0.000
 -0.000  -0.000   0.008  -0.000  -4.366   0.002  -0.000  -0.013
 -0.001  -0.000  -0.012  -0.001   0.002  -0.773  -0.000   0.000
 -0.001  -0.000  -0.001  -0.014  -0.000  -0.000  -0.773  -0.000
  0.001   0.000   0.002  -0.000  -0.013   0.000  -0.000  -0.773
 total augmentation occupancy for first ion, spin component:           1
  1.479  -0.978   0.024   0.021  -0.008   0.020   0.008  -0.010
 -0.978   0.748  -0.090  -0.026   0.053  -0.036  -0.017   0.023
  0.024  -0.090   1.009   0.058  -0.130   0.138   0.020  -0.059
  0.021  -0.026   0.058   1.141   0.006   0.020   0.180   0.005
 -0.008   0.053  -0.130   0.006   1.048  -0.059   0.005   0.145
  0.020  -0.036   0.138   0.020  -0.059   0.022   0.005  -0.014
  0.008  -0.017   0.020   0.180   0.005   0.005   0.030   0.000
 -0.010   0.023  -0.059   0.005   0.145  -0.014   0.000   0.023


------------------------ aborting loop because EDIFF is reached ----------------------------------------


    CHARGE:  cpu time      0.1935: real time      0.1943
    FORLOC:  cpu time      0.0362: real time      0.0363
    FORNL :  cpu time      1.0686: real time      1.0737
    STRESS:  cpu time      3.3765: real time      3.3923
    FORHAR:  cpu time      0.1112: real time      0.1118
    MIXING:  cpu time      0.0122: real time      0.0122
    OFIELD:  cpu time      0.0001: real time      0.0001

  FORCE on cell =-STRESS in cart. coord.  units (eV):
  Direction    XX          YY          ZZ          XY          YZ          ZX
  --------------------------------------------------------------------------------------
  Alpha Z     0.62641     0.62641     0.62641
  Ewald     -47.43891   315.86248   643.10458  -167.00455   -20.21392   -56.08715
  Hartree   284.89933   464.00057   695.03798   -83.90425   -18.45127   -54.38472
  E(xc)     -76.97038   -75.77305   -75.23273    -0.55091     0.02176     0.11120
  Local    -454.13621  -974.84296 -1523.85519   242.24198    39.87193   114.39301
  n-local   -27.78588   -28.86680   -30.20076     0.41443    -0.14456    -0.33305
  augment    -0.55963    -0.66596    -0.70718     0.03410    -0.00639    -0.02139
  Kinetic   318.15842   293.69491   294.66763    11.50051    -1.65222    -5.49976
  Fock        0.00000     0.00000     0.00000     0.00000     0.00000     0.00000
  -------------------------------------------------------------------------------------
  Total      -3.20684    -5.96439     3.44074     2.73132    -0.57467    -1.82187
  in kB      -1.52235    -2.83141     1.63338     1.29661    -0.27281    -0.86488
  external pressure =       -0.91 kB  Pullay stress =        0.00 kB


 VOLUME and BASIS-vectors are now :
 -----------------------------------------------------------------------------
  energy-cutoff  :      520.00
  volume of cell :     3375.00
      direct lattice vectors                 reciprocal lattice vectors
    15.000000000  0.000000000  0.000000000     0.066666667  0.000000000  0.000000000
     0.000000000 15.000000000  0.000000000     0.000000000  0.066666667  0.000000000
     0.000000000  0.000000000 15.000000000     0.000000000  0.000000000  0.066666667

  length of vectors
    15.000000000 15.000000000 15.000000000     0.066666667  0.066666667  0.066666667


 FORCES acting on ions
    electron-ion (+dipol)            ewald-force                    non-local-force                 convergence-correction
 -----------------------------------------------------------------------------------------------
   -.713E+02 0.788E+02 0.107E+03   0.719E+02 -.786E+02 -.107E+03   -.102E+01 0.114E+01 -.284E+00   -.471E-04 0.247E-04 0.704E-04
   0.620E+02 -.911E+02 0.897E+02   -.623E+02 0.913E+02 -.937E+02   0.357E+00 0.760E-01 -.115E+01   0.149E-04 -.492E-04 0.290E-05
   0.234E+02 -.115E+03 -.767E+02   -.234E+02 0.115E+03 0.791E+02   0.145E-01 -.124E+01 0.299E-01   0.198E-04 -.421E-05 -.106E-03
   -.324E+01 0.108E+03 -.108E+03   0.275E+01 -.109E+03 0.108E+03   -.304E+00 0.197E+00 0.672E+00   0.231E-04 -.176E-04 -.453E-04
   -.166E+01 0.123E+02 0.648E+02   0.150E+01 -.129E+02 -.689E+02   0.513E+00 0.444E+00 0.515E+01   -.251E-05 -.610E-06 0.197E-04
   -.528E+02 0.354E+02 -.940E+01   0.552E+02 -.372E+02 0.111E+02   -.364E+01 0.237E+01 -.260E+01   -.153E-04 0.741E-05 0.140E-05
   0.343E+02 -.421E+02 0.377E+02   -.351E+02 0.429E+02 -.385E+02   0.220E+01 -.262E+01 0.241E+01   0.868E-05 -.144E-04 0.151E-04
   0.400E+01 -.605E+02 -.396E+02   -.412E+01 0.651E+02 0.425E+02   0.190E+00 -.463E+01 -.314E+01   0.267E-05 0.556E-05 -.500E-05
   0.141E+02 0.629E+02 0.444E+01   -.146E+02 -.655E+02 -.594E+01   0.998E+00 0.438E+01 0.192E+01   0.281E-05 -.941E-07 -.996E-05
   -.734E+01 0.106E+02 -.678E+02   0.811E+01 -.109E+02 0.739E+02   -.722E+00 0.118E+00 -.575E+01   0.426E-05 -.211E-05 -.565E-06
 -----------------------------------------------------------------------------------------------
   0.142E+01 -.238E+00 0.274E+01   0.000E+00 -.355E-13 -.284E-13   -.142E+01 0.232E+00 -.273E+01   0.113E-04 -.506E-04 -.570E-04
 
 
 POSITION                                       TOTAL-FORCE (eV/Angst)
 -----------------------------------------------------------------------------------
      8.02000      7.16000      6.19600        -0.445815      1.353072     -0.443896
      7.22600      8.12900      6.81500         0.121380      0.215105     -5.100734
      7.24400      8.17800      8.19000        -0.041404     -0.548697      2.444640
      7.34900      6.98000      8.80600        -0.797981     -1.322763      0.812108
      7.92200      7.05000      5.07800         0.355032     -0.139246      1.079842
      8.83400      6.61100      6.77700        -1.218312      0.615031     -0.873771
      6.58200      8.89100      6.12800         1.388755     -1.770090      1.562503
      7.20800      9.09600      8.79400         0.063662     -0.103463     -0.235448
      7.12900      5.95000      8.33500         0.527871      1.805060      0.420119
      7.48500      6.95500      9.88200         0.046812     -0.104009      0.334636
 -----------------------------------------------------------------------------------
    total drift:                               -0.001735     -0.006125      0.001420


--------------------------------------------------------------------------------------------------------



  FREE ENERGIE OF THE ION-ELECTRON SYSTEM (eV)
  ---------------------------------------------------
  free  energy   TOTEN  =       -56.01525182 eV

  energy  without entropy=      -56.01525182  energy(sigma->0) =      -56.01525182
 


--------------------------------------------------------------------------------------------------------


    POTLOK:  cpu time      0.5088: real time      0.5113


--------------------------------------------------------------------------------------------------------


 stress matrix after NEB project (eV)
     -3.20684      2.73132     -1.82187
      2.73132     -5.96439     -0.57467
     -1.82187     -0.57467      3.44074
  FORCES: max atom, RMS     5.106710    2.301728
  FORCE total and by dimension    7.278702    5.100734
  Stress total and by dimension    8.939551    5.964388
     LOOP+:  cpu time     30.8200: real time     30.9761
    4ORBIT:  cpu time      0.0000: real time      0.0000

 total amount of memory used by VASP MPI-rank0   224779. kBytes
=======================================================================

   base      :      30000. kBytes
   nonlr-proj:       1255. kBytes
   fftplans  :     123538. kBytes
   grid      :      67787. kBytes
   one-center:         15. kBytes
   wavefun   :       2184. kBytes
 
  
  
 General timing and accounting informations for this job:
 ========================================================
  
                  Total CPU time used (sec):       37.429
                            User time (sec):       34.201
                          System time (sec):        3.228
                         Elapsed time (sec):       38.880
  
                   Maximum memory used (kb):      559564.
                   Average memory used (kb):          N/A
  
                          Minor page faults:       160443
                          Major page faults:         5455
                 Voluntary context switches:         3255
