 vasp.6.4.2 20Jul23 (build Apr 10 2024 13:39:58) complex                        
  
 executed on             LinuxIFC date 2024.05.18  11:57:02
 running   16 mpi-ranks, on    1 nodes
 distrk:  each k-point on   16 cores,    1 groups
 distr:  one band on NCORE=   2 cores,    8 groups


--------------------------------------------------------------------------------------------------------


 INCAR:
   ISTART = 0
   ISPIN = 1
   LREAL = Auto
   ENCUT = 520
   NPAR = 8
   LPLANE = .TRUE.
   LSCALU = .FALSE.
   NSIM = 4
   LWAVE = .FALSE.
   LCHARG = .FALSE.
   ADDGRID = .TRUE.
   LASPH = .TRUE.
   PREC = Accurate
   ISMEAR = 0
   SIGMA = 0.05
   EDIFF = 1E-06
   NSW = 0
   TEBEG = 300
   TEEND = 700     	
   ISYM = 0
   NWRITE = 2

 POTCAR:   PAW_PBE C 08Apr2002                    
 POTCAR:   PAW_PBE H 15Jun2001                    
 POTCAR:   PAW_PBE C 08Apr2002                    
   VRHFIN =C: s2p2                                                                                  
   LEXCH  = PE                                                                                      
   EATOM  =   147.1560 eV,   10.8157 Ry                                                             
                                                                                                    
   TITEL  = PAW_PBE C 08Apr2002                                                                     
   LULTRA =        F    use ultrasoft PP ?                                                          
   IUNSCR =        0    unscreen: 0-lin 1-nonlin 2-no                                               
   RPACOR =     .000    partial core radius                                                         
   POMASS =   12.011; ZVAL   =    4.000    mass and valenz                                          
   RCORE  =    1.500    outmost cutoff radius                                                       
   RWIGS  =    1.630; RWIGS  =     .863    wigner-seitz radius (au A)                               
   ENMAX  =  400.000; ENMIN  =  300.000 eV                                                          
   ICORE  =        2    local potential                                                             
   LCOR   =        T    correct aug charges                                                         
   LPAW   =        T    paw PP                                                                      
   EAUG   =  644.873                                                                                
   DEXC   =     .000                                                                                
   RMAX   =    2.266    core radius for proj-oper                                                   
   RAUG   =    1.300    factor for augmentation sphere                                              
   RDEP   =    1.501    radius for radial grids                                                     
   RDEPT  =    1.300    core radius for aug-charge                                                  
   QCUT   =   -5.516; QGAM   =   11.032    optimization parameters                                  
                                                                                                    
   Description                                                                                      
     l     E      TYP  RCUT    TYP  RCUT                                                            
     0   .000     23  1.200                                                                         
     0   .000     23  1.200                                                                         
     1   .000     23  1.500                                                                         
     1  2.500     23  1.500                                                                         
     2   .000      7  1.500                                                                         
  local pseudopotential read in
  atomic valenz-charges read in
  non local Contribution for L=           0  read in
    real space projection operators read in
  non local Contribution for L=           0  read in
    real space projection operators read in
  non local Contribution for L=           1  read in
    real space projection operators read in
  non local Contribution for L=           1  read in
    real space projection operators read in
    PAW grid and wavefunctions read in
 
   number of l-projection  operators is LMAX  =           4
   number of lm-projection operators is LMMAX =           8
 
 POTCAR:   PAW_PBE H 15Jun2001                    
   VRHFIN =H: ultrasoft test                                                                        
   LEXCH  = PE                                                                                      
   EATOM  =    12.4884 eV,     .9179 Ry                                                             
                                                                                                    
   TITEL  = PAW_PBE H 15Jun2001                                                                     
   LULTRA =        F    use ultrasoft PP ?                                                          
   IUNSCR =        0    unscreen: 0-lin 1-nonlin 2-no                                               
   RPACOR =     .000    partial core radius                                                         
   POMASS =    1.000; ZVAL   =    1.000    mass and valenz                                          
   RCORE  =    1.100    outmost cutoff radius                                                       
   RWIGS  =     .700; RWIGS  =     .370    wigner-seitz radius (au A)                               
   ENMAX  =  250.000; ENMIN  =  200.000 eV                                                          
   RCLOC  =     .701    cutoff for local pot                                                        
   LCOR   =        T    correct aug charges                                                         
   LPAW   =        T    paw PP                                                                      
   EAUG   =  400.000                                                                                
   RMAX   =    2.174    core radius for proj-oper                                                   
   RAUG   =    1.200    factor for augmentation sphere                                              
   RDEP   =    1.112    radius for radial grids                                                     
   QCUT   =   -5.749; QGAM   =   11.498    optimization parameters                                  
                                                                                                    
   Description                                                                                      
     l     E      TYP  RCUT    TYP  RCUT                                                            
     0   .000     23  1.100                                                                         
     0   .500     23  1.100                                                                         
     1  -.300     23  1.100                                                                         
  local pseudopotential read in
  atomic valenz-charges read in
  non local Contribution for L=           0  read in
    real space projection operators read in
  non local Contribution for L=           0  read in
    real space projection operators read in
  non local Contribution for L=           1  read in
    real space projection operators read in
    PAW grid and wavefunctions read in
 
   number of l-projection  operators is LMAX  =           3
   number of lm-projection operators is LMMAX =           5
 
 Optimization of the real space projectors (new method)

 maximal supplied QI-value         = 25.13
 optimisation between [QCUT,QGAM] = [ 11.56, 23.12] = [ 37.43,149.72] Ry 
 Optimized for a Real-space Cutoff    1.04 Angstroem

   l    n(q)    QCUT    max X(q) W(low)/X(q) W(high)/X(q)  e(spline) 
   0      7    11.561     5.582    0.47E-04    0.94E-04    0.17E-07
   0      7    11.561    69.432    0.20E-03    0.59E-03    0.21E-06
   1      7    11.561     2.780    0.24E-04    0.70E-04    0.44E-07
   1      7    11.561     4.549    0.18E-03    0.25E-03    0.12E-06
 Optimization of the real space projectors (new method)

 maximal supplied QI-value         = 34.20
 optimisation between [QCUT,QGAM] = [ 11.63, 23.26] = [ 37.87,151.49] Ry 
 Optimized for a Real-space Cutoff    1.21 Angstroem

   l    n(q)    QCUT    max X(q) W(low)/X(q) W(high)/X(q)  e(spline) 
   0      8    11.629     4.436    0.19E-04    0.32E-04    0.47E-07
   0      8    11.629    16.131    0.16E-03    0.33E-03    0.21E-06
   1      8    11.629     4.654    0.18E-03    0.16E-03    0.26E-06
 PAW_PBE C 08Apr2002                    :
 energy of atom  1       EATOM= -147.1560
 kinetic energy error for atom=    0.0071 (will be added to EATOM!!)
 PAW_PBE H 15Jun2001                    :
 energy of atom  2       EATOM=  -12.4884
 kinetic energy error for atom=    0.0014 (will be added to EATOM!!)
 
 
 POSCAR:  C  H
  positions in cartesian coordinates
  No initial velocities read in
 exchange correlation table for  LEXCH =        8
   RHO(1)=    0.500       N(1)  =     2000
   RHO(2)=  100.500       N(2)  =     4000

 VTST: version 4.1, (05/19/21)

 CHAIN: initializing optimizer
 
 OPT: Using VASP Dynamics algorithm
 CHAIN: Read ICHAIN            0
 
 POSCAR:  C  H
  positions in cartesian coordinates
  No initial velocities read in
 


--------------------------------------------------------------------------------------------------------


 ion  position               nearest neighbor table
   1  0.528  0.475  0.428-   6 1.11   5 1.13   2 1.40
   2  0.477  0.550  0.448-   7 1.13   1 1.40   3 1.56
   3  0.481  0.554  0.552-   8 1.12   4 1.41   2 1.56
   4  0.491  0.464  0.578-   9 1.09  10 1.12   3 1.41
   5  0.523  0.448  0.358-   1 1.13
   6  0.588  0.451  0.464-   1 1.11
   7  0.427  0.583  0.401-   2 1.13
   8  0.491  0.619  0.588-   3 1.12
   9  0.472  0.407  0.538-   4 1.09
  10  0.521  0.450  0.646-   4 1.12
 

IMPORTANT INFORMATION: All symmetrisations will be switched off!
NOSYMM: (Re-)initialisation of all symmetry stuff for point group C_1.


----------------------------------------------------------------------------------------

                                     Primitive cell                                     

  volume of cell :    3375.0000

  direct lattice vectors                    reciprocal lattice vectors
    15.000000000  0.000000000  0.000000000     0.066666667  0.000000000  0.000000000
     0.000000000 15.000000000  0.000000000     0.000000000  0.066666667  0.000000000
     0.000000000  0.000000000 15.000000000     0.000000000  0.000000000  0.066666667

  length of vectors
    15.000000000 15.000000000 15.000000000     0.066666667  0.066666667  0.066666667

  position of ions in fractional coordinates (direct lattice)
     0.528133329  0.475000000  0.427933343
     0.476600011  0.550000000  0.447666677
     0.481066672  0.553733317  0.551600011
     0.491133340  0.464066664  0.578466670
     0.523133341  0.447999986  0.357733345
     0.588333321  0.450866667  0.463799985
     0.427199999  0.582999992  0.401266670
     0.491333326  0.618533325  0.587933350
     0.472399998  0.407066663  0.537600009
     0.520666663  0.449666659  0.645866648

  ion indices of the primitive-cell ions
   primitive index   ion index
                 1           1
                 2           2
                 3           3
                 4           4
                 5           5
                 6           6
                 7           7
                 8           8
                 9           9
                10          10

----------------------------------------------------------------------------------------

 
 
 KPOINTS: K-Spacing Value to Generate K-Mesh: 1.00

Automatic generation of k-mesh.
 Grid dimensions read from file:
 generate k-points for:    1    1    1

 Generating k-lattice:

  Cartesian coordinates                     Fractional coordinates (reciprocal lattice)
     0.066666667  0.000000000  0.000000000     1.000000000  0.000000000  0.000000000
     0.000000000  0.066666667  0.000000000     0.000000000  1.000000000  0.000000000
     0.000000000  0.000000000  0.066666667     0.000000000  0.000000000  1.000000000

  Length of vectors
     0.066666667  0.066666667  0.066666667

  Shift w.r.t. Gamma in fractional coordinates (k-lattice)
     0.000000000  0.000000000  0.000000000

 
 Subroutine IBZKPT returns following result:
 ===========================================
 
 Found      1 irreducible k-points:
 
 Following reciprocal coordinates:
            Coordinates               Weight
  0.000000  0.000000  0.000000      1.000000
 
 Following cartesian coordinates:
            Coordinates               Weight
  0.000000  0.000000  0.000000      1.000000
 


--------------------------------------------------------------------------------------------------------




 Dimension of arrays:
   k-points           NKPTS =      1   k-points in BZ     NKDIM =      1   number of bands    NBANDS=     24
   number of dos      NEDOS =    301   number of ions     NIONS =     10
   non local maximal  LDIM  =      4   non local SUM 2l+1 LMDIM =      8
   total plane-waves  NPLWV = ******
   max r-space proj   IRMAX =   3145   max aug-charges    IRDMAX=  39494
   dimension x,y,z NGX =   112 NGY =  112 NGZ =  112
   dimension x,y,z NGXF=   224 NGYF=  224 NGZF=  224
   support grid    NGXF=   448 NGYF=  448 NGZF=  448
   ions per type =               4   6
   NGX,Y,Z   is equivalent  to a cutoff of  12.41, 12.41, 12.41 a.u.
   NGXF,Y,Z  is equivalent  to a cutoff of  24.83, 24.83, 24.83 a.u.

 SYSTEM =  unknown system                          
 POSCAR =   C  H                                   

 Startparameter for this run:
   NWRITE =      2    write-flag & timer
   PREC   = accura    normal or accurate (medium, high low for compatibility)
   ISTART =      0    job   : 0-new  1-cont  2-samecut
   ICHARG =      2    charge: 1-file 2-atom 10-const
   ISPIN  =      1    spin polarized calculation?
   LNONCOLLINEAR =      F non collinear calculations
   LSORBIT =      F    spin-orbit coupling
   INIWAV =      1    electr: 0-lowe 1-rand  2-diag
   LASPH  =      T    aspherical Exc in radial PAW
 Electronic Relaxation 1
   ENCUT  =  520.0 eV  38.22 Ry    6.18 a.u.  27.89 27.89 27.89*2*pi/ulx,y,z
   ENINI  =  520.0     initial cutoff
   ENAUG  =  644.9 eV  augmentation charge cutoff
   NELM   =     60;   NELMIN=  2; NELMDL= -5     # of ELM steps 
   EDIFF  = 0.1E-05   stopping-criterion for ELM
   LREAL  =      T    real-space projection
   NLSPLINE    = F    spline interpolate recip. space projectors
   LCOMPAT=      F    compatible to vasp.4.4
   GGA_COMPAT  = T    GGA compatible to vasp.4.4-vasp.4.6
   LMAXPAW     = -100 max onsite density
   LMAXMIX     =    2 max onsite mixed and CHGCAR
   VOSKOWN=      0    Vosko Wilk Nusair interpolation
   ROPT   =   -0.00025  -0.00025
 Ionic relaxation
   EDIFFG = 0.1E-04   stopping-criterion for IOM
   NSW    =      0    number of steps for IOM
   NBLOCK =      1;   KBLOCK =      1    inner block; outer block 
   IBRION =     -1    ionic relax: 0-MD 1-quasi-New 2-CG
   NFREE  =      0    steps in history (QN), initial steepest desc. (CG)
   ISIF   =      2    stress and relaxation
   IWAVPR =     10    prediction:  0-non 1-charg 2-wave 3-comb
   ISYM   =      0    0-nonsym 1-usesym 2-fastsym
   LCORR  =      T    Harris-Foulkes like correction to forces

   POTIM  = 0.5000    time-step for ionic-motion
   TEIN   =    0.0    initial temperature
   TEBEG  =  300.0;   TEEND  = 700.0 temperature during run
   SMASS  =  -3.00    Nose mass-parameter (am)
   estimated Nose-frequenzy (Omega)   =  0.10E-29 period in steps = 0.13E+47 mass=  -0.514E-26a.u.
   SCALEE = 1.0000    scale energy and forces
   NPACO  =    256;   APACO  = 10.0  distance and # of slots for P.C.
   PSTRESS=    0.0 pullay stress

  Mass of Ions in am
   POMASS =  12.01  1.00
  Ionic Valenz
   ZVAL   =   4.00  1.00
  Atomic Wigner-Seitz radii
   RWIGS  =  -1.00 -1.00
  virtual crystal weights 
   VCA    =   1.00  1.00
   NELECT =      22.0000    total number of electrons
   NUPDOWN=      -1.0000    fix difference up-down

 DOS related values:
   EMIN   =  10.00;   EMAX   =-10.00  energy-range for DOS
   EFERMI =   0.00;   METHOD = LEGACY      
   ISMEAR =     0;   SIGMA  =   0.05  broadening in eV -4-tet -1-fermi 0-gaus

 Electronic relaxation 2 (details)
   IALGO  =     38    algorithm
   LDIAG  =      T    sub-space diagonalisation (order eigenvalues)
   LSUBROT=      F    optimize rotation matrix (better conditioning)
   TURBO    =      0    0=normal 1=particle mesh
   IRESTART =      0    0=no restart 2=restart with 2 vectors
   NREBOOT  =      0    no. of reboots
   NMIN     =      0    reboot dimension
   EREF     =   0.00    reference energy to select bands
   IMIX   =      4    mixing-type and parameters
     AMIX     =   0.40;   BMIX     =  1.00
     AMIX_MAG =   1.60;   BMIX_MAG =  1.00
     AMIN     =   0.10
     WC   =   100.;   INIMIX=   1;  MIXPRE=   1;  MAXMIX= -45

 Intra band minimization:
   WEIMIN = 0.0000     energy-eigenvalue tresh-hold
   EBREAK =  0.10E-07  absolut break condition
   DEPER  =   0.30     relativ break condition  

   TIME   =   0.40     timestep for ELM

  volume/ion in A,a.u.               =     337.50      2277.56
  Fermi-wavevector in a.u.,A,eV,Ry     =   0.305814  0.577905  1.272449  0.093522
  Thomas-Fermi vector in A             =   1.179187
 
 Write flags
   LWAVE        =      F    write WAVECAR
   LDOWNSAMPLE  =      F    k-point downsampling of WAVECAR
   LCHARG       =      F    write CHGCAR
   LVTOT        =      F    write LOCPOT, total local potential
   LVHAR        =      F    write LOCPOT, Hartree potential only
   LELF         =      F    write electronic localiz. function (ELF)
   LORBIT       =      0    0 simple, 1 ext, 2 COOP (PROOUT), +10 PAW based schemes


 Dipole corrections
   LMONO  =      F    monopole corrections only (constant potential shift)
   LDIPOL =      F    correct potential (dipole corrections)
   IDIPOL =      0    1-x, 2-y, 3-z, 4-all directions 
   EPSILON=  1.0000000 bulk dielectric constant

 Exchange correlation treatment:
   GGA     =    --    GGA type
   LEXCH   =     8    internal setting for exchange type
   LIBXC   =     F    Libxc                    
   VOSKOWN =     0    Vosko Wilk Nusair interpolation
   LHFCALC =     F    Hartree Fock is set to
   LHFONE  =     F    Hartree Fock one center treatment
   AEXX    =    0.0000 exact exchange contribution

 Linear response parameters
   LEPSILON=     F    determine dielectric tensor
   LRPA    =     F    only Hartree local field effects (RPA)
   LNABLA  =     F    use nabla operator in PAW spheres
   LVEL    =     F    velocity operator in full k-point grid
   CSHIFT  =0.1000    complex shift for real part using Kramers Kronig
   OMEGAMAX=  -1.0    maximum frequency
   DEG_THRESHOLD= 0.2000000E-02 threshold for treating states as degnerate
   RTIME   =   -0.100 relaxation time in fs
  (WPLASMAI=    0.000 imaginary part of plasma frequency in eV, 0.658/RTIME)
   DFIELD  = 0.0000000 0.0000000 0.0000000 field for delta impulse in time
 
  Optional k-point grid parameters
   LKPOINTS_OPT  =     F    use optional k-point grid
   KPOINTS_OPT_MODE=     1    mode for optional k-point grid
 
 Orbital magnetization related:
   ORBITALMAG=     F  switch on orbital magnetization
   LCHIMAG   =     F  perturbation theory with respect to B field
   DQ        =  0.001000  dq finite difference perturbation B field
   LLRAUG    =     F  two centre corrections for induced B field
   LBONE     =     F  B-component reconstruction in AE one-centre
   LVGVCALC  =     T  calculate vGv susceptibility
   LVGVAPPL  =     F  apply vGv susceptibility instead of pGv for G=0

 Random number generation:
   RANDOM_GENERATOR = DEFAULT
   PCG_SEED         = not used


--------------------------------------------------------------------------------------------------------


 Static calculation
 charge density and potential will be updated during run
 non-spin polarized calculation
 Variant of blocked Davidson
 Davidson routine will perform the subspace rotation
 perform sub-space diagonalisation
    after iterative eigenvector-optimisation
 modified Broyden-mixing scheme, WC =      100.0
 initial mixing is a Kerker type mixing with AMIX =  0.4000 and BMIX =      1.0000
 Hartree-type preconditioning will be used
 using additional bands           13
 real space projection scheme for non local part
 calculate Harris-corrections to forces 
   (improved forces if not selfconsistent)
 use gradient corrections 
 use of overlap-Matrix (Vanderbilt PP)
 Gauss-broadening in eV      SIGMA  =   0.05


--------------------------------------------------------------------------------------------------------


  energy-cutoff  :      520.00
  volume of cell :     3375.00
      direct lattice vectors                 reciprocal lattice vectors
    15.000000000  0.000000000  0.000000000     0.066666667  0.000000000  0.000000000
     0.000000000 15.000000000  0.000000000     0.000000000  0.066666667  0.000000000
     0.000000000  0.000000000 15.000000000     0.000000000  0.000000000  0.066666667

  length of vectors
    15.000000000 15.000000000 15.000000000     0.066666667  0.066666667  0.066666667


 
 k-points in units of 2pi/SCALE and weight: K-Spacing Value to Generate K-Mesh: 1.00
   0.00000000  0.00000000  0.00000000       1.000
 
 k-points in reciprocal lattice and weights: K-Spacing Value to Generate K-Mesh: 1.00
   0.00000000  0.00000000  0.00000000       1.000
 
 position of ions in fractional coordinates (direct lattice) 
   0.52813333  0.47500000  0.42793334
   0.47660001  0.55000000  0.44766668
   0.48106667  0.55373332  0.55160001
   0.49113334  0.46406666  0.57846667
   0.52313334  0.44799999  0.35773335
   0.58833332  0.45086667  0.46379999
   0.42720000  0.58299999  0.40126667
   0.49133333  0.61853333  0.58793335
   0.47240000  0.40706666  0.53760001
   0.52066666  0.44966666  0.64586665
 
 position of ions in cartesian coordinates  (Angst):
   7.92199993  7.12500000  6.41900015
   7.14900017  8.25000000  6.71500015
   7.21600008  8.30599976  8.27400017
   7.36700010  6.96099997  8.67700005
   7.84700012  6.71999979  5.36600018
   8.82499981  6.76300001  6.95699978
   6.40799999  8.74499989  6.01900005
   7.36999989  9.27799988  8.81900024
   7.08599997  6.10599995  8.06400013
   7.80999994  6.74499989  9.68799973
 


--------------------------------------------------------------------------------------------------------


 k-point   1 :   0.0000 0.0000 0.0000  plane waves:   90879

 maximum and minimum number of plane-waves per node :     45467    45412

 maximum number of plane-waves:     90879
 maximum index in each direction: 
   IXMAX=   27   IYMAX=   27   IZMAX=   27
   IXMIN=  -27   IYMIN=  -27   IZMIN=  -27


 real space projection operators:
  total allocation   :       1185.01 KBytes
  max/ min on nodes  :        592.69        592.32


 parallel 3D FFT for wavefunctions:
    minimum data exchange during FFTs selected (reduces bandwidth)
 parallel 3D FFT for charge:
    minimum data exchange during FFTs selected (reduces bandwidth)


 total amount of memory used by VASP MPI-rank0   224782. kBytes
=======================================================================

   base      :      30000. kBytes
   nonlr-proj:       1258. kBytes
   fftplans  :     123538. kBytes
   grid      :      67787. kBytes
   one-center:         15. kBytes
   wavefun   :       2184. kBytes
 
     INWAV:  cpu time      0.0000: real time      0.0000
 Broyden mixing: mesh for mixing (old mesh)
   NGX = 55   NGY = 55   NGZ = 55
  (NGX  =224   NGY  =224   NGZ  =224)
  gives a total of 166375 points

 initial charge density was supplied:
 charge density of overlapping atoms calculated
 number of electron      22.0000000 magnetization 
 keeping initial charge density in first step


--------------------------------------------------------------------------------------------------------


 Maximum index for non-local projection operator         1512
 Maximum index for augmentation-charges         2391 (set IRDMAX)


--------------------------------------------------------------------------------------------------------


 First call to EWALD:  gamma=   0.118
 Maximum number of real-space cells 3x 3x 3
 Maximum number of reciprocal cells 3x 3x 3

    FEWALD:  cpu time      0.0011: real time      0.0011


--------------------------------------- Ionic step        1  -------------------------------------------




--------------------------------------- Iteration      1(   1)  ---------------------------------------


    POTLOK:  cpu time      0.3371: real time      0.3390
    SETDIJ:  cpu time      0.1934: real time      0.1943
     EDDAV:  cpu time      0.4193: real time      0.4216
       DOS:  cpu time      0.0002: real time      0.0002
    --------------------------------------------
      LOOP:  cpu time      0.9501: real time      0.9552

 eigenvalue-minimisations  :    64
 total energy-change (2. order) : 0.1018330E+03  (-0.5209240E+03)
 number of electron      22.0000000 magnetization 
 augmentation part       22.0000000 magnetization 

 Free energy of the ion-electron system (eV)
  ---------------------------------------------------
  alpha Z        PSCENC =         0.62641250
  Ewald energy   TEWEN  =       910.67503535
  -Hartree energ DENC   =     -1345.00663929
  -exchange      EXHF   =         0.00000000
  -V(xc)+E(xc)   XCENC  =        66.89179360
  PAW double counting   =       156.01372664     -160.66969168
  entropy T*S    EENTRO =        -0.00825754
  eigenvalues    EBANDS =      -190.20677096
  atomic energy  EATOM  =       663.51739852
  Solvation  Ediel_sol  =         0.00000000
  ---------------------------------------------------
  free energy    TOTEN  =       101.83300714 eV

  energy without entropy =      101.84126469  energy(sigma->0) =      101.83713591


--------------------------------------------------------------------------------------------------------




--------------------------------------- Iteration      1(   2)  ---------------------------------------


     EDDAV:  cpu time      0.4847: real time      0.4874
       DOS:  cpu time      0.0001: real time      0.0001
    --------------------------------------------
      LOOP:  cpu time      0.4848: real time      0.4875

 eigenvalue-minimisations  :    80
 total energy-change (2. order) :-0.1187125E+03  (-0.1159084E+03)
 number of electron      22.0000000 magnetization 
 augmentation part       22.0000000 magnetization 

 Free energy of the ion-electron system (eV)
  ---------------------------------------------------
  alpha Z        PSCENC =         0.62641250
  Ewald energy   TEWEN  =       910.67503535
  -Hartree energ DENC   =     -1345.00663929
  -exchange      EXHF   =         0.00000000
  -V(xc)+E(xc)   XCENC  =        66.89179360
  PAW double counting   =       156.01372664     -160.66969168
  entropy T*S    EENTRO =        -0.00000000
  eigenvalues    EBANDS =      -308.92750054
  atomic energy  EATOM  =       663.51739852
  Solvation  Ediel_sol  =         0.00000000
  ---------------------------------------------------
  free energy    TOTEN  =       -16.87946489 eV

  energy without entropy =      -16.87946489  energy(sigma->0) =      -16.87946489


--------------------------------------------------------------------------------------------------------




--------------------------------------- Iteration      1(   3)  ---------------------------------------


     EDDAV:  cpu time      0.4418: real time      0.4443
       DOS:  cpu time      0.0001: real time      0.0001
    --------------------------------------------
      LOOP:  cpu time      0.4419: real time      0.4444

 eigenvalue-minimisations  :    72
 total energy-change (2. order) :-0.4146566E+02  (-0.4137122E+02)
 number of electron      22.0000000 magnetization 
 augmentation part       22.0000000 magnetization 

 Free energy of the ion-electron system (eV)
  ---------------------------------------------------
  alpha Z        PSCENC =         0.62641250
  Ewald energy   TEWEN  =       910.67503535
  -Hartree energ DENC   =     -1345.00663929
  -exchange      EXHF   =         0.00000000
  -V(xc)+E(xc)   XCENC  =        66.89179360
  PAW double counting   =       156.01372664     -160.66969168
  entropy T*S    EENTRO =        -0.00000000
  eigenvalues    EBANDS =      -350.39315961
  atomic energy  EATOM  =       663.51739852
  Solvation  Ediel_sol  =         0.00000000
  ---------------------------------------------------
  free energy    TOTEN  =       -58.34512396 eV

  energy without entropy =      -58.34512396  energy(sigma->0) =      -58.34512396


--------------------------------------------------------------------------------------------------------




--------------------------------------- Iteration      1(   4)  ---------------------------------------


     EDDAV:  cpu time      0.4424: real time      0.4449
       DOS:  cpu time      0.0001: real time      0.0001
    --------------------------------------------
      LOOP:  cpu time      0.4425: real time      0.4450

 eigenvalue-minimisations  :    72
 total energy-change (2. order) :-0.2315218E+01  (-0.2312403E+01)
 number of electron      22.0000000 magnetization 
 augmentation part       22.0000000 magnetization 

 Free energy of the ion-electron system (eV)
  ---------------------------------------------------
  alpha Z        PSCENC =         0.62641250
  Ewald energy   TEWEN  =       910.67503535
  -Hartree energ DENC   =     -1345.00663929
  -exchange      EXHF   =         0.00000000
  -V(xc)+E(xc)   XCENC  =        66.89179360
  PAW double counting   =       156.01372664     -160.66969168
  entropy T*S    EENTRO =        -0.00000000
  eigenvalues    EBANDS =      -352.70837764
  atomic energy  EATOM  =       663.51739852
  Solvation  Ediel_sol  =         0.00000000
  ---------------------------------------------------
  free energy    TOTEN  =       -60.66034199 eV

  energy without entropy =      -60.66034199  energy(sigma->0) =      -60.66034199


--------------------------------------------------------------------------------------------------------




--------------------------------------- Iteration      1(   5)  ---------------------------------------


     EDDAV:  cpu time      0.3663: real time      0.3683
       DOS:  cpu time      0.0001: real time      0.0001
    CHARGE:  cpu time      0.1967: real time      0.1975
    MIXING:  cpu time      0.0139: real time      0.0140
    --------------------------------------------
      LOOP:  cpu time      0.5770: real time      0.5799

 eigenvalue-minimisations  :    56
 total energy-change (2. order) :-0.2070769E-01  (-0.2070106E-01)
 number of electron      22.0000000 magnetization 
 augmentation part        0.5363017 magnetization 

 Broyden mixing:
  rms(total) = 0.10957E+01    rms(broyden)= 0.10955E+01
  rms(prec ) = 0.13197E+01
  weight for this iteration     100.00

 Free energy of the ion-electron system (eV)
  ---------------------------------------------------
  alpha Z        PSCENC =         0.62641250
  Ewald energy   TEWEN  =       910.67503535
  -Hartree energ DENC   =     -1345.00663929
  -exchange      EXHF   =         0.00000000
  -V(xc)+E(xc)   XCENC  =        66.89179360
  PAW double counting   =       156.01372664     -160.66969168
  entropy T*S    EENTRO =        -0.00000000
  eigenvalues    EBANDS =      -352.72908533
  atomic energy  EATOM  =       663.51739852
  Solvation  Ediel_sol  =         0.00000000
  ---------------------------------------------------
  free energy    TOTEN  =       -60.68104968 eV

  energy without entropy =      -60.68104968  energy(sigma->0) =      -60.68104968


--------------------------------------------------------------------------------------------------------




--------------------------------------- Iteration      1(   6)  ---------------------------------------


    POTLOK:  cpu time      0.3097: real time      0.3114
    SETDIJ:  cpu time      0.1915: real time      0.1924
     EDDAV:  cpu time      0.4062: real time      0.4085
       DOS:  cpu time      0.0001: real time      0.0001
    CHARGE:  cpu time      0.1984: real time      0.1992
    MIXING:  cpu time      0.0101: real time      0.0101
    --------------------------------------------
      LOOP:  cpu time      1.1160: real time      1.1217

 eigenvalue-minimisations  :    64
 total energy-change (2. order) : 0.4369134E+01  (-0.6805295E+00)
 number of electron      22.0000000 magnetization 
 augmentation part        0.4929981 magnetization 

 Broyden mixing:
  rms(total) = 0.53987E+00    rms(broyden)= 0.53985E+00
  rms(prec ) = 0.64139E+00
  weight for this iteration     100.00

 eigenvalues of (default mixing * dielectric matrix)
  average eigenvalue GAMMA=   1.5864
  1.5864

 Free energy of the ion-electron system (eV)
  ---------------------------------------------------
  alpha Z        PSCENC =         0.62641250
  Ewald energy   TEWEN  =       910.67503535
  -Hartree energ DENC   =     -1388.25482587
  -exchange      EXHF   =         0.00000000
  -V(xc)+E(xc)   XCENC  =        69.06274480
  PAW double counting   =       219.54328382     -224.67787982
  entropy T*S    EENTRO =        -0.00000000
  eigenvalues    EBANDS =      -306.80408528
  atomic energy  EATOM  =       663.51739852
  Solvation  Ediel_sol  =         0.00000000
  ---------------------------------------------------
  free energy    TOTEN  =       -56.31191598 eV

  energy without entropy =      -56.31191598  energy(sigma->0) =      -56.31191598


--------------------------------------------------------------------------------------------------------




--------------------------------------- Iteration      1(   7)  ---------------------------------------


    POTLOK:  cpu time      0.3102: real time      0.3119
    SETDIJ:  cpu time      0.1899: real time      0.1907
     EDDAV:  cpu time      0.4117: real time      0.4139
       DOS:  cpu time      0.0001: real time      0.0001
    CHARGE:  cpu time      0.2004: real time      0.2012
    MIXING:  cpu time      0.0093: real time      0.0094
    --------------------------------------------
      LOOP:  cpu time      1.1216: real time      1.1272

 eigenvalue-minimisations  :    64
 total energy-change (2. order) : 0.1064897E+01  (-0.3646257E+00)
 number of electron      22.0000000 magnetization 
 augmentation part        0.4653703 magnetization 

 Broyden mixing:
  rms(total) = 0.22100E+00    rms(broyden)= 0.22094E+00
  rms(prec ) = 0.25554E+00
  weight for this iteration     100.00

 eigenvalues of (default mixing * dielectric matrix)
  average eigenvalue GAMMA=   1.5235
  1.3360  1.7110

 Free energy of the ion-electron system (eV)
  ---------------------------------------------------
  alpha Z        PSCENC =         0.62641250
  Ewald energy   TEWEN  =       910.67503535
  -Hartree energ DENC   =     -1422.50579665
  -exchange      EXHF   =         0.00000000
  -V(xc)+E(xc)   XCENC  =        70.98671634
  PAW double counting   =       270.17872039     -275.52720721
  entropy T*S    EENTRO =        -0.00000000
  eigenvalues    EBANDS =      -273.19829790
  atomic energy  EATOM  =       663.51739852
  Solvation  Ediel_sol  =         0.00000000
  ---------------------------------------------------
  free energy    TOTEN  =       -55.24701866 eV

  energy without entropy =      -55.24701866  energy(sigma->0) =      -55.24701866


--------------------------------------------------------------------------------------------------------




--------------------------------------- Iteration      1(   8)  ---------------------------------------


    POTLOK:  cpu time      0.3127: real time      0.3144
    SETDIJ:  cpu time      0.1896: real time      0.1904
     EDDAV:  cpu time      0.4101: real time      0.4123
       DOS:  cpu time      0.0001: real time      0.0001
    CHARGE:  cpu time      0.1980: real time      0.1987
    MIXING:  cpu time      0.0093: real time      0.0093
    --------------------------------------------
      LOOP:  cpu time      1.1197: real time      1.1252

 eigenvalue-minimisations  :    64
 total energy-change (2. order) : 0.1405126E+00  (-0.1966767E-01)
 number of electron      22.0000000 magnetization 
 augmentation part        0.4647058 magnetization 

 Broyden mixing:
  rms(total) = 0.10051E+00    rms(broyden)= 0.10050E+00
  rms(prec ) = 0.12488E+00
  weight for this iteration     100.00

 eigenvalues of (default mixing * dielectric matrix)
  average eigenvalue GAMMA=   1.6285
  2.4340  0.8514  1.6001

 Free energy of the ion-electron system (eV)
  ---------------------------------------------------
  alpha Z        PSCENC =         0.62641250
  Ewald energy   TEWEN  =       910.67503535
  -Hartree energ DENC   =     -1428.48062209
  -exchange      EXHF   =         0.00000000
  -V(xc)+E(xc)   XCENC  =        71.42012856
  PAW double counting   =       275.61786198     -280.89914343
  entropy T*S    EENTRO =        -0.00000000
  eigenvalues    EBANDS =      -267.58357742
  atomic energy  EATOM  =       663.51739852
  Solvation  Ediel_sol  =         0.00000000
  ---------------------------------------------------
  free energy    TOTEN  =       -55.10650603 eV

  energy without entropy =      -55.10650603  energy(sigma->0) =      -55.10650603


--------------------------------------------------------------------------------------------------------




--------------------------------------- Iteration      1(   9)  ---------------------------------------


    POTLOK:  cpu time      0.3153: real time      0.3170
    SETDIJ:  cpu time      0.1880: real time      0.1888
     EDDAV:  cpu time      0.4076: real time      0.4098
       DOS:  cpu time      0.0001: real time      0.0001
    CHARGE:  cpu time      0.1990: real time      0.1999
    MIXING:  cpu time      0.0102: real time      0.0102
    --------------------------------------------
      LOOP:  cpu time      1.1202: real time      1.1258

 eigenvalue-minimisations  :    64
 total energy-change (2. order) : 0.5560935E-01  (-0.9695375E-02)
 number of electron      22.0000000 magnetization 
 augmentation part        0.4638255 magnetization 

 Broyden mixing:
  rms(total) = 0.30140E-01    rms(broyden)= 0.30132E-01
  rms(prec ) = 0.52183E-01
  weight for this iteration     100.00

 eigenvalues of (default mixing * dielectric matrix)
  average eigenvalue GAMMA=   1.4073
  2.2400  1.5800  0.9045  0.9045

 Free energy of the ion-electron system (eV)
  ---------------------------------------------------
  alpha Z        PSCENC =         0.62641250
  Ewald energy   TEWEN  =       910.67503535
  -Hartree energ DENC   =     -1435.25890206
  -exchange      EXHF   =         0.00000000
  -V(xc)+E(xc)   XCENC  =        71.83521752
  PAW double counting   =       279.62239818     -284.84417556
  entropy T*S    EENTRO =        -0.00000000
  eigenvalues    EBANDS =      -261.22428114
  atomic energy  EATOM  =       663.51739852
  Solvation  Ediel_sol  =         0.00000000
  ---------------------------------------------------
  free energy    TOTEN  =       -55.05089668 eV

  energy without entropy =      -55.05089668  energy(sigma->0) =      -55.05089668


--------------------------------------------------------------------------------------------------------




--------------------------------------- Iteration      1(  10)  ---------------------------------------


    POTLOK:  cpu time      0.3159: real time      0.3176
    SETDIJ:  cpu time      0.1893: real time      0.1901
     EDDAV:  cpu time      0.4060: real time      0.4082
       DOS:  cpu time      0.0001: real time      0.0001
    CHARGE:  cpu time      0.1980: real time      0.1988
    MIXING:  cpu time      0.0105: real time      0.0105
    --------------------------------------------
      LOOP:  cpu time      1.1198: real time      1.1253

 eigenvalue-minimisations  :    64
 total energy-change (2. order) : 0.4201210E-02  (-0.1841709E-02)
 number of electron      22.0000000 magnetization 
 augmentation part        0.4628776 magnetization 

 Broyden mixing:
  rms(total) = 0.17383E-01    rms(broyden)= 0.17381E-01
  rms(prec ) = 0.37263E-01
  weight for this iteration     100.00

 eigenvalues of (default mixing * dielectric matrix)
  average eigenvalue GAMMA=   1.6206
  2.5072  2.3616  1.0238  1.0238  1.1869

 Free energy of the ion-electron system (eV)
  ---------------------------------------------------
  alpha Z        PSCENC =         0.62641250
  Ewald energy   TEWEN  =       910.67503535
  -Hartree energ DENC   =     -1437.02759620
  -exchange      EXHF   =         0.00000000
  -V(xc)+E(xc)   XCENC  =        71.85416347
  PAW double counting   =       279.50272020     -284.73781723
  entropy T*S    EENTRO =        -0.00000000
  eigenvalues    EBANDS =      -259.45701208
  atomic energy  EATOM  =       663.51739852
  Solvation  Ediel_sol  =         0.00000000
  ---------------------------------------------------
  free energy    TOTEN  =       -55.04669547 eV

  energy without entropy =      -55.04669547  energy(sigma->0) =      -55.04669547


--------------------------------------------------------------------------------------------------------




--------------------------------------- Iteration      1(  11)  ---------------------------------------


    POTLOK:  cpu time      0.3160: real time      0.3176
    SETDIJ:  cpu time      0.1917: real time      0.1925
     EDDAV:  cpu time      0.4464: real time      0.4488
       DOS:  cpu time      0.0001: real time      0.0001
    CHARGE:  cpu time      0.1985: real time      0.1993
    MIXING:  cpu time      0.0103: real time      0.0104
    --------------------------------------------
      LOOP:  cpu time      1.1631: real time      1.1687

 eigenvalue-minimisations  :    72
 total energy-change (2. order) : 0.1131614E-01  (-0.1142740E-02)
 number of electron      22.0000000 magnetization 
 augmentation part        0.4621859 magnetization 

 Broyden mixing:
  rms(total) = 0.78924E-02    rms(broyden)= 0.78915E-02
  rms(prec ) = 0.18007E-01
  weight for this iteration     100.00

 eigenvalues of (default mixing * dielectric matrix)
  average eigenvalue GAMMA=   1.6448
  2.9996  2.4947  1.2440  0.9926  1.0690  1.0690

 Free energy of the ion-electron system (eV)
  ---------------------------------------------------
  alpha Z        PSCENC =         0.62641250
  Ewald energy   TEWEN  =       910.67503535
  -Hartree energ DENC   =     -1442.07758716
  -exchange      EXHF   =         0.00000000
  -V(xc)+E(xc)   XCENC  =        71.98645257
  PAW double counting   =       278.19922572     -283.42245065
  entropy T*S    EENTRO =        -0.00000000
  eigenvalues    EBANDS =      -254.53986619
  atomic energy  EATOM  =       663.51739852
  Solvation  Ediel_sol  =         0.00000000
  ---------------------------------------------------
  free energy    TOTEN  =       -55.03537933 eV

  energy without entropy =      -55.03537933  energy(sigma->0) =      -55.03537933


--------------------------------------------------------------------------------------------------------




--------------------------------------- Iteration      1(  12)  ---------------------------------------


    POTLOK:  cpu time      0.3173: real time      0.3190
    SETDIJ:  cpu time      0.1916: real time      0.1924
     EDDAV:  cpu time      0.4092: real time      0.4115
       DOS:  cpu time      0.0001: real time      0.0001
    CHARGE:  cpu time      0.1986: real time      0.1994
    MIXING:  cpu time      0.0088: real time      0.0088
    --------------------------------------------
      LOOP:  cpu time      1.1257: real time      1.1313

 eigenvalue-minimisations  :    64
 total energy-change (2. order) :-0.2169841E-03  (-0.1272809E-03)
 number of electron      22.0000000 magnetization 
 augmentation part        0.4620213 magnetization 

 Broyden mixing:
  rms(total) = 0.59473E-02    rms(broyden)= 0.59472E-02
  rms(prec ) = 0.12510E-01
  weight for this iteration     100.00

 eigenvalues of (default mixing * dielectric matrix)
  average eigenvalue GAMMA=   1.8545
  4.1840  2.4415  2.0635  1.2534  0.9925  0.9925  1.0539

 Free energy of the ion-electron system (eV)
  ---------------------------------------------------
  alpha Z        PSCENC =         0.62641250
  Ewald energy   TEWEN  =       910.67503535
  -Hartree energ DENC   =     -1443.50380550
  -exchange      EXHF   =         0.00000000
  -V(xc)+E(xc)   XCENC  =        72.00731196
  PAW double counting   =       277.64752780     -282.87024450
  entropy T*S    EENTRO =        -0.00000000
  eigenvalues    EBANDS =      -253.13523243
  atomic energy  EATOM  =       663.51739852
  Solvation  Ediel_sol  =         0.00000000
  ---------------------------------------------------
  free energy    TOTEN  =       -55.03559631 eV

  energy without entropy =      -55.03559631  energy(sigma->0) =      -55.03559631


--------------------------------------------------------------------------------------------------------




--------------------------------------- Iteration      1(  13)  ---------------------------------------


    POTLOK:  cpu time      0.3110: real time      0.3126
    SETDIJ:  cpu time      0.1904: real time      0.1912
     EDDAV:  cpu time      0.4067: real time      0.4088
       DOS:  cpu time      0.0002: real time      0.0001
    CHARGE:  cpu time      0.1968: real time      0.1975
    MIXING:  cpu time      0.0129: real time      0.0130
    --------------------------------------------
      LOOP:  cpu time      1.1179: real time      1.1233

 eigenvalue-minimisations  :    64
 total energy-change (2. order) :-0.8114432E-02  (-0.1426012E-03)
 number of electron      22.0000000 magnetization 
 augmentation part        0.4618726 magnetization 

 Broyden mixing:
  rms(total) = 0.30037E-02    rms(broyden)= 0.30036E-02
  rms(prec ) = 0.66840E-02
  weight for this iteration     100.00

 eigenvalues of (default mixing * dielectric matrix)
  average eigenvalue GAMMA=   1.9584
  5.0584  2.6977  2.1661  1.3792  1.3792  0.9511  1.0177  1.0177

 Free energy of the ion-electron system (eV)
  ---------------------------------------------------
  alpha Z        PSCENC =         0.62641250
  Ewald energy   TEWEN  =       910.67503535
  -Hartree energ DENC   =     -1444.74850212
  -exchange      EXHF   =         0.00000000
  -V(xc)+E(xc)   XCENC  =        72.02237338
  PAW double counting   =       277.60398803     -282.82726759
  entropy T*S    EENTRO =        -0.00000000
  eigenvalues    EBANDS =      -251.91314881
  atomic energy  EATOM  =       663.51739852
  Solvation  Ediel_sol  =         0.00000000
  ---------------------------------------------------
  free energy    TOTEN  =       -55.04371074 eV

  energy without entropy =      -55.04371074  energy(sigma->0) =      -55.04371074


--------------------------------------------------------------------------------------------------------




--------------------------------------- Iteration      1(  14)  ---------------------------------------


    POTLOK:  cpu time      0.3100: real time      0.3116
    SETDIJ:  cpu time      0.1921: real time      0.1929
     EDDAV:  cpu time      0.4070: real time      0.4092
       DOS:  cpu time      0.0001: real time      0.0001
    CHARGE:  cpu time      0.1978: real time      0.1986
    MIXING:  cpu time      0.0095: real time      0.0096
    --------------------------------------------
      LOOP:  cpu time      1.1165: real time      1.1220

 eigenvalue-minimisations  :    64
 total energy-change (2. order) :-0.7185665E-02  (-0.1052389E-03)
 number of electron      22.0000000 magnetization 
 augmentation part        0.4617862 magnetization 

 Broyden mixing:
  rms(total) = 0.18876E-02    rms(broyden)= 0.18875E-02
  rms(prec ) = 0.37628E-02
  weight for this iteration     100.00

 eigenvalues of (default mixing * dielectric matrix)
  average eigenvalue GAMMA=   2.1541
  6.0772  3.5336  2.3474  1.9701  1.2969  1.2969  0.9132  0.9756  0.9756

 Free energy of the ion-electron system (eV)
  ---------------------------------------------------
  alpha Z        PSCENC =         0.62641250
  Ewald energy   TEWEN  =       910.67503535
  -Hartree energ DENC   =     -1445.04240819
  -exchange      EXHF   =         0.00000000
  -V(xc)+E(xc)   XCENC  =        72.01134279
  PAW double counting   =       277.64402019     -282.86768119
  entropy T*S    EENTRO =        -0.00000000
  eigenvalues    EBANDS =      -251.61501638
  atomic energy  EATOM  =       663.51739852
  Solvation  Ediel_sol  =         0.00000000
  ---------------------------------------------------
  free energy    TOTEN  =       -55.05089641 eV

  energy without entropy =      -55.05089641  energy(sigma->0) =      -55.05089641


--------------------------------------------------------------------------------------------------------




--------------------------------------- Iteration      1(  15)  ---------------------------------------


    POTLOK:  cpu time      0.3044: real time      0.3060
    SETDIJ:  cpu time      0.1907: real time      0.1915
     EDDAV:  cpu time      0.4048: real time      0.4071
       DOS:  cpu time      0.0001: real time      0.0001
    CHARGE:  cpu time      0.1983: real time      0.1991
    MIXING:  cpu time      0.0095: real time      0.0096
    --------------------------------------------
      LOOP:  cpu time      1.1079: real time      1.1134

 eigenvalue-minimisations  :    64
 total energy-change (2. order) :-0.4174110E-02  (-0.6549133E-04)
 number of electron      22.0000000 magnetization 
 augmentation part        0.4618091 magnetization 

 Broyden mixing:
  rms(total) = 0.14456E-02    rms(broyden)= 0.14455E-02
  rms(prec ) = 0.22234E-02
  weight for this iteration     100.00

 eigenvalues of (default mixing * dielectric matrix)
  average eigenvalue GAMMA=   2.2461
  6.7947  4.0370  2.4583  2.0135  1.8263  1.2270  1.2270  0.9105  0.9831  0.9831

 Free energy of the ion-electron system (eV)
  ---------------------------------------------------
  alpha Z        PSCENC =         0.62641250
  Ewald energy   TEWEN  =       910.67503535
  -Hartree energ DENC   =     -1445.08100724
  -exchange      EXHF   =         0.00000000
  -V(xc)+E(xc)   XCENC  =        72.00270498
  PAW double counting   =       277.63844356     -282.86033556
  entropy T*S    EENTRO =        -0.00000000
  eigenvalues    EBANDS =      -251.57372264
  atomic energy  EATOM  =       663.51739852
  Solvation  Ediel_sol  =         0.00000000
  ---------------------------------------------------
  free energy    TOTEN  =       -55.05507052 eV

  energy without entropy =      -55.05507052  energy(sigma->0) =      -55.05507052


--------------------------------------------------------------------------------------------------------




--------------------------------------- Iteration      1(  16)  ---------------------------------------


    POTLOK:  cpu time      0.3040: real time      0.3056
    SETDIJ:  cpu time      0.1906: real time      0.1914
     EDDAV:  cpu time      0.4078: real time      0.4100
       DOS:  cpu time      0.0001: real time      0.0001
    CHARGE:  cpu time      0.1990: real time      0.1998
    MIXING:  cpu time      0.0121: real time      0.0121
    --------------------------------------------
      LOOP:  cpu time      1.1135: real time      1.1190

 eigenvalue-minimisations  :    64
 total energy-change (2. order) :-0.1484909E-02  (-0.2036449E-04)
 number of electron      22.0000000 magnetization 
 augmentation part        0.4616845 magnetization 

 Broyden mixing:
  rms(total) = 0.68255E-03    rms(broyden)= 0.68237E-03
  rms(prec ) = 0.11094E-02
  weight for this iteration     100.00

 eigenvalues of (default mixing * dielectric matrix)
  average eigenvalue GAMMA=   2.2299
  7.5227  4.2874  2.3761  2.3761  1.6092  1.3211  1.1092  1.1092  0.9167  0.9506
  0.9506

 Free energy of the ion-electron system (eV)
  ---------------------------------------------------
  alpha Z        PSCENC =         0.62641250
  Ewald energy   TEWEN  =       910.67503535
  -Hartree energ DENC   =     -1445.19057831
  -exchange      EXHF   =         0.00000000
  -V(xc)+E(xc)   XCENC  =        72.00344519
  PAW double counting   =       277.70964658     -282.93246952
  entropy T*S    EENTRO =        -0.00000000
  eigenvalues    EBANDS =      -251.46544575
  atomic energy  EATOM  =       663.51739852
  Solvation  Ediel_sol  =         0.00000000
  ---------------------------------------------------
  free energy    TOTEN  =       -55.05655543 eV

  energy without entropy =      -55.05655543  energy(sigma->0) =      -55.05655543


--------------------------------------------------------------------------------------------------------




--------------------------------------- Iteration      1(  17)  ---------------------------------------


    POTLOK:  cpu time      0.3035: real time      0.3051
    SETDIJ:  cpu time      0.1914: real time      0.1922
     EDDAV:  cpu time      0.4467: real time      0.4491
       DOS:  cpu time      0.0001: real time      0.0001
    CHARGE:  cpu time      0.1965: real time      0.1973
    MIXING:  cpu time      0.0134: real time      0.0135
    --------------------------------------------
      LOOP:  cpu time      1.1516: real time      1.1574

 eigenvalue-minimisations  :    72
 total energy-change (2. order) :-0.3564407E-03  (-0.2441564E-05)
 number of electron      22.0000000 magnetization 
 augmentation part        0.4617129 magnetization 

 Broyden mixing:
  rms(total) = 0.35009E-03    rms(broyden)= 0.35004E-03
  rms(prec ) = 0.66539E-03
  weight for this iteration     100.00

 eigenvalues of (default mixing * dielectric matrix)
  average eigenvalue GAMMA=   2.3056
  8.0253  4.7891  2.6896  2.3985  1.6609  1.6609  1.4127  1.1076  1.1076  0.9577
  0.9577  0.8990

 Free energy of the ion-electron system (eV)
  ---------------------------------------------------
  alpha Z        PSCENC =         0.62641250
  Ewald energy   TEWEN  =       910.67503535
  -Hartree energ DENC   =     -1445.14626320
  -exchange      EXHF   =         0.00000000
  -V(xc)+E(xc)   XCENC  =        72.00075807
  PAW double counting   =       277.65462462     -282.87712136
  entropy T*S    EENTRO =        -0.00000000
  eigenvalues    EBANDS =      -251.50775637
  atomic energy  EATOM  =       663.51739852
  Solvation  Ediel_sol  =         0.00000000
  ---------------------------------------------------
  free energy    TOTEN  =       -55.05691187 eV

  energy without entropy =      -55.05691187  energy(sigma->0) =      -55.05691187


--------------------------------------------------------------------------------------------------------




--------------------------------------- Iteration      1(  18)  ---------------------------------------


    POTLOK:  cpu time      0.3007: real time      0.3022
    SETDIJ:  cpu time      0.1915: real time      0.1923
     EDDAV:  cpu time      0.3637: real time      0.3657
       DOS:  cpu time      0.0002: real time      0.0002
    CHARGE:  cpu time      0.1955: real time      0.1963
    MIXING:  cpu time      0.0129: real time      0.0129
    --------------------------------------------
      LOOP:  cpu time      1.0644: real time      1.0697

 eigenvalue-minimisations  :    56
 total energy-change (2. order) :-0.3621813E-03  (-0.2199418E-05)
 number of electron      22.0000000 magnetization 
 augmentation part        0.4617091 magnetization 

 Broyden mixing:
  rms(total) = 0.20077E-03    rms(broyden)= 0.20073E-03
  rms(prec ) = 0.35825E-03
  weight for this iteration     100.00

 eigenvalues of (default mixing * dielectric matrix)
  average eigenvalue GAMMA=   2.2880
  8.4413  5.0224  3.0339  2.4121  2.0323  1.3737  1.3737  1.1151  1.1151  0.9608
  0.9608  0.9086  0.9944

 Free energy of the ion-electron system (eV)
  ---------------------------------------------------
  alpha Z        PSCENC =         0.62641250
  Ewald energy   TEWEN  =       910.67503535
  -Hartree energ DENC   =     -1445.15742002
  -exchange      EXHF   =         0.00000000
  -V(xc)+E(xc)   XCENC  =        72.00059127
  PAW double counting   =       277.64736500     -282.86991113
  entropy T*S    EENTRO =        -0.00000000
  eigenvalues    EBANDS =      -251.49674554
  atomic energy  EATOM  =       663.51739852
  Solvation  Ediel_sol  =         0.00000000
  ---------------------------------------------------
  free energy    TOTEN  =       -55.05727405 eV

  energy without entropy =      -55.05727405  energy(sigma->0) =      -55.05727405


--------------------------------------------------------------------------------------------------------




--------------------------------------- Iteration      1(  19)  ---------------------------------------


    POTLOK:  cpu time      0.2987: real time      0.3003
    SETDIJ:  cpu time      0.1926: real time      0.1934
     EDDAV:  cpu time      0.3673: real time      0.3693
       DOS:  cpu time      0.0001: real time      0.0001
    CHARGE:  cpu time      0.1970: real time      0.1978
    MIXING:  cpu time      0.0128: real time      0.0128
    --------------------------------------------
      LOOP:  cpu time      1.0684: real time      1.0736

 eigenvalue-minimisations  :    56
 total energy-change (2. order) :-0.8632496E-04  (-0.2727736E-06)
 number of electron      22.0000000 magnetization 
 augmentation part        0.4617075 magnetization 

 Broyden mixing:
  rms(total) = 0.13760E-03    rms(broyden)= 0.13754E-03
  rms(prec ) = 0.24511E-03
  weight for this iteration     100.00

 eigenvalues of (default mixing * dielectric matrix)
  average eigenvalue GAMMA=   2.3656
  8.7678  5.3981  3.3900  2.5821  2.1533  1.9551  1.3397  1.3397  1.1941  1.1941
  0.9686  0.9686  0.9015  0.9656

 Free energy of the ion-electron system (eV)
  ---------------------------------------------------
  alpha Z        PSCENC =         0.62641250
  Ewald energy   TEWEN  =       910.67503535
  -Hartree energ DENC   =     -1445.16177881
  -exchange      EXHF   =         0.00000000
  -V(xc)+E(xc)   XCENC  =        72.00062888
  PAW double counting   =       277.64634478     -282.86893272
  entropy T*S    EENTRO =        -0.00000000
  eigenvalues    EBANDS =      -251.49246887
  atomic energy  EATOM  =       663.51739852
  Solvation  Ediel_sol  =         0.00000000
  ---------------------------------------------------
  free energy    TOTEN  =       -55.05736037 eV

  energy without entropy =      -55.05736037  energy(sigma->0) =      -55.05736037


--------------------------------------------------------------------------------------------------------




--------------------------------------- Iteration      1(  20)  ---------------------------------------


    POTLOK:  cpu time      0.3023: real time      0.3039
    SETDIJ:  cpu time      0.1908: real time      0.1916
     EDDAV:  cpu time      0.4078: real time      0.4100
       DOS:  cpu time      0.0002: real time      0.0002
    CHARGE:  cpu time      0.1959: real time      0.1967
    MIXING:  cpu time      0.0133: real time      0.0134
    --------------------------------------------
      LOOP:  cpu time      1.1102: real time      1.1157

 eigenvalue-minimisations  :    64
 total energy-change (2. order) :-0.7976571E-04  (-0.2781191E-06)
 number of electron      22.0000000 magnetization 
 augmentation part        0.4617142 magnetization 

 Broyden mixing:
  rms(total) = 0.10365E-03    rms(broyden)= 0.10358E-03
  rms(prec ) = 0.15367E-03
  weight for this iteration     100.00

 eigenvalues of (default mixing * dielectric matrix)
  average eigenvalue GAMMA=   2.3206
  8.6894  5.6228  3.7354  2.5078  2.5078  1.8451  1.2074  1.2074  1.3289  1.1558
  1.1558  0.8978  0.9669  0.9669  1.0137

 Free energy of the ion-electron system (eV)
  ---------------------------------------------------
  alpha Z        PSCENC =         0.62641250
  Ewald energy   TEWEN  =       910.67503535
  -Hartree energ DENC   =     -1445.15921686
  -exchange      EXHF   =         0.00000000
  -V(xc)+E(xc)   XCENC  =        72.00028623
  PAW double counting   =       277.64264158     -282.86518406
  entropy T*S    EENTRO =        -0.00000000
  eigenvalues    EBANDS =      -251.49481341
  atomic energy  EATOM  =       663.51739852
  Solvation  Ediel_sol  =         0.00000000
  ---------------------------------------------------
  free energy    TOTEN  =       -55.05744014 eV

  energy without entropy =      -55.05744014  energy(sigma->0) =      -55.05744014


--------------------------------------------------------------------------------------------------------




--------------------------------------- Iteration      1(  21)  ---------------------------------------


    POTLOK:  cpu time      0.3066: real time      0.3082
    SETDIJ:  cpu time      0.1905: real time      0.1914
     EDDAV:  cpu time      0.3662: real time      0.3683
       DOS:  cpu time      0.0001: real time      0.0001
    CHARGE:  cpu time      0.1968: real time      0.1976
    MIXING:  cpu time      0.0133: real time      0.0133
    --------------------------------------------
      LOOP:  cpu time      1.0735: real time      1.0788

 eigenvalue-minimisations  :    56
 total energy-change (2. order) :-0.1480646E-04  (-0.4297180E-07)
 number of electron      22.0000000 magnetization 
 augmentation part        0.4617104 magnetization 

 Broyden mixing:
  rms(total) = 0.49532E-04    rms(broyden)= 0.49398E-04
  rms(prec ) = 0.81064E-04
  weight for this iteration     100.00

 eigenvalues of (default mixing * dielectric matrix)
  average eigenvalue GAMMA=   2.3843
  8.9454  5.9866  4.2254  2.9663  2.4261  1.9028  1.9028  1.2713  1.2713  1.2499
  1.0961  1.0961  1.0098  0.9085  0.9456  0.9456

 Free energy of the ion-electron system (eV)
  ---------------------------------------------------
  alpha Z        PSCENC =         0.62641250
  Ewald energy   TEWEN  =       910.67503535
  -Hartree energ DENC   =     -1445.16980159
  -exchange      EXHF   =         0.00000000
  -V(xc)+E(xc)   XCENC  =        72.00065756
  PAW double counting   =       277.64982889     -282.87240596
  entropy T*S    EENTRO =        -0.00000000
  eigenvalues    EBANDS =      -251.48458023
  atomic energy  EATOM  =       663.51739852
  Solvation  Ediel_sol  =         0.00000000
  ---------------------------------------------------
  free energy    TOTEN  =       -55.05745495 eV

  energy without entropy =      -55.05745495  energy(sigma->0) =      -55.05745495


--------------------------------------------------------------------------------------------------------




--------------------------------------- Iteration      1(  22)  ---------------------------------------


    POTLOK:  cpu time      0.3101: real time      0.3118
    SETDIJ:  cpu time      0.1905: real time      0.1913
     EDDAV:  cpu time      0.3702: real time      0.3722
       DOS:  cpu time      0.0001: real time      0.0001
    CHARGE:  cpu time      0.1945: real time      0.1953
    MIXING:  cpu time      0.0145: real time      0.0146
    --------------------------------------------
      LOOP:  cpu time      1.0800: real time      1.0852

 eigenvalue-minimisations  :    56
 total energy-change (2. order) :-0.1362038E-04  (-0.2085906E-07)
 number of electron      22.0000000 magnetization 
 augmentation part        0.4617107 magnetization 

 Broyden mixing:
  rms(total) = 0.29653E-04    rms(broyden)= 0.29430E-04
  rms(prec ) = 0.42574E-04
  weight for this iteration     100.00

 eigenvalues of (default mixing * dielectric matrix)
  average eigenvalue GAMMA=   2.3983
  9.0284  6.3097  4.5976  3.0746  2.4789  2.4789  1.8099  1.2027  1.2027  1.4154
  1.2036  1.0742  1.0742  0.9483  0.9483  0.9069  1.0176

 Free energy of the ion-electron system (eV)
  ---------------------------------------------------
  alpha Z        PSCENC =         0.62641250
  Ewald energy   TEWEN  =       910.67503535
  -Hartree energ DENC   =     -1445.16763447
  -exchange      EXHF   =         0.00000000
  -V(xc)+E(xc)   XCENC  =        72.00047578
  PAW double counting   =       277.64924076     -282.87181979
  entropy T*S    EENTRO =        -0.00000000
  eigenvalues    EBANDS =      -251.48657722
  atomic energy  EATOM  =       663.51739852
  Solvation  Ediel_sol  =         0.00000000
  ---------------------------------------------------
  free energy    TOTEN  =       -55.05746857 eV

  energy without entropy =      -55.05746857  energy(sigma->0) =      -55.05746857


--------------------------------------------------------------------------------------------------------




--------------------------------------- Iteration      1(  23)  ---------------------------------------


    POTLOK:  cpu time      0.3096: real time      0.3112
    SETDIJ:  cpu time      0.1910: real time      0.1919
     EDDAV:  cpu time      0.3652: real time      0.3672
       DOS:  cpu time      0.0001: real time      0.0001
    CHARGE:  cpu time      0.1965: real time      0.1973
    MIXING:  cpu time      0.0151: real time      0.0151
    --------------------------------------------
      LOOP:  cpu time      1.0776: real time      1.0829

 eigenvalue-minimisations  :    56
 total energy-change (2. order) :-0.3732711E-05  (-0.6002566E-08)
 number of electron      22.0000000 magnetization 
 augmentation part        0.4617113 magnetization 

 Broyden mixing:
  rms(total) = 0.21768E-04    rms(broyden)= 0.21468E-04
  rms(prec ) = 0.29367E-04
  weight for this iteration     100.00

 eigenvalues of (default mixing * dielectric matrix)
  average eigenvalue GAMMA=   2.4318
  9.0704  6.6163  4.9568  3.4380  2.5710  2.1929  2.1929  1.8573  1.2734  1.2734
  1.3060  1.1073  1.1073  0.9515  0.9515  0.9039  1.0016  1.0016

 Free energy of the ion-electron system (eV)
  ---------------------------------------------------
  alpha Z        PSCENC =         0.62641250
  Ewald energy   TEWEN  =       910.67503535
  -Hartree energ DENC   =     -1445.16793195
  -exchange      EXHF   =         0.00000000
  -V(xc)+E(xc)   XCENC  =        72.00046344
  PAW double counting   =       277.64694665     -282.86950635
  entropy T*S    EENTRO =        -0.00000000
  eigenvalues    EBANDS =      -251.48629046
  atomic energy  EATOM  =       663.51739852
  Solvation  Ediel_sol  =         0.00000000
  ---------------------------------------------------
  free energy    TOTEN  =       -55.05747230 eV

  energy without entropy =      -55.05747230  energy(sigma->0) =      -55.05747230


--------------------------------------------------------------------------------------------------------




--------------------------------------- Iteration      1(  24)  ---------------------------------------


    POTLOK:  cpu time      0.3123: real time      0.3140
    SETDIJ:  cpu time      0.1918: real time      0.1926
     EDDAV:  cpu time      0.3248: real time      0.3266
       DOS:  cpu time      0.0001: real time      0.0001
    CHARGE:  cpu time      0.1956: real time      0.1964
    MIXING:  cpu time      0.0142: real time      0.0143
    --------------------------------------------
      LOOP:  cpu time      1.0389: real time      1.0440

 eigenvalue-minimisations  :    48
 total energy-change (2. order) :-0.1771200E-05  (-0.4925539E-08)
 number of electron      22.0000000 magnetization 
 augmentation part        0.4617111 magnetization 

 Broyden mixing:
  rms(total) = 0.11562E-04    rms(broyden)= 0.10987E-04
  rms(prec ) = 0.16054E-04
  weight for this iteration     100.00

 eigenvalues of (default mixing * dielectric matrix)
  average eigenvalue GAMMA=   2.4127
  9.1278  6.7714  5.0867  3.5478  2.6337  2.5531  2.2496  1.8420  1.2512  1.2512
  1.3804  1.1636  1.0899  1.0899  0.9518  0.9518  0.9069  0.9964  0.9964

 Free energy of the ion-electron system (eV)
  ---------------------------------------------------
  alpha Z        PSCENC =         0.62641250
  Ewald energy   TEWEN  =       910.67503535
  -Hartree energ DENC   =     -1445.16866929
  -exchange      EXHF   =         0.00000000
  -V(xc)+E(xc)   XCENC  =        72.00049546
  PAW double counting   =       277.64810725     -282.87067416
  entropy T*S    EENTRO =        -0.00000000
  eigenvalues    EBANDS =      -251.48557970
  atomic energy  EATOM  =       663.51739852
  Solvation  Ediel_sol  =         0.00000000
  ---------------------------------------------------
  free energy    TOTEN  =       -55.05747407 eV

  energy without entropy =      -55.05747407  energy(sigma->0) =      -55.05747407


--------------------------------------------------------------------------------------------------------




--------------------------------------- Iteration      1(  25)  ---------------------------------------


    POTLOK:  cpu time      0.3149: real time      0.3165
    SETDIJ:  cpu time      0.1914: real time      0.1922
     EDDAV:  cpu time      0.2841: real time      0.2857
       DOS:  cpu time      0.0001: real time      0.0001
    --------------------------------------------
      LOOP:  cpu time      0.7905: real time      0.7945

 eigenvalue-minimisations  :    40
 total energy-change (2. order) :-0.7136179E-06  (-0.1446578E-08)
 number of electron      22.0000000 magnetization 
 augmentation part        0.4617111 magnetization 

 Free energy of the ion-electron system (eV)
  ---------------------------------------------------
  alpha Z        PSCENC =         0.62641250
  Ewald energy   TEWEN  =       910.67503535
  -Hartree energ DENC   =     -1445.16866973
  -exchange      EXHF   =         0.00000000
  -V(xc)+E(xc)   XCENC  =        72.00048936
  PAW double counting   =       277.64777209     -282.87033992
  entropy T*S    EENTRO =        -0.00000000
  eigenvalues    EBANDS =      -251.48557297
  atomic energy  EATOM  =       663.51739852
  Solvation  Ediel_sol  =         0.00000000
  ---------------------------------------------------
  free energy    TOTEN  =       -55.05747478 eV

  energy without entropy =      -55.05747478  energy(sigma->0) =      -55.05747478


--------------------------------------------------------------------------------------------------------




 average (electrostatic) potential at core
  the test charge radii are     0.6991  0.5201
  (the norm of the test charge is              1.0000)
       1 -58.6653       2 -58.8912       3 -58.9479       4 -58.6998       5 -41.3594
       6 -41.9098       7 -42.0174       8 -42.0440       9 -42.1275      10 -41.5547
 
 
 
 E-fermi :  -5.6308     XC(G=0):  -0.4399     alpha+bet : -0.1681

 Fermi energy:        -5.6308447450

 k-point     1 :       0.0000    0.0000    0.0000
  band No.  band energies     occupation 
      1     -19.8975      2.00000
      2     -16.9423      2.00000
      3     -14.8804      2.00000
      4     -12.9056      2.00000
      5     -11.6130      2.00000
      6     -10.4125      2.00000
      7      -9.7827      2.00000
      8      -9.3966      2.00000
      9      -7.8466      2.00000
     10      -6.1774      2.00000
     11      -5.8881      2.00000
     12      -1.8526      0.00000
     13      -0.7572      0.00000
     14      -0.3069      0.00000
     15       0.0529      0.00000
     16       0.2018      0.00000
     17       0.4014      0.00000
     18       0.4218      0.00000
     19       0.5593      0.00000
     20       0.6511      0.00000
     21       0.8448      0.00000
     22       0.9401      0.00000
     23       1.0035      0.00000
     24       1.0861      0.00000


--------------------------------------------------------------------------------------------------------


 soft charge-density along one line, spin component           1
         0         1         2         3         4         5         6         7         8         9
 total charge-density along one line
 
 pseudopotential strength for first ion, spin component:           1
 10.253   0.020  -0.002  -0.002   0.000  -0.001  -0.001   0.000
  0.020  -0.001   0.000   0.000  -0.000  -0.000  -0.000   0.000
 -0.002   0.000  -4.370  -0.004   0.008  -0.014  -0.001   0.002
 -0.002   0.000  -0.004  -4.370  -0.002  -0.001  -0.014  -0.001
  0.000  -0.000   0.008  -0.002  -4.369   0.002  -0.001  -0.014
 -0.001  -0.000  -0.014  -0.001   0.002  -0.773  -0.000   0.000
 -0.001  -0.000  -0.001  -0.014  -0.001  -0.000  -0.773  -0.000
  0.000   0.000   0.002  -0.001  -0.014   0.000  -0.000  -0.773
 total augmentation occupancy for first ion, spin component:           1
  1.500  -0.980   0.030   0.034  -0.009   0.022  -0.003  -0.002
 -0.980   0.788  -0.100   0.043   0.005  -0.038  -0.003   0.014
  0.030  -0.100   1.034   0.102  -0.133   0.155   0.029  -0.057
  0.034   0.043   0.102   1.092   0.053   0.028   0.157   0.022
 -0.009   0.005  -0.133   0.053   1.082  -0.056   0.022   0.156
  0.022  -0.038   0.155   0.028  -0.056   0.027   0.006  -0.014
 -0.003  -0.003   0.029   0.157   0.022   0.006   0.025   0.004
 -0.002   0.014  -0.057   0.022   0.156  -0.014   0.004   0.026


------------------------ aborting loop because EDIFF is reached ----------------------------------------


    CHARGE:  cpu time      0.1919: real time      0.1927
    FORLOC:  cpu time      0.0347: real time      0.0348
    FORNL :  cpu time      1.0722: real time      1.0772
    STRESS:  cpu time      3.3981: real time      3.4142
    FORHAR:  cpu time      0.1094: real time      0.1099
    MIXING:  cpu time      0.0119: real time      0.0120
    OFIELD:  cpu time      0.0001: real time      0.0001

  FORCE on cell =-STRESS in cart. coord.  units (eV):
  Direction    XX          YY          ZZ          XY          YZ          ZX
  --------------------------------------------------------------------------------------
  Alpha Z     0.62641     0.62641     0.62641
  Ewald      -9.80434   368.46968   552.00937  -171.20949     4.10270    13.26827
  Hartree   295.70052   492.97757   656.49034   -88.16836    -7.77779   -21.18231
  E(xc)     -76.30485   -75.24663   -74.93124    -0.49913     0.11542     0.34148
  Local    -497.08292 -1054.38142 -1403.32076   251.37427     7.05070    16.41345
  n-local   -27.20788   -27.84482   -28.80127     0.28579    -0.48833    -0.79380
  augment    -0.46796    -0.53805    -0.51702     0.02883    -0.01715    -0.04298
  Kinetic   312.02269   287.58829   297.46506    10.79054    -2.64617   -11.18172
  Fock        0.00000     0.00000     0.00000     0.00000     0.00000     0.00000
  -------------------------------------------------------------------------------------
  Total      -2.51835    -8.34896    -0.97910     2.60245     0.33937    -3.17762
  in kB      -1.19551    -3.96341    -0.46480     1.23543     0.16111    -1.50848
  external pressure =       -1.87 kB  Pullay stress =        0.00 kB


 VOLUME and BASIS-vectors are now :
 -----------------------------------------------------------------------------
  energy-cutoff  :      520.00
  volume of cell :     3375.00
      direct lattice vectors                 reciprocal lattice vectors
    15.000000000  0.000000000  0.000000000     0.066666667  0.000000000  0.000000000
     0.000000000 15.000000000  0.000000000     0.000000000  0.066666667  0.000000000
     0.000000000  0.000000000 15.000000000     0.000000000  0.000000000  0.066666667

  length of vectors
    15.000000000 15.000000000 15.000000000     0.066666667  0.066666667  0.066666667


 FORCES acting on ions
    electron-ion (+dipol)            ewald-force                    non-local-force                 convergence-correction
 -----------------------------------------------------------------------------------------------
   -.669E+02 0.876E+02 0.959E+02   0.670E+02 -.870E+02 -.969E+02   -.562E-01 0.863E+00 -.248E+01   0.153E-04 -.565E-04 0.497E-04
   0.577E+02 -.115E+03 0.871E+02   -.575E+02 0.115E+03 -.867E+02   0.405E+00 -.223E+01 0.196E+01   -.335E-04 0.140E-04 0.126E-03
   0.330E+02 -.121E+03 -.839E+02   -.330E+02 0.121E+03 0.839E+02   0.145E+00 -.148E+01 -.221E+01   0.304E-04 -.685E-04 0.224E-04
   0.468E+01 0.100E+03 -.109E+03   -.569E+01 -.999E+02 0.110E+03   0.106E+01 0.211E+01 0.153E+01   0.178E-04 0.613E-04 -.700E-04
   -.246E+01 0.276E+02 0.613E+02   0.219E+01 -.293E+02 -.653E+02   0.353E+00 0.177E+01 0.476E+01   -.188E-06 -.107E-04 -.276E-05
   -.614E+02 0.278E+02 -.883E+01   0.651E+02 -.291E+02 0.112E+02   -.453E+01 0.179E+01 -.258E+01   0.491E-05 -.631E-05 0.169E-04
   0.422E+02 -.337E+02 0.425E+02   -.447E+02 0.355E+02 -.449E+02   0.342E+01 -.224E+01 0.319E+01   -.120E-04 0.385E-05 0.205E-05
   -.555E+01 -.588E+02 -.355E+02   0.605E+01 0.622E+02 0.379E+02   -.739E+00 -.461E+01 -.244E+01   0.131E-06 -.321E-04 -.214E-04
   0.210E+02 0.637E+02 0.106E+02   -.228E+02 -.680E+02 -.136E+02   0.153E+01 0.462E+01 0.328E+01   0.124E-04 0.279E-04 0.113E-04
   -.218E+02 0.197E+02 -.604E+02   0.234E+02 -.206E+02 0.645E+02   -.209E+01 0.949E+00 -.467E+01   -.595E-05 0.521E-05 -.373E-04
 -----------------------------------------------------------------------------------------------
   0.504E+00 -.153E+01 -.329E+00   -.107E-13 0.178E-13 0.284E-13   -.500E+00 0.153E+01 0.334E+00   0.294E-04 -.618E-04 0.964E-04
 
 
 POSITION                                       TOTAL-FORCE (eV/Angst)
 -----------------------------------------------------------------------------------
      7.92200      7.12500      6.41900         0.022469      1.482289     -3.486982
      7.14900      8.25000      6.71500         0.665211     -1.753705      2.375280
      7.21600      8.30600      8.27400         0.085516     -1.645682     -2.291851
      7.36700      6.96100      8.67700         0.051567      2.650911      2.519511
      7.84700      6.72000      5.36600         0.087333      0.120849      0.778173
      8.82500      6.76300      6.95700        -0.841923      0.502652     -0.242236
      6.40800      8.74500      6.01900         0.952619     -0.439148      0.776514
      7.37000      9.27800      8.81900        -0.238152     -1.231013     -0.091288
      7.08600      6.10600      8.06400        -0.252023      0.280195      0.271077
      7.81000      6.74500      9.68800        -0.532616      0.032652     -0.608198
 -----------------------------------------------------------------------------------
    total drift:                                0.003846      0.001876      0.005258


--------------------------------------------------------------------------------------------------------



  FREE ENERGIE OF THE ION-ELECTRON SYSTEM (eV)
  ---------------------------------------------------
  free  energy   TOTEN  =       -55.05747478 eV

  energy  without entropy=      -55.05747478  energy(sigma->0) =      -55.05747478
 


--------------------------------------------------------------------------------------------------------


    POTLOK:  cpu time      0.5081: real time      0.5106


--------------------------------------------------------------------------------------------------------


 stress matrix after NEB project (eV)
     -2.51835      2.60245     -3.17762
      2.60245     -8.34896      0.33937
     -3.17763      0.33937     -0.97910
  FORCES: max atom, RMS     3.789028    2.250880
  FORCE total and by dimension    7.117909    3.486982
  Stress total and by dimension   10.534527    8.348959
     LOOP+:  cpu time     30.2129: real time     30.3628
    4ORBIT:  cpu time      0.0000: real time      0.0000

 total amount of memory used by VASP MPI-rank0   224782. kBytes
=======================================================================

   base      :      30000. kBytes
   nonlr-proj:       1258. kBytes
   fftplans  :     123538. kBytes
   grid      :      67787. kBytes
   one-center:         15. kBytes
   wavefun   :       2184. kBytes
 
  
  
 General timing and accounting informations for this job:
 ========================================================
  
                  Total CPU time used (sec):       36.802
                            User time (sec):       33.603
                          System time (sec):        3.199
                         Elapsed time (sec):       37.812
  
                   Maximum memory used (kb):      558380.
                   Average memory used (kb):          N/A
  
                          Minor page faults:       170155
                          Major page faults:         5438
                 Voluntary context switches:         3099
