 vasp.6.4.2 20Jul23 (build Apr 10 2024 13:39:58) complex                        
  
 executed on             LinuxIFC date 2024.05.18  21:55:15
 running   16 mpi-ranks, on    1 nodes
 distrk:  each k-point on   16 cores,    1 groups
 distr:  one band on NCORE=   2 cores,    8 groups


--------------------------------------------------------------------------------------------------------


 INCAR:
   ISTART = 0
   ISPIN = 1
   LREAL = Auto
   ENCUT = 520
   NPAR = 8
   LPLANE = .TRUE.
   LSCALU = .FALSE.
   NSIM = 4
   LWAVE = .FALSE.
   LCHARG = .FALSE.
   ADDGRID = .TRUE.
   LASPH = .TRUE.
   PREC = Accurate
   ISMEAR = 0
   SIGMA = 0.05
   EDIFF = 1E-06
   NSW = 0
   TEBEG = 300
   TEEND = 700     	
   ISYM = 0
   NWRITE = 2

 POTCAR:   PAW_PBE C 08Apr2002                    
 POTCAR:   PAW_PBE H 15Jun2001                    
 POTCAR:   PAW_PBE C 08Apr2002                    
   VRHFIN =C: s2p2                                                                                  
   LEXCH  = PE                                                                                      
   EATOM  =   147.1560 eV,   10.8157 Ry                                                             
                                                                                                    
   TITEL  = PAW_PBE C 08Apr2002                                                                     
   LULTRA =        F    use ultrasoft PP ?                                                          
   IUNSCR =        0    unscreen: 0-lin 1-nonlin 2-no                                               
   RPACOR =     .000    partial core radius                                                         
   POMASS =   12.011; ZVAL   =    4.000    mass and valenz                                          
   RCORE  =    1.500    outmost cutoff radius                                                       
   RWIGS  =    1.630; RWIGS  =     .863    wigner-seitz radius (au A)                               
   ENMAX  =  400.000; ENMIN  =  300.000 eV                                                          
   ICORE  =        2    local potential                                                             
   LCOR   =        T    correct aug charges                                                         
   LPAW   =        T    paw PP                                                                      
   EAUG   =  644.873                                                                                
   DEXC   =     .000                                                                                
   RMAX   =    2.266    core radius for proj-oper                                                   
   RAUG   =    1.300    factor for augmentation sphere                                              
   RDEP   =    1.501    radius for radial grids                                                     
   RDEPT  =    1.300    core radius for aug-charge                                                  
   QCUT   =   -5.516; QGAM   =   11.032    optimization parameters                                  
                                                                                                    
   Description                                                                                      
     l     E      TYP  RCUT    TYP  RCUT                                                            
     0   .000     23  1.200                                                                         
     0   .000     23  1.200                                                                         
     1   .000     23  1.500                                                                         
     1  2.500     23  1.500                                                                         
     2   .000      7  1.500                                                                         
  local pseudopotential read in
  atomic valenz-charges read in
  non local Contribution for L=           0  read in
    real space projection operators read in
  non local Contribution for L=           0  read in
    real space projection operators read in
  non local Contribution for L=           1  read in
    real space projection operators read in
  non local Contribution for L=           1  read in
    real space projection operators read in
    PAW grid and wavefunctions read in
 
   number of l-projection  operators is LMAX  =           4
   number of lm-projection operators is LMMAX =           8
 
 POTCAR:   PAW_PBE H 15Jun2001                    
   VRHFIN =H: ultrasoft test                                                                        
   LEXCH  = PE                                                                                      
   EATOM  =    12.4884 eV,     .9179 Ry                                                             
                                                                                                    
   TITEL  = PAW_PBE H 15Jun2001                                                                     
   LULTRA =        F    use ultrasoft PP ?                                                          
   IUNSCR =        0    unscreen: 0-lin 1-nonlin 2-no                                               
   RPACOR =     .000    partial core radius                                                         
   POMASS =    1.000; ZVAL   =    1.000    mass and valenz                                          
   RCORE  =    1.100    outmost cutoff radius                                                       
   RWIGS  =     .700; RWIGS  =     .370    wigner-seitz radius (au A)                               
   ENMAX  =  250.000; ENMIN  =  200.000 eV                                                          
   RCLOC  =     .701    cutoff for local pot                                                        
   LCOR   =        T    correct aug charges                                                         
   LPAW   =        T    paw PP                                                                      
   EAUG   =  400.000                                                                                
   RMAX   =    2.174    core radius for proj-oper                                                   
   RAUG   =    1.200    factor for augmentation sphere                                              
   RDEP   =    1.112    radius for radial grids                                                     
   QCUT   =   -5.749; QGAM   =   11.498    optimization parameters                                  
                                                                                                    
   Description                                                                                      
     l     E      TYP  RCUT    TYP  RCUT                                                            
     0   .000     23  1.100                                                                         
     0   .500     23  1.100                                                                         
     1  -.300     23  1.100                                                                         
  local pseudopotential read in
  atomic valenz-charges read in
  non local Contribution for L=           0  read in
    real space projection operators read in
  non local Contribution for L=           0  read in
    real space projection operators read in
  non local Contribution for L=           1  read in
    real space projection operators read in
    PAW grid and wavefunctions read in
 
   number of l-projection  operators is LMAX  =           3
   number of lm-projection operators is LMMAX =           5
 
 Optimization of the real space projectors (new method)

 maximal supplied QI-value         = 25.13
 optimisation between [QCUT,QGAM] = [ 11.56, 23.12] = [ 37.43,149.72] Ry 
 Optimized for a Real-space Cutoff    1.04 Angstroem

   l    n(q)    QCUT    max X(q) W(low)/X(q) W(high)/X(q)  e(spline) 
   0      7    11.561     5.582    0.47E-04    0.94E-04    0.17E-07
   0      7    11.561    69.432    0.20E-03    0.59E-03    0.21E-06
   1      7    11.561     2.780    0.24E-04    0.70E-04    0.44E-07
   1      7    11.561     4.549    0.18E-03    0.25E-03    0.12E-06
 Optimization of the real space projectors (new method)

 maximal supplied QI-value         = 34.20
 optimisation between [QCUT,QGAM] = [ 11.63, 23.26] = [ 37.87,151.49] Ry 
 Optimized for a Real-space Cutoff    1.21 Angstroem

   l    n(q)    QCUT    max X(q) W(low)/X(q) W(high)/X(q)  e(spline) 
   0      8    11.629     4.436    0.19E-04    0.32E-04    0.47E-07
   0      8    11.629    16.131    0.16E-03    0.33E-03    0.21E-06
   1      8    11.629     4.654    0.18E-03    0.16E-03    0.26E-06
 PAW_PBE C 08Apr2002                    :
 energy of atom  1       EATOM= -147.1560
 kinetic energy error for atom=    0.0071 (will be added to EATOM!!)
 PAW_PBE H 15Jun2001                    :
 energy of atom  2       EATOM=  -12.4884
 kinetic energy error for atom=    0.0014 (will be added to EATOM!!)
 
 
 POSCAR:  C  H
  positions in cartesian coordinates
  No initial velocities read in
 exchange correlation table for  LEXCH =        8
   RHO(1)=    0.500       N(1)  =     2000
   RHO(2)=  100.500       N(2)  =     4000

 VTST: version 4.1, (05/19/21)

 CHAIN: initializing optimizer
 
 OPT: Using VASP Dynamics algorithm
 CHAIN: Read ICHAIN            0
 
 POSCAR:  C  H
  positions in cartesian coordinates
  No initial velocities read in
 


--------------------------------------------------------------------------------------------------------


 ion  position               nearest neighbor table
   1  0.531  0.536  0.453-   6 1.04   5 1.04   2 1.54   4 1.60
   2  0.474  0.451  0.449-   7 1.08   3 1.38   1 1.54
   3  0.459  0.446  0.540-   8 1.08   2 1.38   4 1.54
   4  0.514  0.531  0.559-   9 1.07  10 1.07   3 1.54   1 1.60
   5  0.595  0.522  0.430-   1 1.04
   6  0.497  0.586  0.420-   1 1.04
   7  0.451  0.411  0.394-   2 1.08
   8  0.423  0.400  0.582-   3 1.08
   9  0.577  0.527  0.593-   4 1.07
  10  0.478  0.589  0.580-   4 1.07
 

IMPORTANT INFORMATION: All symmetrisations will be switched off!
NOSYMM: (Re-)initialisation of all symmetry stuff for point group C_1.


----------------------------------------------------------------------------------------

                                     Primitive cell                                     

  volume of cell :    3375.0000

  direct lattice vectors                    reciprocal lattice vectors
    15.000000000  0.000000000  0.000000000     0.066666667  0.000000000  0.000000000
     0.000000000 15.000000000  0.000000000     0.000000000  0.066666667  0.000000000
     0.000000000  0.000000000 15.000000000     0.000000000  0.000000000  0.066666667

  length of vectors
    15.000000000 15.000000000 15.000000000     0.066666667  0.066666667  0.066666667

  position of ions in fractional coordinates (direct lattice)
     0.531199996  0.536066691  0.453400008
     0.473600006  0.451466656  0.448933347
     0.459399986  0.446400007  0.540000025
     0.514333344  0.531266658  0.558799998
     0.594933319  0.522399998  0.430133343
     0.497266674  0.586200015  0.420133336
     0.451200008  0.410666656  0.394266669
     0.423066680  0.399800014  0.581599998
     0.576666641  0.526733335  0.592800013
     0.478333346  0.589066696  0.579933357

  ion indices of the primitive-cell ions
   primitive index   ion index
                 1           1
                 2           2
                 3           3
                 4           4
                 5           5
                 6           6
                 7           7
                 8           8
                 9           9
                10          10

----------------------------------------------------------------------------------------

 
 
 KPOINTS: K-Spacing Value to Generate K-Mesh: 1.00

Automatic generation of k-mesh.
 Grid dimensions read from file:
 generate k-points for:    1    1    1

 Generating k-lattice:

  Cartesian coordinates                     Fractional coordinates (reciprocal lattice)
     0.066666667  0.000000000  0.000000000     1.000000000  0.000000000  0.000000000
     0.000000000  0.066666667  0.000000000     0.000000000  1.000000000  0.000000000
     0.000000000  0.000000000  0.066666667     0.000000000  0.000000000  1.000000000

  Length of vectors
     0.066666667  0.066666667  0.066666667

  Shift w.r.t. Gamma in fractional coordinates (k-lattice)
     0.000000000  0.000000000  0.000000000

 
 Subroutine IBZKPT returns following result:
 ===========================================
 
 Found      1 irreducible k-points:
 
 Following reciprocal coordinates:
            Coordinates               Weight
  0.000000  0.000000  0.000000      1.000000
 
 Following cartesian coordinates:
            Coordinates               Weight
  0.000000  0.000000  0.000000      1.000000
 


--------------------------------------------------------------------------------------------------------




 Dimension of arrays:
   k-points           NKPTS =      1   k-points in BZ     NKDIM =      1   number of bands    NBANDS=     24
   number of dos      NEDOS =    301   number of ions     NIONS =     10
   non local maximal  LDIM  =      4   non local SUM 2l+1 LMDIM =      8
   total plane-waves  NPLWV = ******
   max r-space proj   IRMAX =   3145   max aug-charges    IRDMAX=  39494
   dimension x,y,z NGX =   112 NGY =  112 NGZ =  112
   dimension x,y,z NGXF=   224 NGYF=  224 NGZF=  224
   support grid    NGXF=   448 NGYF=  448 NGZF=  448
   ions per type =               4   6
   NGX,Y,Z   is equivalent  to a cutoff of  12.41, 12.41, 12.41 a.u.
   NGXF,Y,Z  is equivalent  to a cutoff of  24.83, 24.83, 24.83 a.u.

 SYSTEM =  unknown system                          
 POSCAR =   C  H                                   

 Startparameter for this run:
   NWRITE =      2    write-flag & timer
   PREC   = accura    normal or accurate (medium, high low for compatibility)
   ISTART =      0    job   : 0-new  1-cont  2-samecut
   ICHARG =      2    charge: 1-file 2-atom 10-const
   ISPIN  =      1    spin polarized calculation?
   LNONCOLLINEAR =      F non collinear calculations
   LSORBIT =      F    spin-orbit coupling
   INIWAV =      1    electr: 0-lowe 1-rand  2-diag
   LASPH  =      T    aspherical Exc in radial PAW
 Electronic Relaxation 1
   ENCUT  =  520.0 eV  38.22 Ry    6.18 a.u.  27.89 27.89 27.89*2*pi/ulx,y,z
   ENINI  =  520.0     initial cutoff
   ENAUG  =  644.9 eV  augmentation charge cutoff
   NELM   =     60;   NELMIN=  2; NELMDL= -5     # of ELM steps 
   EDIFF  = 0.1E-05   stopping-criterion for ELM
   LREAL  =      T    real-space projection
   NLSPLINE    = F    spline interpolate recip. space projectors
   LCOMPAT=      F    compatible to vasp.4.4
   GGA_COMPAT  = T    GGA compatible to vasp.4.4-vasp.4.6
   LMAXPAW     = -100 max onsite density
   LMAXMIX     =    2 max onsite mixed and CHGCAR
   VOSKOWN=      0    Vosko Wilk Nusair interpolation
   ROPT   =   -0.00025  -0.00025
 Ionic relaxation
   EDIFFG = 0.1E-04   stopping-criterion for IOM
   NSW    =      0    number of steps for IOM
   NBLOCK =      1;   KBLOCK =      1    inner block; outer block 
   IBRION =     -1    ionic relax: 0-MD 1-quasi-New 2-CG
   NFREE  =      0    steps in history (QN), initial steepest desc. (CG)
   ISIF   =      2    stress and relaxation
   IWAVPR =     10    prediction:  0-non 1-charg 2-wave 3-comb
   ISYM   =      0    0-nonsym 1-usesym 2-fastsym
   LCORR  =      T    Harris-Foulkes like correction to forces

   POTIM  = 0.5000    time-step for ionic-motion
   TEIN   =    0.0    initial temperature
   TEBEG  =  300.0;   TEEND  = 700.0 temperature during run
   SMASS  =  -3.00    Nose mass-parameter (am)
   estimated Nose-frequenzy (Omega)   =  0.10E-29 period in steps = 0.13E+47 mass=  -0.514E-26a.u.
   SCALEE = 1.0000    scale energy and forces
   NPACO  =    256;   APACO  = 10.0  distance and # of slots for P.C.
   PSTRESS=    0.0 pullay stress

  Mass of Ions in am
   POMASS =  12.01  1.00
  Ionic Valenz
   ZVAL   =   4.00  1.00
  Atomic Wigner-Seitz radii
   RWIGS  =  -1.00 -1.00
  virtual crystal weights 
   VCA    =   1.00  1.00
   NELECT =      22.0000    total number of electrons
   NUPDOWN=      -1.0000    fix difference up-down

 DOS related values:
   EMIN   =  10.00;   EMAX   =-10.00  energy-range for DOS
   EFERMI =   0.00;   METHOD = LEGACY      
   ISMEAR =     0;   SIGMA  =   0.05  broadening in eV -4-tet -1-fermi 0-gaus

 Electronic relaxation 2 (details)
   IALGO  =     38    algorithm
   LDIAG  =      T    sub-space diagonalisation (order eigenvalues)
   LSUBROT=      F    optimize rotation matrix (better conditioning)
   TURBO    =      0    0=normal 1=particle mesh
   IRESTART =      0    0=no restart 2=restart with 2 vectors
   NREBOOT  =      0    no. of reboots
   NMIN     =      0    reboot dimension
   EREF     =   0.00    reference energy to select bands
   IMIX   =      4    mixing-type and parameters
     AMIX     =   0.40;   BMIX     =  1.00
     AMIX_MAG =   1.60;   BMIX_MAG =  1.00
     AMIN     =   0.10
     WC   =   100.;   INIMIX=   1;  MIXPRE=   1;  MAXMIX= -45

 Intra band minimization:
   WEIMIN = 0.0000     energy-eigenvalue tresh-hold
   EBREAK =  0.10E-07  absolut break condition
   DEPER  =   0.30     relativ break condition  

   TIME   =   0.40     timestep for ELM

  volume/ion in A,a.u.               =     337.50      2277.56
  Fermi-wavevector in a.u.,A,eV,Ry     =   0.305814  0.577905  1.272449  0.093522
  Thomas-Fermi vector in A             =   1.179187
 
 Write flags
   LWAVE        =      F    write WAVECAR
   LDOWNSAMPLE  =      F    k-point downsampling of WAVECAR
   LCHARG       =      F    write CHGCAR
   LVTOT        =      F    write LOCPOT, total local potential
   LVHAR        =      F    write LOCPOT, Hartree potential only
   LELF         =      F    write electronic localiz. function (ELF)
   LORBIT       =      0    0 simple, 1 ext, 2 COOP (PROOUT), +10 PAW based schemes


 Dipole corrections
   LMONO  =      F    monopole corrections only (constant potential shift)
   LDIPOL =      F    correct potential (dipole corrections)
   IDIPOL =      0    1-x, 2-y, 3-z, 4-all directions 
   EPSILON=  1.0000000 bulk dielectric constant

 Exchange correlation treatment:
   GGA     =    --    GGA type
   LEXCH   =     8    internal setting for exchange type
   LIBXC   =     F    Libxc                    
   VOSKOWN =     0    Vosko Wilk Nusair interpolation
   LHFCALC =     F    Hartree Fock is set to
   LHFONE  =     F    Hartree Fock one center treatment
   AEXX    =    0.0000 exact exchange contribution

 Linear response parameters
   LEPSILON=     F    determine dielectric tensor
   LRPA    =     F    only Hartree local field effects (RPA)
   LNABLA  =     F    use nabla operator in PAW spheres
   LVEL    =     F    velocity operator in full k-point grid
   CSHIFT  =0.1000    complex shift for real part using Kramers Kronig
   OMEGAMAX=  -1.0    maximum frequency
   DEG_THRESHOLD= 0.2000000E-02 threshold for treating states as degnerate
   RTIME   =   -0.100 relaxation time in fs
  (WPLASMAI=    0.000 imaginary part of plasma frequency in eV, 0.658/RTIME)
   DFIELD  = 0.0000000 0.0000000 0.0000000 field for delta impulse in time
 
  Optional k-point grid parameters
   LKPOINTS_OPT  =     F    use optional k-point grid
   KPOINTS_OPT_MODE=     1    mode for optional k-point grid
 
 Orbital magnetization related:
   ORBITALMAG=     F  switch on orbital magnetization
   LCHIMAG   =     F  perturbation theory with respect to B field
   DQ        =  0.001000  dq finite difference perturbation B field
   LLRAUG    =     F  two centre corrections for induced B field
   LBONE     =     F  B-component reconstruction in AE one-centre
   LVGVCALC  =     T  calculate vGv susceptibility
   LVGVAPPL  =     F  apply vGv susceptibility instead of pGv for G=0

 Random number generation:
   RANDOM_GENERATOR = DEFAULT
   PCG_SEED         = not used


--------------------------------------------------------------------------------------------------------


 Static calculation
 charge density and potential will be updated during run
 non-spin polarized calculation
 Variant of blocked Davidson
 Davidson routine will perform the subspace rotation
 perform sub-space diagonalisation
    after iterative eigenvector-optimisation
 modified Broyden-mixing scheme, WC =      100.0
 initial mixing is a Kerker type mixing with AMIX =  0.4000 and BMIX =      1.0000
 Hartree-type preconditioning will be used
 using additional bands           13
 real space projection scheme for non local part
 calculate Harris-corrections to forces 
   (improved forces if not selfconsistent)
 use gradient corrections 
 use of overlap-Matrix (Vanderbilt PP)
 Gauss-broadening in eV      SIGMA  =   0.05


--------------------------------------------------------------------------------------------------------


  energy-cutoff  :      520.00
  volume of cell :     3375.00
      direct lattice vectors                 reciprocal lattice vectors
    15.000000000  0.000000000  0.000000000     0.066666667  0.000000000  0.000000000
     0.000000000 15.000000000  0.000000000     0.000000000  0.066666667  0.000000000
     0.000000000  0.000000000 15.000000000     0.000000000  0.000000000  0.066666667

  length of vectors
    15.000000000 15.000000000 15.000000000     0.066666667  0.066666667  0.066666667


 
 k-points in units of 2pi/SCALE and weight: K-Spacing Value to Generate K-Mesh: 1.00
   0.00000000  0.00000000  0.00000000       1.000
 
 k-points in reciprocal lattice and weights: K-Spacing Value to Generate K-Mesh: 1.00
   0.00000000  0.00000000  0.00000000       1.000
 
 position of ions in fractional coordinates (direct lattice) 
   0.53120000  0.53606669  0.45340001
   0.47360001  0.45146666  0.44893335
   0.45939999  0.44640001  0.54000003
   0.51433334  0.53126666  0.55880000
   0.59493332  0.52240000  0.43013334
   0.49726667  0.58620001  0.42013334
   0.45120001  0.41066666  0.39426667
   0.42306668  0.39980001  0.58160000
   0.57666664  0.52673333  0.59280001
   0.47833335  0.58906670  0.57993336
 
 position of ions in cartesian coordinates  (Angst):
   7.96799994  8.04100037  6.80100012
   7.10400009  6.77199984  6.73400021
   6.89099979  6.69600010  8.10000038
   7.71500015  7.96899986  8.38199997
   8.92399979  7.83599997  6.45200014
   7.45900011  8.79300022  6.30200005
   6.76800013  6.15999985  5.91400003
   6.34600019  5.99700022  8.72399998
   8.64999962  7.90100002  8.89200020
   7.17500019  8.83600044  8.69900036
 


--------------------------------------------------------------------------------------------------------


 k-point   1 :   0.0000 0.0000 0.0000  plane waves:   90879

 maximum and minimum number of plane-waves per node :     45467    45412

 maximum number of plane-waves:     90879
 maximum index in each direction: 
   IXMAX=   27   IYMAX=   27   IZMAX=   27
   IXMIN=  -27   IYMIN=  -27   IZMIN=  -27


 real space projection operators:
  total allocation   :       1184.46 KBytes
  max/ min on nodes  :        592.50        591.96


 parallel 3D FFT for wavefunctions:
    minimum data exchange during FFTs selected (reduces bandwidth)
 parallel 3D FFT for charge:
    minimum data exchange during FFTs selected (reduces bandwidth)


 total amount of memory used by VASP MPI-rank0   224781. kBytes
=======================================================================

   base      :      30000. kBytes
   nonlr-proj:       1257. kBytes
   fftplans  :     123538. kBytes
   grid      :      67787. kBytes
   one-center:         15. kBytes
   wavefun   :       2184. kBytes
 
     INWAV:  cpu time      0.0000: real time      0.0000
 Broyden mixing: mesh for mixing (old mesh)
   NGX = 55   NGY = 55   NGZ = 55
  (NGX  =224   NGY  =224   NGZ  =224)
  gives a total of 166375 points

 initial charge density was supplied:
 charge density of overlapping atoms calculated
 number of electron      22.0000000 magnetization 
 keeping initial charge density in first step


--------------------------------------------------------------------------------------------------------


 Maximum index for non-local projection operator         1502
 Maximum index for augmentation-charges         2459 (set IRDMAX)


--------------------------------------------------------------------------------------------------------


 First call to EWALD:  gamma=   0.118
 Maximum number of real-space cells 3x 3x 3
 Maximum number of reciprocal cells 3x 3x 3

    FEWALD:  cpu time      0.0012: real time      0.0012


--------------------------------------- Ionic step        1  -------------------------------------------




--------------------------------------- Iteration      1(   1)  ---------------------------------------


    POTLOK:  cpu time      0.3337: real time      0.3357
    SETDIJ:  cpu time      0.1956: real time      0.1965
     EDDAV:  cpu time      0.4195: real time      0.4218
       DOS:  cpu time      0.0002: real time      0.0002
    --------------------------------------------
      LOOP:  cpu time      0.9491: real time      0.9542

 eigenvalue-minimisations  :    64
 total energy-change (2. order) : 0.9854287E+02  (-0.5407630E+03)
 number of electron      22.0000000 magnetization 
 augmentation part       22.0000000 magnetization 

 Free energy of the ion-electron system (eV)
  ---------------------------------------------------
  alpha Z        PSCENC =         0.62641250
  Ewald energy   TEWEN  =      1000.72979231
  -Hartree energ DENC   =     -1420.11980986
  -exchange      EXHF   =         0.00000000
  -V(xc)+E(xc)   XCENC  =        68.01136593
  PAW double counting   =       156.01372664     -160.66969168
  entropy T*S    EENTRO =        -0.00004844
  eigenvalues    EBANDS =      -209.56627981
  atomic energy  EATOM  =       663.51739852
  Solvation  Ediel_sol  =         0.00000000
  ---------------------------------------------------
  free energy    TOTEN  =        98.54286612 eV

  energy without entropy =       98.54291456  energy(sigma->0) =       98.54289034


--------------------------------------------------------------------------------------------------------




--------------------------------------- Iteration      1(   2)  ---------------------------------------


     EDDAV:  cpu time      0.4861: real time      0.4888
       DOS:  cpu time      0.0001: real time      0.0001
    --------------------------------------------
      LOOP:  cpu time      0.4862: real time      0.4889

 eigenvalue-minimisations  :    80
 total energy-change (2. order) :-0.1168721E+03  (-0.1129228E+03)
 number of electron      22.0000000 magnetization 
 augmentation part       22.0000000 magnetization 

 Free energy of the ion-electron system (eV)
  ---------------------------------------------------
  alpha Z        PSCENC =         0.62641250
  Ewald energy   TEWEN  =      1000.72979231
  -Hartree energ DENC   =     -1420.11980986
  -exchange      EXHF   =         0.00000000
  -V(xc)+E(xc)   XCENC  =        68.01136593
  PAW double counting   =       156.01372664     -160.66969168
  entropy T*S    EENTRO =        -0.00000000
  eigenvalues    EBANDS =      -326.43847731
  atomic energy  EATOM  =       663.51739852
  Solvation  Ediel_sol  =         0.00000000
  ---------------------------------------------------
  free energy    TOTEN  =       -18.32928295 eV

  energy without entropy =      -18.32928295  energy(sigma->0) =      -18.32928295


--------------------------------------------------------------------------------------------------------




--------------------------------------- Iteration      1(   3)  ---------------------------------------


     EDDAV:  cpu time      0.4049: real time      0.4072
       DOS:  cpu time      0.0001: real time      0.0001
    --------------------------------------------
      LOOP:  cpu time      0.4051: real time      0.4073

 eigenvalue-minimisations  :    64
 total energy-change (2. order) :-0.4070135E+02  (-0.4057554E+02)
 number of electron      22.0000000 magnetization 
 augmentation part       22.0000000 magnetization 

 Free energy of the ion-electron system (eV)
  ---------------------------------------------------
  alpha Z        PSCENC =         0.62641250
  Ewald energy   TEWEN  =      1000.72979231
  -Hartree energ DENC   =     -1420.11980986
  -exchange      EXHF   =         0.00000000
  -V(xc)+E(xc)   XCENC  =        68.01136593
  PAW double counting   =       156.01372664     -160.66969168
  entropy T*S    EENTRO =        -0.00000000
  eigenvalues    EBANDS =      -367.13982579
  atomic energy  EATOM  =       663.51739852
  Solvation  Ediel_sol  =         0.00000000
  ---------------------------------------------------
  free energy    TOTEN  =       -59.03063142 eV

  energy without entropy =      -59.03063142  energy(sigma->0) =      -59.03063142


--------------------------------------------------------------------------------------------------------




--------------------------------------- Iteration      1(   4)  ---------------------------------------


     EDDAV:  cpu time      0.4038: real time      0.4061
       DOS:  cpu time      0.0001: real time      0.0001
    --------------------------------------------
      LOOP:  cpu time      0.4039: real time      0.4062

 eigenvalue-minimisations  :    64
 total energy-change (2. order) :-0.3874869E+01  (-0.3868434E+01)
 number of electron      22.0000000 magnetization 
 augmentation part       22.0000000 magnetization 

 Free energy of the ion-electron system (eV)
  ---------------------------------------------------
  alpha Z        PSCENC =         0.62641250
  Ewald energy   TEWEN  =      1000.72979231
  -Hartree energ DENC   =     -1420.11980986
  -exchange      EXHF   =         0.00000000
  -V(xc)+E(xc)   XCENC  =        68.01136593
  PAW double counting   =       156.01372664     -160.66969168
  entropy T*S    EENTRO =        -0.00000000
  eigenvalues    EBANDS =      -371.01469472
  atomic energy  EATOM  =       663.51739852
  Solvation  Ediel_sol  =         0.00000000
  ---------------------------------------------------
  free energy    TOTEN  =       -62.90550035 eV

  energy without entropy =      -62.90550035  energy(sigma->0) =      -62.90550035


--------------------------------------------------------------------------------------------------------




--------------------------------------- Iteration      1(   5)  ---------------------------------------


     EDDAV:  cpu time      0.4067: real time      0.4090
       DOS:  cpu time      0.0001: real time      0.0001
    CHARGE:  cpu time      0.2004: real time      0.2012
    MIXING:  cpu time      0.0149: real time      0.0149
    --------------------------------------------
      LOOP:  cpu time      0.6222: real time      0.6253

 eigenvalue-minimisations  :    64
 total energy-change (2. order) :-0.7906374E-01  (-0.7905166E-01)
 number of electron      22.0000000 magnetization 
 augmentation part        0.5833504 magnetization 

 Broyden mixing:
  rms(total) = 0.11895E+01    rms(broyden)= 0.11893E+01
  rms(prec ) = 0.14301E+01
  weight for this iteration     100.00

 Free energy of the ion-electron system (eV)
  ---------------------------------------------------
  alpha Z        PSCENC =         0.62641250
  Ewald energy   TEWEN  =      1000.72979231
  -Hartree energ DENC   =     -1420.11980986
  -exchange      EXHF   =         0.00000000
  -V(xc)+E(xc)   XCENC  =        68.01136593
  PAW double counting   =       156.01372664     -160.66969168
  entropy T*S    EENTRO =        -0.00000000
  eigenvalues    EBANDS =      -371.09375846
  atomic energy  EATOM  =       663.51739852
  Solvation  Ediel_sol  =         0.00000000
  ---------------------------------------------------
  free energy    TOTEN  =       -62.98456409 eV

  energy without entropy =      -62.98456409  energy(sigma->0) =      -62.98456409


--------------------------------------------------------------------------------------------------------




--------------------------------------- Iteration      1(   6)  ---------------------------------------


    POTLOK:  cpu time      0.3059: real time      0.3076
    SETDIJ:  cpu time      0.1927: real time      0.1935
     EDDAV:  cpu time      0.4065: real time      0.4087
       DOS:  cpu time      0.0001: real time      0.0001
    CHARGE:  cpu time      0.1988: real time      0.1996
    MIXING:  cpu time      0.0089: real time      0.0090
    --------------------------------------------
      LOOP:  cpu time      1.1130: real time      1.1186

 eigenvalue-minimisations  :    64
 total energy-change (2. order) : 0.5188729E+01  (-0.7263800E+00)
 number of electron      22.0000000 magnetization 
 augmentation part        0.5393422 magnetization 

 Broyden mixing:
  rms(total) = 0.58713E+00    rms(broyden)= 0.58711E+00
  rms(prec ) = 0.70010E+00
  weight for this iteration     100.00

 eigenvalues of (default mixing * dielectric matrix)
  average eigenvalue GAMMA=   1.6769
  1.6769

 Free energy of the ion-electron system (eV)
  ---------------------------------------------------
  alpha Z        PSCENC =         0.62641250
  Ewald energy   TEWEN  =      1000.72979231
  -Hartree energ DENC   =     -1468.82034117
  -exchange      EXHF   =         0.00000000
  -V(xc)+E(xc)   XCENC  =        70.37631187
  PAW double counting   =       228.32958943     -233.52347937
  entropy T*S    EENTRO =        -0.00000000
  eigenvalues    EBANDS =      -319.03151899
  atomic energy  EATOM  =       663.51739852
  Solvation  Ediel_sol  =         0.00000000
  ---------------------------------------------------
  free energy    TOTEN  =       -57.79583490 eV

  energy without entropy =      -57.79583490  energy(sigma->0) =      -57.79583490


--------------------------------------------------------------------------------------------------------




--------------------------------------- Iteration      1(   7)  ---------------------------------------


    POTLOK:  cpu time      0.3065: real time      0.3082
    SETDIJ:  cpu time      0.1934: real time      0.1942
     EDDAV:  cpu time      0.4577: real time      0.4601
       DOS:  cpu time      0.0001: real time      0.0001
    CHARGE:  cpu time      0.2017: real time      0.2025
    MIXING:  cpu time      0.0094: real time      0.0094
    --------------------------------------------
      LOOP:  cpu time      1.1688: real time      1.1746

 eigenvalue-minimisations  :    72
 total energy-change (2. order) : 0.1399190E+01  (-0.4731231E+00)
 number of electron      22.0000000 magnetization 
 augmentation part        0.5067586 magnetization 

 Broyden mixing:
  rms(total) = 0.21983E+00    rms(broyden)= 0.21977E+00
  rms(prec ) = 0.25483E+00
  weight for this iteration     100.00

 eigenvalues of (default mixing * dielectric matrix)
  average eigenvalue GAMMA=   1.9855
  1.9855  1.9855

 Free energy of the ion-electron system (eV)
  ---------------------------------------------------
  alpha Z        PSCENC =         0.62641250
  Ewald energy   TEWEN  =      1000.72979231
  -Hartree energ DENC   =     -1511.07849846
  -exchange      EXHF   =         0.00000000
  -V(xc)+E(xc)   XCENC  =        72.72256309
  PAW double counting   =       293.77245501     -299.24057512
  entropy T*S    EENTRO =        -0.00000000
  eigenvalues    EBANDS =      -277.44619320
  atomic energy  EATOM  =       663.51739852
  Solvation  Ediel_sol  =         0.00000000
  ---------------------------------------------------
  free energy    TOTEN  =       -56.39664536 eV

  energy without entropy =      -56.39664536  energy(sigma->0) =      -56.39664536


--------------------------------------------------------------------------------------------------------




--------------------------------------- Iteration      1(   8)  ---------------------------------------


    POTLOK:  cpu time      0.3110: real time      0.3127
    SETDIJ:  cpu time      0.1939: real time      0.1947
     EDDAV:  cpu time      0.4525: real time      0.4550
       DOS:  cpu time      0.0001: real time      0.0001
    CHARGE:  cpu time      0.2002: real time      0.2010
    MIXING:  cpu time      0.0086: real time      0.0086
    --------------------------------------------
      LOOP:  cpu time      1.1663: real time      1.1722

 eigenvalue-minimisations  :    72
 total energy-change (2. order) : 0.1734952E+00  (-0.4548171E-01)
 number of electron      22.0000000 magnetization 
 augmentation part        0.5112886 magnetization 

 Broyden mixing:
  rms(total) = 0.51109E-01    rms(broyden)= 0.51104E-01
  rms(prec ) = 0.84694E-01
  weight for this iteration     100.00

 eigenvalues of (default mixing * dielectric matrix)
  average eigenvalue GAMMA=   1.6161
  2.2605  0.9963  1.5914

 Free energy of the ion-electron system (eV)
  ---------------------------------------------------
  alpha Z        PSCENC =         0.62641250
  Ewald energy   TEWEN  =      1000.72979231
  -Hartree energ DENC   =     -1518.51852654
  -exchange      EXHF   =         0.00000000
  -V(xc)+E(xc)   XCENC  =        73.31743794
  PAW double counting   =       297.25816110     -302.56336962
  entropy T*S    EENTRO =        -0.00000000
  eigenvalues    EBANDS =      -270.59045636
  atomic energy  EATOM  =       663.51739852
  Solvation  Ediel_sol  =         0.00000000
  ---------------------------------------------------
  free energy    TOTEN  =       -56.22315016 eV

  energy without entropy =      -56.22315016  energy(sigma->0) =      -56.22315016


--------------------------------------------------------------------------------------------------------




--------------------------------------- Iteration      1(   9)  ---------------------------------------


    POTLOK:  cpu time      0.3131: real time      0.3147
    SETDIJ:  cpu time      0.1934: real time      0.1942
     EDDAV:  cpu time      0.4512: real time      0.4537
       DOS:  cpu time      0.0001: real time      0.0001
    CHARGE:  cpu time      0.2009: real time      0.2017
    MIXING:  cpu time      0.0094: real time      0.0095
    --------------------------------------------
      LOOP:  cpu time      1.1681: real time      1.1739

 eigenvalue-minimisations  :    72
 total energy-change (2. order) : 0.2931990E-01  (-0.8448527E-02)
 number of electron      22.0000000 magnetization 
 augmentation part        0.5075276 magnetization 

 Broyden mixing:
  rms(total) = 0.25439E-01    rms(broyden)= 0.25436E-01
  rms(prec ) = 0.50501E-01
  weight for this iteration     100.00

 eigenvalues of (default mixing * dielectric matrix)
  average eigenvalue GAMMA=   1.6252
  2.0765  2.0765  1.0135  1.3342

 Free energy of the ion-electron system (eV)
  ---------------------------------------------------
  alpha Z        PSCENC =         0.62641250
  Ewald energy   TEWEN  =      1000.72979231
  -Hartree energ DENC   =     -1523.65620282
  -exchange      EXHF   =         0.00000000
  -V(xc)+E(xc)   XCENC  =        73.52565791
  PAW double counting   =       302.11577707     -307.45216968
  entropy T*S    EENTRO =        -0.00000000
  eigenvalues    EBANDS =      -265.60049608
  atomic energy  EATOM  =       663.51739852
  Solvation  Ediel_sol  =         0.00000000
  ---------------------------------------------------
  free energy    TOTEN  =       -56.19383026 eV

  energy without entropy =      -56.19383026  energy(sigma->0) =      -56.19383026


--------------------------------------------------------------------------------------------------------




--------------------------------------- Iteration      1(  10)  ---------------------------------------


    POTLOK:  cpu time      0.3135: real time      0.3152
    SETDIJ:  cpu time      0.1970: real time      0.1978
     EDDAV:  cpu time      0.3295: real time      0.3314
       DOS:  cpu time      0.0001: real time      0.0001
    CHARGE:  cpu time      0.1939: real time      0.1947
    MIXING:  cpu time      0.0167: real time      0.0168
    --------------------------------------------
      LOOP:  cpu time      1.0507: real time      1.0559

 eigenvalue-minimisations  :    48
 total energy-change (2. order) : 0.1038660E-01  (-0.2903827E-02)
 number of electron      22.0000000 magnetization 
 augmentation part        0.5058756 magnetization 

 Broyden mixing:
  rms(total) = 0.17539E-01    rms(broyden)= 0.17534E-01
  rms(prec ) = 0.31998E-01
  weight for this iteration     100.00

 eigenvalues of (default mixing * dielectric matrix)
  average eigenvalue GAMMA=   1.6370
  2.3655  2.3655  1.2476  1.2476  0.9591

 Free energy of the ion-electron system (eV)
  ---------------------------------------------------
  alpha Z        PSCENC =         0.62641250
  Ewald energy   TEWEN  =      1000.72979231
  -Hartree energ DENC   =     -1528.63082414
  -exchange      EXHF   =         0.00000000
  -V(xc)+E(xc)   XCENC  =        73.63557904
  PAW double counting   =       301.02200291     -306.35832840
  entropy T*S    EENTRO =        -0.00000000
  eigenvalues    EBANDS =      -260.72547641
  atomic energy  EATOM  =       663.51739852
  Solvation  Ediel_sol  =         0.00000000
  ---------------------------------------------------
  free energy    TOTEN  =       -56.18344366 eV

  energy without entropy =      -56.18344366  energy(sigma->0) =      -56.18344366


--------------------------------------------------------------------------------------------------------




--------------------------------------- Iteration      1(  11)  ---------------------------------------


    POTLOK:  cpu time      0.3129: real time      0.3146
    SETDIJ:  cpu time      0.1946: real time      0.1954
     EDDAV:  cpu time      0.4115: real time      0.4138
       DOS:  cpu time      0.0001: real time      0.0001
    CHARGE:  cpu time      0.2012: real time      0.2020
    MIXING:  cpu time      0.0113: real time      0.0113
    --------------------------------------------
      LOOP:  cpu time      1.1315: real time      1.1372

 eigenvalue-minimisations  :    64
 total energy-change (2. order) : 0.7851767E-02  (-0.5802452E-03)
 number of electron      22.0000000 magnetization 
 augmentation part        0.5060781 magnetization 

 Broyden mixing:
  rms(total) = 0.89653E-02    rms(broyden)= 0.89650E-02
  rms(prec ) = 0.20669E-01
  weight for this iteration     100.00

 eigenvalues of (default mixing * dielectric matrix)
  average eigenvalue GAMMA=   1.8239
  3.4996  2.3794  1.7563  0.9352  1.1865  1.1865

 Free energy of the ion-electron system (eV)
  ---------------------------------------------------
  alpha Z        PSCENC =         0.62641250
  Ewald energy   TEWEN  =      1000.72979231
  -Hartree energ DENC   =     -1530.68042843
  -exchange      EXHF   =         0.00000000
  -V(xc)+E(xc)   XCENC  =        73.69605482
  PAW double counting   =       300.26412296     -305.58703118
  entropy T*S    EENTRO =        -0.00000000
  eigenvalues    EBANDS =      -258.74191340
  atomic energy  EATOM  =       663.51739852
  Solvation  Ediel_sol  =         0.00000000
  ---------------------------------------------------
  free energy    TOTEN  =       -56.17559190 eV

  energy without entropy =      -56.17559190  energy(sigma->0) =      -56.17559190


--------------------------------------------------------------------------------------------------------




--------------------------------------- Iteration      1(  12)  ---------------------------------------


    POTLOK:  cpu time      0.3123: real time      0.3140
    SETDIJ:  cpu time      0.1927: real time      0.1935
     EDDAV:  cpu time      0.4084: real time      0.4107
       DOS:  cpu time      0.0001: real time      0.0001
    CHARGE:  cpu time      0.2004: real time      0.2012
    MIXING:  cpu time      0.0093: real time      0.0093
    --------------------------------------------
      LOOP:  cpu time      1.1232: real time      1.1289

 eigenvalue-minimisations  :    64
 total energy-change (2. order) :-0.3881819E-03  (-0.7628574E-03)
 number of electron      22.0000000 magnetization 
 augmentation part        0.5051098 magnetization 

 Broyden mixing:
  rms(total) = 0.65674E-02    rms(broyden)= 0.65667E-02
  rms(prec ) = 0.12252E-01
  weight for this iteration     100.00

 eigenvalues of (default mixing * dielectric matrix)
  average eigenvalue GAMMA=   1.7783
  3.8872  2.3824  1.6273  1.2811  1.2811  0.9946  0.9946

 Free energy of the ion-electron system (eV)
  ---------------------------------------------------
  alpha Z        PSCENC =         0.62641250
  Ewald energy   TEWEN  =      1000.72979231
  -Hartree energ DENC   =     -1534.29254089
  -exchange      EXHF   =         0.00000000
  -V(xc)+E(xc)   XCENC  =        73.77117207
  PAW double counting   =       300.26234643     -305.59161393
  entropy T*S    EENTRO =        -0.00000000
  eigenvalues    EBANDS =      -255.19894709
  atomic energy  EATOM  =       663.51739852
  Solvation  Ediel_sol  =         0.00000000
  ---------------------------------------------------
  free energy    TOTEN  =       -56.17598008 eV

  energy without entropy =      -56.17598008  energy(sigma->0) =      -56.17598008


--------------------------------------------------------------------------------------------------------




--------------------------------------- Iteration      1(  13)  ---------------------------------------


    POTLOK:  cpu time      0.3089: real time      0.3106
    SETDIJ:  cpu time      0.1918: real time      0.1927
     EDDAV:  cpu time      0.3317: real time      0.3335
       DOS:  cpu time      0.0001: real time      0.0001
    CHARGE:  cpu time      0.1932: real time      0.1940
    MIXING:  cpu time      0.0142: real time      0.0143
    --------------------------------------------
      LOOP:  cpu time      1.0399: real time      1.0452

 eigenvalue-minimisations  :    48
 total energy-change (2. order) :-0.6522723E-02  (-0.1537396E-03)
 number of electron      22.0000000 magnetization 
 augmentation part        0.5053642 magnetization 

 Broyden mixing:
  rms(total) = 0.32838E-02    rms(broyden)= 0.32837E-02
  rms(prec ) = 0.79161E-02
  weight for this iteration     100.00

 eigenvalues of (default mixing * dielectric matrix)
  average eigenvalue GAMMA=   1.9678
  4.8710  2.5872  2.3575  1.4728  1.3825  0.9110  1.0802  1.0802

 Free energy of the ion-electron system (eV)
  ---------------------------------------------------
  alpha Z        PSCENC =         0.62641250
  Ewald energy   TEWEN  =      1000.72979231
  -Hartree energ DENC   =     -1534.13514619
  -exchange      EXHF   =         0.00000000
  -V(xc)+E(xc)   XCENC  =        73.74890525
  PAW double counting   =       299.82500455     -305.15026473
  entropy T*S    EENTRO =        -0.00000000
  eigenvalues    EBANDS =      -255.34460501
  atomic energy  EATOM  =       663.51739852
  Solvation  Ediel_sol  =         0.00000000
  ---------------------------------------------------
  free energy    TOTEN  =       -56.18250280 eV

  energy without entropy =      -56.18250280  energy(sigma->0) =      -56.18250280


--------------------------------------------------------------------------------------------------------




--------------------------------------- Iteration      1(  14)  ---------------------------------------


    POTLOK:  cpu time      0.3110: real time      0.3127
    SETDIJ:  cpu time      0.1917: real time      0.1924
     EDDAV:  cpu time      0.4168: real time      0.4191
       DOS:  cpu time      0.0001: real time      0.0001
    CHARGE:  cpu time      0.1999: real time      0.2007
    MIXING:  cpu time      0.0096: real time      0.0096
    --------------------------------------------
      LOOP:  cpu time      1.1290: real time      1.1346

 eigenvalue-minimisations  :    64
 total energy-change (2. order) :-0.8393074E-02  (-0.1373276E-03)
 number of electron      22.0000000 magnetization 
 augmentation part        0.5053304 magnetization 

 Broyden mixing:
  rms(total) = 0.24757E-02    rms(broyden)= 0.24756E-02
  rms(prec ) = 0.44941E-02
  weight for this iteration     100.00

 eigenvalues of (default mixing * dielectric matrix)
  average eigenvalue GAMMA=   2.0496
  5.6677  3.1928  2.1822  1.4642  1.4642  1.4436  0.9315  1.0499  1.0499

 Free energy of the ion-electron system (eV)
  ---------------------------------------------------
  alpha Z        PSCENC =         0.62641250
  Ewald energy   TEWEN  =      1000.72979231
  -Hartree energ DENC   =     -1534.78268930
  -exchange      EXHF   =         0.00000000
  -V(xc)+E(xc)   XCENC  =        73.74395245
  PAW double counting   =       299.81202202     -305.13693516
  entropy T*S    EENTRO =        -0.00000000
  eigenvalues    EBANDS =      -254.70084922
  atomic energy  EATOM  =       663.51739852
  Solvation  Ediel_sol  =         0.00000000
  ---------------------------------------------------
  free energy    TOTEN  =       -56.19089588 eV

  energy without entropy =      -56.19089588  energy(sigma->0) =      -56.19089588


--------------------------------------------------------------------------------------------------------




--------------------------------------- Iteration      1(  15)  ---------------------------------------


    POTLOK:  cpu time      0.3039: real time      0.3056
    SETDIJ:  cpu time      0.1924: real time      0.1932
     EDDAV:  cpu time      0.4138: real time      0.4161
       DOS:  cpu time      0.0001: real time      0.0001
    CHARGE:  cpu time      0.1993: real time      0.2001
    MIXING:  cpu time      0.0128: real time      0.0128
    --------------------------------------------
      LOOP:  cpu time      1.1223: real time      1.1279

 eigenvalue-minimisations  :    64
 total energy-change (2. order) :-0.3997720E-02  (-0.6116627E-04)
 number of electron      22.0000000 magnetization 
 augmentation part        0.5052427 magnetization 

 Broyden mixing:
  rms(total) = 0.17561E-02    rms(broyden)= 0.17560E-02
  rms(prec ) = 0.27339E-02
  weight for this iteration     100.00

 eigenvalues of (default mixing * dielectric matrix)
  average eigenvalue GAMMA=   2.2032
  6.7333  3.8875  2.2992  2.2992  1.3776  1.3776  1.0742  1.0742  0.9545  0.9545

 Free energy of the ion-electron system (eV)
  ---------------------------------------------------
  alpha Z        PSCENC =         0.62641250
  Ewald energy   TEWEN  =      1000.72979231
  -Hartree energ DENC   =     -1534.87844317
  -exchange      EXHF   =         0.00000000
  -V(xc)+E(xc)   XCENC  =        73.73386281
  PAW double counting   =       299.83942660     -305.16548641
  entropy T*S    EENTRO =        -0.00000000
  eigenvalues    EBANDS =      -254.59785676
  atomic energy  EATOM  =       663.51739852
  Solvation  Ediel_sol  =         0.00000000
  ---------------------------------------------------
  free energy    TOTEN  =       -56.19489360 eV

  energy without entropy =      -56.19489360  energy(sigma->0) =      -56.19489360


--------------------------------------------------------------------------------------------------------




--------------------------------------- Iteration      1(  16)  ---------------------------------------


    POTLOK:  cpu time      0.3023: real time      0.3040
    SETDIJ:  cpu time      0.1934: real time      0.1942
     EDDAV:  cpu time      0.4107: real time      0.4130
       DOS:  cpu time      0.0001: real time      0.0001
    CHARGE:  cpu time      0.1983: real time      0.1991
    MIXING:  cpu time      0.0122: real time      0.0122
    --------------------------------------------
      LOOP:  cpu time      1.1171: real time      1.1227

 eigenvalue-minimisations  :    64
 total energy-change (2. order) :-0.2134966E-02  (-0.2904891E-04)
 number of electron      22.0000000 magnetization 
 augmentation part        0.5052648 magnetization 

 Broyden mixing:
  rms(total) = 0.10485E-02    rms(broyden)= 0.10485E-02
  rms(prec ) = 0.15410E-02
  weight for this iteration     100.00

 eigenvalues of (default mixing * dielectric matrix)
  average eigenvalue GAMMA=   2.2443
  7.4191  4.2981  2.4488  2.3306  1.5705  1.2989  1.2989  0.9089  0.9934  1.0602
  1.0602

 Free energy of the ion-electron system (eV)
  ---------------------------------------------------
  alpha Z        PSCENC =         0.62641250
  Ewald energy   TEWEN  =      1000.72979231
  -Hartree energ DENC   =     -1534.89268264
  -exchange      EXHF   =         0.00000000
  -V(xc)+E(xc)   XCENC  =        73.73099840
  PAW double counting   =       299.85751624     -305.18218282
  entropy T*S    EENTRO =        -0.00000000
  eigenvalues    EBANDS =      -254.58428108
  atomic energy  EATOM  =       663.51739852
  Solvation  Ediel_sol  =         0.00000000
  ---------------------------------------------------
  free energy    TOTEN  =       -56.19702856 eV

  energy without entropy =      -56.19702856  energy(sigma->0) =      -56.19702856


--------------------------------------------------------------------------------------------------------




--------------------------------------- Iteration      1(  17)  ---------------------------------------


    POTLOK:  cpu time      0.2992: real time      0.3008
    SETDIJ:  cpu time      0.1921: real time      0.1929
     EDDAV:  cpu time      0.4092: real time      0.4115
       DOS:  cpu time      0.0001: real time      0.0001
    CHARGE:  cpu time      0.1977: real time      0.1984
    MIXING:  cpu time      0.0118: real time      0.0118
    --------------------------------------------
      LOOP:  cpu time      1.1101: real time      1.1156

 eigenvalue-minimisations  :    64
 total energy-change (2. order) :-0.5835835E-03  (-0.9568706E-05)
 number of electron      22.0000000 magnetization 
 augmentation part        0.5051636 magnetization 

 Broyden mixing:
  rms(total) = 0.78164E-03    rms(broyden)= 0.78147E-03
  rms(prec ) = 0.11073E-02
  weight for this iteration     100.00

 eigenvalues of (default mixing * dielectric matrix)
  average eigenvalue GAMMA=   2.3585
  8.2975  4.8077  2.6788  2.6788  2.0972  1.4202  1.1146  1.1146  0.9109  1.1130
  1.0345  1.0345

 Free energy of the ion-electron system (eV)
  ---------------------------------------------------
  alpha Z        PSCENC =         0.62641250
  Ewald energy   TEWEN  =      1000.72979231
  -Hartree energ DENC   =     -1535.00584662
  -exchange      EXHF   =         0.00000000
  -V(xc)+E(xc)   XCENC  =        73.73356350
  PAW double counting   =       299.92204186     -305.24759671
  entropy T*S    EENTRO =        -0.00000000
  eigenvalues    EBANDS =      -254.47337751
  atomic energy  EATOM  =       663.51739852
  Solvation  Ediel_sol  =         0.00000000
  ---------------------------------------------------
  free energy    TOTEN  =       -56.19761215 eV

  energy without entropy =      -56.19761215  energy(sigma->0) =      -56.19761215


--------------------------------------------------------------------------------------------------------




--------------------------------------- Iteration      1(  18)  ---------------------------------------


    POTLOK:  cpu time      0.2961: real time      0.2978
    SETDIJ:  cpu time      0.1925: real time      0.1934
     EDDAV:  cpu time      0.4087: real time      0.4110
       DOS:  cpu time      0.0001: real time      0.0001
    CHARGE:  cpu time      0.1994: real time      0.2002
    MIXING:  cpu time      0.0115: real time      0.0116
    --------------------------------------------
      LOOP:  cpu time      1.1085: real time      1.1141

 eigenvalue-minimisations  :    64
 total energy-change (2. order) :-0.4237406E-03  (-0.5033844E-05)
 number of electron      22.0000000 magnetization 
 augmentation part        0.5051965 magnetization 

 Broyden mixing:
  rms(total) = 0.31452E-03    rms(broyden)= 0.31447E-03
  rms(prec ) = 0.45968E-03
  weight for this iteration     100.00

 eigenvalues of (default mixing * dielectric matrix)
  average eigenvalue GAMMA=   2.3147
  8.4774  5.0778  3.0256  2.2646  2.1943  1.5291  1.1853  1.1853  1.1521  1.0729
  1.0729  0.9267  0.9267

 Free energy of the ion-electron system (eV)
  ---------------------------------------------------
  alpha Z        PSCENC =         0.62641250
  Ewald energy   TEWEN  =      1000.72979231
  -Hartree energ DENC   =     -1534.96074493
  -exchange      EXHF   =         0.00000000
  -V(xc)+E(xc)   XCENC  =        73.73153248
  PAW double counting   =       299.86587901     -305.19116616
  entropy T*S    EENTRO =        -0.00000000
  eigenvalues    EBANDS =      -254.51713963
  atomic energy  EATOM  =       663.51739852
  Solvation  Ediel_sol  =         0.00000000
  ---------------------------------------------------
  free energy    TOTEN  =       -56.19803589 eV

  energy without entropy =      -56.19803589  energy(sigma->0) =      -56.19803589


--------------------------------------------------------------------------------------------------------




--------------------------------------- Iteration      1(  19)  ---------------------------------------


    POTLOK:  cpu time      0.2986: real time      0.3002
    SETDIJ:  cpu time      0.1919: real time      0.1927
     EDDAV:  cpu time      0.3685: real time      0.3705
       DOS:  cpu time      0.0001: real time      0.0001
    CHARGE:  cpu time      0.1994: real time      0.2002
    MIXING:  cpu time      0.0128: real time      0.0129
    --------------------------------------------
      LOOP:  cpu time      1.0712: real time      1.0767

 eigenvalue-minimisations  :    56
 total energy-change (2. order) :-0.6945620E-04  (-0.5503716E-06)
 number of electron      22.0000000 magnetization 
 augmentation part        0.5051924 magnetization 

 Broyden mixing:
  rms(total) = 0.16490E-03    rms(broyden)= 0.16477E-03
  rms(prec ) = 0.27033E-03
  weight for this iteration     100.00

 eigenvalues of (default mixing * dielectric matrix)
  average eigenvalue GAMMA=   2.3631
  8.6833  5.4138  3.2978  2.7522  2.2694  1.9957  1.1491  1.1491  1.2805  1.2805
  0.9831  0.9831  0.9232  0.9232

 Free energy of the ion-electron system (eV)
  ---------------------------------------------------
  alpha Z        PSCENC =         0.62641250
  Ewald energy   TEWEN  =      1000.72979231
  -Hartree energ DENC   =     -1534.97160306
  -exchange      EXHF   =         0.00000000
  -V(xc)+E(xc)   XCENC  =        73.73182231
  PAW double counting   =       299.87817602     -305.20345137
  entropy T*S    EENTRO =        -0.00000000
  eigenvalues    EBANDS =      -254.50665259
  atomic energy  EATOM  =       663.51739852
  Solvation  Ediel_sol  =         0.00000000
  ---------------------------------------------------
  free energy    TOTEN  =       -56.19810534 eV

  energy without entropy =      -56.19810534  energy(sigma->0) =      -56.19810534


--------------------------------------------------------------------------------------------------------




--------------------------------------- Iteration      1(  20)  ---------------------------------------


    POTLOK:  cpu time      0.3004: real time      0.3021
    SETDIJ:  cpu time      0.1912: real time      0.1921
     EDDAV:  cpu time      0.3360: real time      0.3380
       DOS:  cpu time      0.0001: real time      0.0001
    CHARGE:  cpu time      0.1997: real time      0.2006
    MIXING:  cpu time      0.0132: real time      0.0132
    --------------------------------------------
      LOOP:  cpu time      1.0406: real time      1.0461

 eigenvalue-minimisations  :    48
 total energy-change (2. order) :-0.8146128E-04  (-0.1890777E-06)
 number of electron      22.0000000 magnetization 
 augmentation part        0.5051908 magnetization 

 Broyden mixing:
  rms(total) = 0.13882E-03    rms(broyden)= 0.13875E-03
  rms(prec ) = 0.18111E-03
  weight for this iteration     100.00

 eigenvalues of (default mixing * dielectric matrix)
  average eigenvalue GAMMA=   2.3492
  8.8479  5.6248  3.8153  2.6032  2.2186  2.1287  1.5619  1.1797  1.1797  1.1325
  1.1325  1.0257  0.8990  0.9446  0.9446

 Free energy of the ion-electron system (eV)
  ---------------------------------------------------
  alpha Z        PSCENC =         0.62641250
  Ewald energy   TEWEN  =      1000.72979231
  -Hartree energ DENC   =     -1534.98014319
  -exchange      EXHF   =         0.00000000
  -V(xc)+E(xc)   XCENC  =        73.73162439
  PAW double counting   =       299.87421114     -305.19953384
  entropy T*S    EENTRO =        -0.00000000
  eigenvalues    EBANDS =      -254.49794864
  atomic energy  EATOM  =       663.51739852
  Solvation  Ediel_sol  =         0.00000000
  ---------------------------------------------------
  free energy    TOTEN  =       -56.19818681 eV

  energy without entropy =      -56.19818681  energy(sigma->0) =      -56.19818681


--------------------------------------------------------------------------------------------------------




--------------------------------------- Iteration      1(  21)  ---------------------------------------


    POTLOK:  cpu time      0.3045: real time      0.3062
    SETDIJ:  cpu time      0.1917: real time      0.1925
     EDDAV:  cpu time      0.3288: real time      0.3306
       DOS:  cpu time      0.0001: real time      0.0001
    CHARGE:  cpu time      0.1993: real time      0.2001
    MIXING:  cpu time      0.0115: real time      0.0116
    --------------------------------------------
      LOOP:  cpu time      1.0359: real time      1.0411

 eigenvalue-minimisations  :    48
 total energy-change (2. order) :-0.1624056E-04  (-0.4515491E-07)
 number of electron      22.0000000 magnetization 
 augmentation part        0.5051871 magnetization 

 Broyden mixing:
  rms(total) = 0.64677E-04    rms(broyden)= 0.64548E-04
  rms(prec ) = 0.93371E-04
  weight for this iteration     100.00

 eigenvalues of (default mixing * dielectric matrix)
  average eigenvalue GAMMA=   2.4318
  8.9321  6.0463  4.3084  2.9427  2.5153  2.2010  2.2010  1.1787  1.1787  1.3384
  1.1648  1.0491  1.0491  0.9029  0.9504  0.9504

 Free energy of the ion-electron system (eV)
  ---------------------------------------------------
  alpha Z        PSCENC =         0.62641250
  Ewald energy   TEWEN  =      1000.72979231
  -Hartree energ DENC   =     -1534.98705366
  -exchange      EXHF   =         0.00000000
  -V(xc)+E(xc)   XCENC  =        73.73179476
  PAW double counting   =       299.87799770     -305.20334571
  entropy T*S    EENTRO =        -0.00000000
  eigenvalues    EBANDS =      -254.49119947
  atomic energy  EATOM  =       663.51739852
  Solvation  Ediel_sol  =         0.00000000
  ---------------------------------------------------
  free energy    TOTEN  =       -56.19820305 eV

  energy without entropy =      -56.19820305  energy(sigma->0) =      -56.19820305


--------------------------------------------------------------------------------------------------------




--------------------------------------- Iteration      1(  22)  ---------------------------------------


    POTLOK:  cpu time      0.3099: real time      0.3117
    SETDIJ:  cpu time      0.1918: real time      0.1926
     EDDAV:  cpu time      0.2934: real time      0.2950
       DOS:  cpu time      0.0001: real time      0.0001
    CHARGE:  cpu time      0.2002: real time      0.2010
    MIXING:  cpu time      0.0128: real time      0.0129
    --------------------------------------------
      LOOP:  cpu time      1.0083: real time      1.0133

 eigenvalue-minimisations  :    40
 total energy-change (2. order) :-0.1368385E-04  (-0.3970643E-07)
 number of electron      22.0000000 magnetization 
 augmentation part        0.5051888 magnetization 

 Broyden mixing:
  rms(total) = 0.55357E-04    rms(broyden)= 0.55204E-04
  rms(prec ) = 0.67545E-04
  weight for this iteration     100.00

 eigenvalues of (default mixing * dielectric matrix)
  average eigenvalue GAMMA=   2.4032
  9.0717  6.2865  4.6801  3.1535  2.5127  2.2052  1.7681  1.5635  1.2021  1.2021
  1.2535  1.0719  1.0719  1.0468  0.9170  0.9243  0.9243

 Free energy of the ion-electron system (eV)
  ---------------------------------------------------
  alpha Z        PSCENC =         0.62641250
  Ewald energy   TEWEN  =      1000.72979231
  -Hartree energ DENC   =     -1534.98561336
  -exchange      EXHF   =         0.00000000
  -V(xc)+E(xc)   XCENC  =        73.73173868
  PAW double counting   =       299.87827406     -305.20358951
  entropy T*S    EENTRO =        -0.00000000
  eigenvalues    EBANDS =      -254.49262993
  atomic energy  EATOM  =       663.51739852
  Solvation  Ediel_sol  =         0.00000000
  ---------------------------------------------------
  free energy    TOTEN  =       -56.19821673 eV

  energy without entropy =      -56.19821673  energy(sigma->0) =      -56.19821673


--------------------------------------------------------------------------------------------------------




--------------------------------------- Iteration      1(  23)  ---------------------------------------


    POTLOK:  cpu time      0.3103: real time      0.3119
    SETDIJ:  cpu time      0.1915: real time      0.1923
     EDDAV:  cpu time      0.3275: real time      0.3293
       DOS:  cpu time      0.0002: real time      0.0002
    CHARGE:  cpu time      0.1989: real time      0.1997
    MIXING:  cpu time      0.0132: real time      0.0132
    --------------------------------------------
      LOOP:  cpu time      1.0415: real time      1.0467

 eigenvalue-minimisations  :    48
 total energy-change (2. order) :-0.1798902E-05  (-0.5400880E-08)
 number of electron      22.0000000 magnetization 
 augmentation part        0.5051890 magnetization 

 Broyden mixing:
  rms(total) = 0.31392E-04    rms(broyden)= 0.31138E-04
  rms(prec ) = 0.39140E-04
  weight for this iteration     100.00

 eigenvalues of (default mixing * dielectric matrix)
  average eigenvalue GAMMA=   2.4545
  9.1851  6.4987  4.9414  3.1155  2.6297  2.6297  2.2481  2.0247  1.1925  1.1925
  1.3261  1.3261  1.0550  1.0550  0.9582  0.9582  0.9222  0.9222

 Free energy of the ion-electron system (eV)
  ---------------------------------------------------
  alpha Z        PSCENC =         0.62641250
  Ewald energy   TEWEN  =      1000.72979231
  -Hartree energ DENC   =     -1534.98585016
  -exchange      EXHF   =         0.00000000
  -V(xc)+E(xc)   XCENC  =        73.73171294
  PAW double counting   =       299.87729606     -305.20260196
  entropy T*S    EENTRO =        -0.00000000
  eigenvalues    EBANDS =      -254.49237874
  atomic energy  EATOM  =       663.51739852
  Solvation  Ediel_sol  =         0.00000000
  ---------------------------------------------------
  free energy    TOTEN  =       -56.19821853 eV

  energy without entropy =      -56.19821853  energy(sigma->0) =      -56.19821853


--------------------------------------------------------------------------------------------------------




--------------------------------------- Iteration      1(  24)  ---------------------------------------


    POTLOK:  cpu time      0.3101: real time      0.3118
    SETDIJ:  cpu time      0.1910: real time      0.1918
     EDDAV:  cpu time      0.3307: real time      0.3326
       DOS:  cpu time      0.0001: real time      0.0001
    CHARGE:  cpu time      0.1990: real time      0.1997
    MIXING:  cpu time      0.0127: real time      0.0128
    --------------------------------------------
      LOOP:  cpu time      1.0437: real time      1.0488

 eigenvalue-minimisations  :    48
 total energy-change (2. order) :-0.2440958E-05  (-0.1147208E-07)
 number of electron      22.0000000 magnetization 
 augmentation part        0.5051898 magnetization 

 Broyden mixing:
  rms(total) = 0.31618E-04    rms(broyden)= 0.31362E-04
  rms(prec ) = 0.37919E-04
  weight for this iteration     100.00

 eigenvalues of (default mixing * dielectric matrix)
  average eigenvalue GAMMA=   2.4003
  9.1981  6.7089  5.0204  3.5073  2.6234  2.6234  2.1566  1.5297  1.5297  1.4086
  1.2007  1.2007  1.1309  1.1309  0.9624  0.9624  0.9361  0.8883  0.8883

 Free energy of the ion-electron system (eV)
  ---------------------------------------------------
  alpha Z        PSCENC =         0.62641250
  Ewald energy   TEWEN  =      1000.72979231
  -Hartree energ DENC   =     -1534.98566108
  -exchange      EXHF   =         0.00000000
  -V(xc)+E(xc)   XCENC  =        73.73170298
  PAW double counting   =       299.87582688     -305.20112773
  entropy T*S    EENTRO =        -0.00000000
  eigenvalues    EBANDS =      -254.49256535
  atomic energy  EATOM  =       663.51739852
  Solvation  Ediel_sol  =         0.00000000
  ---------------------------------------------------
  free energy    TOTEN  =       -56.19822097 eV

  energy without entropy =      -56.19822097  energy(sigma->0) =      -56.19822097


--------------------------------------------------------------------------------------------------------




--------------------------------------- Iteration      1(  25)  ---------------------------------------


    POTLOK:  cpu time      0.3106: real time      0.3123
    SETDIJ:  cpu time      0.1908: real time      0.1916
     EDDAV:  cpu time      0.3696: real time      0.3717
       DOS:  cpu time      0.0001: real time      0.0001
    --------------------------------------------
      LOOP:  cpu time      0.8711: real time      0.8757

 eigenvalue-minimisations  :    56
 total energy-change (2. order) :-0.2564435E-06  (-0.1633458E-08)
 number of electron      22.0000000 magnetization 
 augmentation part        0.5051898 magnetization 

 Free energy of the ion-electron system (eV)
  ---------------------------------------------------
  alpha Z        PSCENC =         0.62641250
  Ewald energy   TEWEN  =      1000.72979231
  -Hartree energ DENC   =     -1534.98598839
  -exchange      EXHF   =         0.00000000
  -V(xc)+E(xc)   XCENC  =        73.73171408
  PAW double counting   =       299.87686125     -305.20217226
  entropy T*S    EENTRO =        -0.00000000
  eigenvalues    EBANDS =      -254.49223924
  atomic energy  EATOM  =       663.51739852
  Solvation  Ediel_sol  =         0.00000000
  ---------------------------------------------------
  free energy    TOTEN  =       -56.19822123 eV

  energy without entropy =      -56.19822123  energy(sigma->0) =      -56.19822123


--------------------------------------------------------------------------------------------------------




 average (electrostatic) potential at core
  the test charge radii are     0.6991  0.5201
  (the norm of the test charge is              1.0000)
       1 -58.2721       2 -58.4498       3 -58.4828       4 -58.4341       5 -42.2002
       6 -42.1872       7 -42.0612       8 -42.0225       9 -41.8678      10 -41.8430
 
 
 
 E-fermi :  -5.5550     XC(G=0):  -0.4151     alpha+bet : -0.1681

 Fermi energy:        -5.5550472266

 k-point     1 :       0.0000    0.0000    0.0000
  band No.  band energies     occupation 
      1     -20.8118      2.00000
      2     -15.9897      2.00000
      3     -15.8448      2.00000
      4     -12.5756      2.00000
      5     -11.9615      2.00000
      6     -11.3537      2.00000
      7      -8.9921      2.00000
      8      -8.8904      2.00000
      9      -7.6221      2.00000
     10      -7.3940      2.00000
     11      -5.8105      2.00000
     12      -0.7396      0.00000
     13      -0.3242      0.00000
     14       0.1532      0.00000
     15       0.1935      0.00000
     16       0.3255      0.00000
     17       0.3873      0.00000
     18       0.6291      0.00000
     19       0.6509      0.00000
     20       0.9141      0.00000
     21       0.9623      0.00000
     22       0.9781      0.00000
     23       1.0148      0.00000
     24       1.0317      0.00000


--------------------------------------------------------------------------------------------------------


 soft charge-density along one line, spin component           1
         0         1         2         3         4         5         6         7         8         9
 total charge-density along one line
 
 pseudopotential strength for first ion, spin component:           1
 10.235   0.019  -0.003   0.002  -0.003   0.000   0.002   0.000
  0.019  -0.002   0.000  -0.000   0.000  -0.000   0.000  -0.000
 -0.003   0.000  -4.344   0.005   0.005  -0.017   0.001   0.001
  0.002  -0.000   0.005  -4.340   0.002   0.001  -0.016   0.000
 -0.003   0.000   0.005   0.002  -4.350   0.001   0.000  -0.018
  0.000  -0.000  -0.017   0.001   0.001  -0.772   0.000   0.000
  0.002   0.000   0.001  -0.016   0.000   0.000  -0.772   0.000
  0.000  -0.000   0.001   0.000  -0.018   0.000   0.000  -0.772
 total augmentation occupancy for first ion, spin component:           1
  1.444  -1.106   0.043  -0.042   0.034   0.002  -0.020   0.002
 -1.106   0.978   0.022   0.085   0.014   0.021   0.007   0.016
  0.043   0.022   1.139  -0.050  -0.058   0.181  -0.015  -0.015
 -0.042   0.085  -0.050   1.079  -0.015  -0.016   0.167  -0.007
  0.034   0.014  -0.058  -0.015   1.194  -0.015  -0.007   0.199
  0.002   0.021   0.181  -0.016  -0.015   0.032  -0.005  -0.002
 -0.020   0.007  -0.015   0.167  -0.007  -0.005   0.030  -0.003
  0.002   0.016  -0.015  -0.007   0.199  -0.002  -0.003   0.035


------------------------ aborting loop because EDIFF is reached ----------------------------------------


    CHARGE:  cpu time      0.1996: real time      0.2004
    FORLOC:  cpu time      0.0313: real time      0.0314
    FORNL :  cpu time      1.0736: real time      1.0787
    STRESS:  cpu time      3.3984: real time      3.4143
    FORHAR:  cpu time      0.1102: real time      0.1107
    MIXING:  cpu time      0.0122: real time      0.0123
    OFIELD:  cpu time      0.0001: real time      0.0001

  FORCE on cell =-STRESS in cart. coord.  units (eV):
  Direction    XX          YY          ZZ          XY          YZ          ZX
  --------------------------------------------------------------------------------------
  Alpha Z     0.62641     0.62641     0.62641
  Ewald     160.12235   340.05745   500.54970   226.78185    27.32611   -41.93567
  Hartree   402.14475   520.20693   612.63521   142.63771    17.48477   -25.33542
  E(xc)     -77.53383   -77.21672   -76.89013     0.44753     0.05928    -0.07831
  Local    -762.55103 -1060.33847 -1309.86802  -367.74588   -44.47722    66.86312
  n-local   -31.75432   -31.50226   -31.90491     0.31078     0.06134    -0.01174
  augment    -0.63011    -0.60126    -0.60540     0.02562     0.00350    -0.00267
  Kinetic   312.30661   310.27474   303.82942    -4.55062    -0.72895     1.24967
  Fock        0.00000     0.00000     0.00000     0.00000     0.00000     0.00000
  -------------------------------------------------------------------------------------
  Total       2.73083     1.50683    -1.62773    -2.09301    -0.27117     0.74897
  in kB       1.29638     0.71532    -0.77272    -0.99359    -0.12873     0.35555
  external pressure =        0.41 kB  Pullay stress =        0.00 kB


 VOLUME and BASIS-vectors are now :
 -----------------------------------------------------------------------------
  energy-cutoff  :      520.00
  volume of cell :     3375.00
      direct lattice vectors                 reciprocal lattice vectors
    15.000000000  0.000000000  0.000000000     0.066666667  0.000000000  0.000000000
     0.000000000 15.000000000  0.000000000     0.000000000  0.066666667  0.000000000
     0.000000000  0.000000000 15.000000000     0.000000000  0.000000000  0.066666667

  length of vectors
    15.000000000 15.000000000 15.000000000     0.066666667  0.066666667  0.066666667


 FORCES acting on ions
    electron-ion (+dipol)            ewald-force                    non-local-force                 convergence-correction
 -----------------------------------------------------------------------------------------------
   -.780E+02 -.933E+02 0.913E+02   0.784E+02 0.939E+02 -.901E+02   -.249E+01 -.315E+01 0.710E+00   -.259E-04 -.639E-04 -.130E-03
   0.479E+02 0.957E+02 0.139E+03   -.482E+02 -.964E+02 -.139E+03   0.248E+00 0.826E+00 0.231E+01   -.102E-03 -.132E-03 0.480E-04
   0.848E+02 0.106E+03 -.115E+03   -.854E+02 -.107E+03 0.114E+03   0.147E+01 0.190E+01 -.149E+01   -.878E-04 -.146E-03 -.101E-03
   -.355E+02 -.737E+02 -.127E+03   0.356E+02 0.738E+02 0.128E+03   -.286E+00 -.690E+00 -.267E+01   -.509E-04 -.659E-04 0.707E-04
   -.694E+02 0.241E+01 0.332E+02   0.776E+02 -.371E+01 -.360E+02   -.595E+01 0.142E+01 0.223E+01   0.386E-04 -.101E-04 -.273E-04
   0.235E+02 -.593E+02 0.436E+02   -.275E+02 0.661E+02 -.478E+02   0.334E+01 -.464E+01 0.317E+01   -.209E-04 0.275E-04 -.340E-04
   0.227E+02 0.417E+02 0.551E+02   -.247E+02 -.454E+02 -.600E+02   0.188E+01 0.340E+01 0.448E+01   0.528E-05 0.140E-04 0.282E-04
   0.361E+02 0.463E+02 -.416E+02   -.391E+02 -.502E+02 0.451E+02   0.294E+01 0.380E+01 -.331E+01   0.124E-04 0.153E-04 -.243E-04
   -.598E+02 -.362E+01 -.453E+02   0.658E+02 0.300E+01 0.490E+02   -.532E+01 0.327E+00 -.280E+01   0.489E-04 -.446E-05 0.359E-04
   0.289E+02 -.604E+02 -.341E+02   -.325E+02 0.659E+02 0.364E+02   0.300E+01 -.488E+01 -.171E+01   -.310E-04 0.448E-04 0.258E-04
 -----------------------------------------------------------------------------------------------
   0.118E+01 0.169E+01 -.917E+00   0.284E-13 0.426E-13 0.000E+00   -.118E+01 -.169E+01 0.924E+00   -.213E-03 -.321E-03 -.108E-03
 
 
 POSITION                                       TOTAL-FORCE (eV/Angst)
 -----------------------------------------------------------------------------------
      7.96800      8.04100      6.80100        -2.109854     -2.544107      1.871023
      7.10400      6.77200      6.73400        -0.110101      0.099076      2.524366
      6.89100      6.69600      8.10000         0.906472      0.797650     -2.021408
      7.71500      7.96900      8.38200        -0.221729     -0.641129     -1.984998
      8.92400      7.83600      6.45200         2.193391      0.107360     -0.599720
      7.45900      8.79300      6.30200        -0.605939      2.122203     -1.036463
      6.76800      6.16000      5.91400        -0.121146     -0.272100     -0.420358
      6.34600      5.99700      8.72400        -0.102245     -0.052884      0.205387
      8.65000      7.90100      8.89200         0.738736     -0.295068      0.866677
      7.17500      8.83600      8.69900        -0.567584      0.678998      0.595493
 -----------------------------------------------------------------------------------
    total drift:                                0.001690     -0.000999      0.006844


--------------------------------------------------------------------------------------------------------



  FREE ENERGIE OF THE ION-ELECTRON SYSTEM (eV)
  ---------------------------------------------------
  free  energy   TOTEN  =       -56.19822123 eV

  energy  without entropy=      -56.19822123  energy(sigma->0) =      -56.19822123
 


--------------------------------------------------------------------------------------------------------


    POTLOK:  cpu time      0.5034: real time      0.5059


--------------------------------------------------------------------------------------------------------


 stress matrix after NEB project (eV)
      2.73083     -2.09301      0.74897
     -2.09301      1.50683     -0.27117
      0.74897     -0.27117     -1.62773
  FORCES: max atom, RMS     3.797985    2.115027
  FORCE total and by dimension    6.688303    2.544107
  Stress total and by dimension    4.733695    2.730833
     LOOP+:  cpu time     30.0499: real time     30.2006
    4ORBIT:  cpu time      0.0000: real time      0.0000

 total amount of memory used by VASP MPI-rank0   224781. kBytes
=======================================================================

   base      :      30000. kBytes
   nonlr-proj:       1257. kBytes
   fftplans  :     123538. kBytes
   grid      :      67787. kBytes
   one-center:         15. kBytes
   wavefun   :       2184. kBytes
 
  
  
 General timing and accounting informations for this job:
 ========================================================
  
                  Total CPU time used (sec):       36.618
                            User time (sec):       33.461
                          System time (sec):        3.157
                         Elapsed time (sec):       37.689
  
                   Maximum memory used (kb):      561128.
                   Average memory used (kb):          N/A
  
                          Minor page faults:       160736
                          Major page faults:         5444
                 Voluntary context switches:         3101
