 vasp.6.4.2 20Jul23 (build Apr 10 2024 13:39:58) complex                        
  
 executed on             LinuxIFC date 2024.05.18  11:45:30
 running   16 mpi-ranks, on    1 nodes
 distrk:  each k-point on   16 cores,    1 groups
 distr:  one band on NCORE=   2 cores,    8 groups


--------------------------------------------------------------------------------------------------------


 INCAR:
   ISTART = 0
   ISPIN = 1
   LREAL = Auto
   ENCUT = 520
   NPAR = 8
   LPLANE = .TRUE.
   LSCALU = .FALSE.
   NSIM = 4
   LWAVE = .FALSE.
   LCHARG = .FALSE.
   ADDGRID = .TRUE.
   LASPH = .TRUE.
   PREC = Accurate
   ISMEAR = 0
   SIGMA = 0.05
   EDIFF = 1E-06
   NSW = 0
   TEBEG = 300
   TEEND = 700     	
   ISYM = 0
   NWRITE = 2

 POTCAR:   PAW_PBE C 08Apr2002                    
 POTCAR:   PAW_PBE H 15Jun2001                    
 POTCAR:   PAW_PBE C 08Apr2002                    
   VRHFIN =C: s2p2                                                                                  
   LEXCH  = PE                                                                                      
   EATOM  =   147.1560 eV,   10.8157 Ry                                                             
                                                                                                    
   TITEL  = PAW_PBE C 08Apr2002                                                                     
   LULTRA =        F    use ultrasoft PP ?                                                          
   IUNSCR =        0    unscreen: 0-lin 1-nonlin 2-no                                               
   RPACOR =     .000    partial core radius                                                         
   POMASS =   12.011; ZVAL   =    4.000    mass and valenz                                          
   RCORE  =    1.500    outmost cutoff radius                                                       
   RWIGS  =    1.630; RWIGS  =     .863    wigner-seitz radius (au A)                               
   ENMAX  =  400.000; ENMIN  =  300.000 eV                                                          
   ICORE  =        2    local potential                                                             
   LCOR   =        T    correct aug charges                                                         
   LPAW   =        T    paw PP                                                                      
   EAUG   =  644.873                                                                                
   DEXC   =     .000                                                                                
   RMAX   =    2.266    core radius for proj-oper                                                   
   RAUG   =    1.300    factor for augmentation sphere                                              
   RDEP   =    1.501    radius for radial grids                                                     
   RDEPT  =    1.300    core radius for aug-charge                                                  
   QCUT   =   -5.516; QGAM   =   11.032    optimization parameters                                  
                                                                                                    
   Description                                                                                      
     l     E      TYP  RCUT    TYP  RCUT                                                            
     0   .000     23  1.200                                                                         
     0   .000     23  1.200                                                                         
     1   .000     23  1.500                                                                         
     1  2.500     23  1.500                                                                         
     2   .000      7  1.500                                                                         
  local pseudopotential read in
  atomic valenz-charges read in
  non local Contribution for L=           0  read in
    real space projection operators read in
  non local Contribution for L=           0  read in
    real space projection operators read in
  non local Contribution for L=           1  read in
    real space projection operators read in
  non local Contribution for L=           1  read in
    real space projection operators read in
    PAW grid and wavefunctions read in
 
   number of l-projection  operators is LMAX  =           4
   number of lm-projection operators is LMMAX =           8
 
 POTCAR:   PAW_PBE H 15Jun2001                    
   VRHFIN =H: ultrasoft test                                                                        
   LEXCH  = PE                                                                                      
   EATOM  =    12.4884 eV,     .9179 Ry                                                             
                                                                                                    
   TITEL  = PAW_PBE H 15Jun2001                                                                     
   LULTRA =        F    use ultrasoft PP ?                                                          
   IUNSCR =        0    unscreen: 0-lin 1-nonlin 2-no                                               
   RPACOR =     .000    partial core radius                                                         
   POMASS =    1.000; ZVAL   =    1.000    mass and valenz                                          
   RCORE  =    1.100    outmost cutoff radius                                                       
   RWIGS  =     .700; RWIGS  =     .370    wigner-seitz radius (au A)                               
   ENMAX  =  250.000; ENMIN  =  200.000 eV                                                          
   RCLOC  =     .701    cutoff for local pot                                                        
   LCOR   =        T    correct aug charges                                                         
   LPAW   =        T    paw PP                                                                      
   EAUG   =  400.000                                                                                
   RMAX   =    2.174    core radius for proj-oper                                                   
   RAUG   =    1.200    factor for augmentation sphere                                              
   RDEP   =    1.112    radius for radial grids                                                     
   QCUT   =   -5.749; QGAM   =   11.498    optimization parameters                                  
                                                                                                    
   Description                                                                                      
     l     E      TYP  RCUT    TYP  RCUT                                                            
     0   .000     23  1.100                                                                         
     0   .500     23  1.100                                                                         
     1  -.300     23  1.100                                                                         
  local pseudopotential read in
  atomic valenz-charges read in
  non local Contribution for L=           0  read in
    real space projection operators read in
  non local Contribution for L=           0  read in
    real space projection operators read in
  non local Contribution for L=           1  read in
    real space projection operators read in
    PAW grid and wavefunctions read in
 
   number of l-projection  operators is LMAX  =           3
   number of lm-projection operators is LMMAX =           5
 
 Optimization of the real space projectors (new method)

 maximal supplied QI-value         = 25.13
 optimisation between [QCUT,QGAM] = [ 11.56, 23.12] = [ 37.43,149.72] Ry 
 Optimized for a Real-space Cutoff    1.04 Angstroem

   l    n(q)    QCUT    max X(q) W(low)/X(q) W(high)/X(q)  e(spline) 
   0      7    11.561     5.582    0.47E-04    0.94E-04    0.17E-07
   0      7    11.561    69.432    0.20E-03    0.59E-03    0.21E-06
   1      7    11.561     2.780    0.24E-04    0.70E-04    0.44E-07
   1      7    11.561     4.549    0.18E-03    0.25E-03    0.12E-06
 Optimization of the real space projectors (new method)

 maximal supplied QI-value         = 34.20
 optimisation between [QCUT,QGAM] = [ 11.63, 23.26] = [ 37.87,151.49] Ry 
 Optimized for a Real-space Cutoff    1.21 Angstroem

   l    n(q)    QCUT    max X(q) W(low)/X(q) W(high)/X(q)  e(spline) 
   0      8    11.629     4.436    0.19E-04    0.32E-04    0.47E-07
   0      8    11.629    16.131    0.16E-03    0.33E-03    0.21E-06
   1      8    11.629     4.654    0.18E-03    0.16E-03    0.26E-06
 PAW_PBE C 08Apr2002                    :
 energy of atom  1       EATOM= -147.1560
 kinetic energy error for atom=    0.0071 (will be added to EATOM!!)
 PAW_PBE H 15Jun2001                    :
 energy of atom  2       EATOM=  -12.4884
 kinetic energy error for atom=    0.0014 (will be added to EATOM!!)
 
 
 POSCAR:  C  H
  positions in cartesian coordinates
  No initial velocities read in
 exchange correlation table for  LEXCH =        8
   RHO(1)=    0.500       N(1)  =     2000
   RHO(2)=  100.500       N(2)  =     4000

 VTST: version 4.1, (05/19/21)

 CHAIN: initializing optimizer
 
 OPT: Using VASP Dynamics algorithm
 CHAIN: Read ICHAIN            0
 
 POSCAR:  C  H
  positions in cartesian coordinates
  No initial velocities read in
 


--------------------------------------------------------------------------------------------------------


 ion  position               nearest neighbor table
   1  0.524  0.475  0.419-   5 1.07   6 1.08   2 1.29
   2  0.491  0.548  0.451-   7 1.09   1 1.29   3 1.51
   3  0.494  0.550  0.551-   8 1.14   4 1.35   2 1.51
   4  0.485  0.465  0.578-   9 1.06  10 1.14   3 1.35
   5  0.517  0.461  0.349-   1 1.07
   6  0.567  0.431  0.456-   1 1.08
   7  0.458  0.597  0.409-   2 1.09
   8  0.511  0.610  0.594-   3 1.14
   9  0.458  0.410  0.541-   4 1.06
  10  0.495  0.451  0.652-   4 1.14
 

IMPORTANT INFORMATION: All symmetrisations will be switched off!
NOSYMM: (Re-)initialisation of all symmetry stuff for point group C_1.


----------------------------------------------------------------------------------------

                                     Primitive cell                                     

  volume of cell :    3375.0000

  direct lattice vectors                    reciprocal lattice vectors
    15.000000000  0.000000000  0.000000000     0.066666667  0.000000000  0.000000000
     0.000000000 15.000000000  0.000000000     0.000000000  0.066666667  0.000000000
     0.000000000  0.000000000 15.000000000     0.000000000  0.000000000  0.066666667

  length of vectors
    15.000000000 15.000000000 15.000000000     0.066666667  0.066666667  0.066666667

  position of ions in fractional coordinates (direct lattice)
     0.523866653  0.475466665  0.418866666
     0.491466681  0.548199972  0.450533326
     0.493533325  0.550000000  0.551133347
     0.484533342  0.464733346  0.578133329
     0.516799990  0.461133321  0.349400012
     0.567133331  0.431400013  0.455866655
     0.458399995  0.597400030  0.408600012
     0.511333338  0.610133362  0.594333331
     0.458333333  0.410400009  0.540733337
     0.494533348  0.451066653  0.652400017

  ion indices of the primitive-cell ions
   primitive index   ion index
                 1           1
                 2           2
                 3           3
                 4           4
                 5           5
                 6           6
                 7           7
                 8           8
                 9           9
                10          10

----------------------------------------------------------------------------------------

 
 
 KPOINTS: K-Spacing Value to Generate K-Mesh: 1.00

Automatic generation of k-mesh.
 Grid dimensions read from file:
 generate k-points for:    1    1    1

 Generating k-lattice:

  Cartesian coordinates                     Fractional coordinates (reciprocal lattice)
     0.066666667  0.000000000  0.000000000     1.000000000  0.000000000  0.000000000
     0.000000000  0.066666667  0.000000000     0.000000000  1.000000000  0.000000000
     0.000000000  0.000000000  0.066666667     0.000000000  0.000000000  1.000000000

  Length of vectors
     0.066666667  0.066666667  0.066666667

  Shift w.r.t. Gamma in fractional coordinates (k-lattice)
     0.000000000  0.000000000  0.000000000

 
 Subroutine IBZKPT returns following result:
 ===========================================
 
 Found      1 irreducible k-points:
 
 Following reciprocal coordinates:
            Coordinates               Weight
  0.000000  0.000000  0.000000      1.000000
 
 Following cartesian coordinates:
            Coordinates               Weight
  0.000000  0.000000  0.000000      1.000000
 


--------------------------------------------------------------------------------------------------------




 Dimension of arrays:
   k-points           NKPTS =      1   k-points in BZ     NKDIM =      1   number of bands    NBANDS=     24
   number of dos      NEDOS =    301   number of ions     NIONS =     10
   non local maximal  LDIM  =      4   non local SUM 2l+1 LMDIM =      8
   total plane-waves  NPLWV = ******
   max r-space proj   IRMAX =   3145   max aug-charges    IRDMAX=  39494
   dimension x,y,z NGX =   112 NGY =  112 NGZ =  112
   dimension x,y,z NGXF=   224 NGYF=  224 NGZF=  224
   support grid    NGXF=   448 NGYF=  448 NGZF=  448
   ions per type =               4   6
   NGX,Y,Z   is equivalent  to a cutoff of  12.41, 12.41, 12.41 a.u.
   NGXF,Y,Z  is equivalent  to a cutoff of  24.83, 24.83, 24.83 a.u.

 SYSTEM =  unknown system                          
 POSCAR =   C  H                                   

 Startparameter for this run:
   NWRITE =      2    write-flag & timer
   PREC   = accura    normal or accurate (medium, high low for compatibility)
   ISTART =      0    job   : 0-new  1-cont  2-samecut
   ICHARG =      2    charge: 1-file 2-atom 10-const
   ISPIN  =      1    spin polarized calculation?
   LNONCOLLINEAR =      F non collinear calculations
   LSORBIT =      F    spin-orbit coupling
   INIWAV =      1    electr: 0-lowe 1-rand  2-diag
   LASPH  =      T    aspherical Exc in radial PAW
 Electronic Relaxation 1
   ENCUT  =  520.0 eV  38.22 Ry    6.18 a.u.  27.89 27.89 27.89*2*pi/ulx,y,z
   ENINI  =  520.0     initial cutoff
   ENAUG  =  644.9 eV  augmentation charge cutoff
   NELM   =     60;   NELMIN=  2; NELMDL= -5     # of ELM steps 
   EDIFF  = 0.1E-05   stopping-criterion for ELM
   LREAL  =      T    real-space projection
   NLSPLINE    = F    spline interpolate recip. space projectors
   LCOMPAT=      F    compatible to vasp.4.4
   GGA_COMPAT  = T    GGA compatible to vasp.4.4-vasp.4.6
   LMAXPAW     = -100 max onsite density
   LMAXMIX     =    2 max onsite mixed and CHGCAR
   VOSKOWN=      0    Vosko Wilk Nusair interpolation
   ROPT   =   -0.00025  -0.00025
 Ionic relaxation
   EDIFFG = 0.1E-04   stopping-criterion for IOM
   NSW    =      0    number of steps for IOM
   NBLOCK =      1;   KBLOCK =      1    inner block; outer block 
   IBRION =     -1    ionic relax: 0-MD 1-quasi-New 2-CG
   NFREE  =      0    steps in history (QN), initial steepest desc. (CG)
   ISIF   =      2    stress and relaxation
   IWAVPR =     10    prediction:  0-non 1-charg 2-wave 3-comb
   ISYM   =      0    0-nonsym 1-usesym 2-fastsym
   LCORR  =      T    Harris-Foulkes like correction to forces

   POTIM  = 0.5000    time-step for ionic-motion
   TEIN   =    0.0    initial temperature
   TEBEG  =  300.0;   TEEND  = 700.0 temperature during run
   SMASS  =  -3.00    Nose mass-parameter (am)
   estimated Nose-frequenzy (Omega)   =  0.10E-29 period in steps = 0.13E+47 mass=  -0.514E-26a.u.
   SCALEE = 1.0000    scale energy and forces
   NPACO  =    256;   APACO  = 10.0  distance and # of slots for P.C.
   PSTRESS=    0.0 pullay stress

  Mass of Ions in am
   POMASS =  12.01  1.00
  Ionic Valenz
   ZVAL   =   4.00  1.00
  Atomic Wigner-Seitz radii
   RWIGS  =  -1.00 -1.00
  virtual crystal weights 
   VCA    =   1.00  1.00
   NELECT =      22.0000    total number of electrons
   NUPDOWN=      -1.0000    fix difference up-down

 DOS related values:
   EMIN   =  10.00;   EMAX   =-10.00  energy-range for DOS
   EFERMI =   0.00;   METHOD = LEGACY      
   ISMEAR =     0;   SIGMA  =   0.05  broadening in eV -4-tet -1-fermi 0-gaus

 Electronic relaxation 2 (details)
   IALGO  =     38    algorithm
   LDIAG  =      T    sub-space diagonalisation (order eigenvalues)
   LSUBROT=      F    optimize rotation matrix (better conditioning)
   TURBO    =      0    0=normal 1=particle mesh
   IRESTART =      0    0=no restart 2=restart with 2 vectors
   NREBOOT  =      0    no. of reboots
   NMIN     =      0    reboot dimension
   EREF     =   0.00    reference energy to select bands
   IMIX   =      4    mixing-type and parameters
     AMIX     =   0.40;   BMIX     =  1.00
     AMIX_MAG =   1.60;   BMIX_MAG =  1.00
     AMIN     =   0.10
     WC   =   100.;   INIMIX=   1;  MIXPRE=   1;  MAXMIX= -45

 Intra band minimization:
   WEIMIN = 0.0000     energy-eigenvalue tresh-hold
   EBREAK =  0.10E-07  absolut break condition
   DEPER  =   0.30     relativ break condition  

   TIME   =   0.40     timestep for ELM

  volume/ion in A,a.u.               =     337.50      2277.56
  Fermi-wavevector in a.u.,A,eV,Ry     =   0.305814  0.577905  1.272449  0.093522
  Thomas-Fermi vector in A             =   1.179187
 
 Write flags
   LWAVE        =      F    write WAVECAR
   LDOWNSAMPLE  =      F    k-point downsampling of WAVECAR
   LCHARG       =      F    write CHGCAR
   LVTOT        =      F    write LOCPOT, total local potential
   LVHAR        =      F    write LOCPOT, Hartree potential only
   LELF         =      F    write electronic localiz. function (ELF)
   LORBIT       =      0    0 simple, 1 ext, 2 COOP (PROOUT), +10 PAW based schemes


 Dipole corrections
   LMONO  =      F    monopole corrections only (constant potential shift)
   LDIPOL =      F    correct potential (dipole corrections)
   IDIPOL =      0    1-x, 2-y, 3-z, 4-all directions 
   EPSILON=  1.0000000 bulk dielectric constant

 Exchange correlation treatment:
   GGA     =    --    GGA type
   LEXCH   =     8    internal setting for exchange type
   LIBXC   =     F    Libxc                    
   VOSKOWN =     0    Vosko Wilk Nusair interpolation
   LHFCALC =     F    Hartree Fock is set to
   LHFONE  =     F    Hartree Fock one center treatment
   AEXX    =    0.0000 exact exchange contribution

 Linear response parameters
   LEPSILON=     F    determine dielectric tensor
   LRPA    =     F    only Hartree local field effects (RPA)
   LNABLA  =     F    use nabla operator in PAW spheres
   LVEL    =     F    velocity operator in full k-point grid
   CSHIFT  =0.1000    complex shift for real part using Kramers Kronig
   OMEGAMAX=  -1.0    maximum frequency
   DEG_THRESHOLD= 0.2000000E-02 threshold for treating states as degnerate
   RTIME   =   -0.100 relaxation time in fs
  (WPLASMAI=    0.000 imaginary part of plasma frequency in eV, 0.658/RTIME)
   DFIELD  = 0.0000000 0.0000000 0.0000000 field for delta impulse in time
 
  Optional k-point grid parameters
   LKPOINTS_OPT  =     F    use optional k-point grid
   KPOINTS_OPT_MODE=     1    mode for optional k-point grid
 
 Orbital magnetization related:
   ORBITALMAG=     F  switch on orbital magnetization
   LCHIMAG   =     F  perturbation theory with respect to B field
   DQ        =  0.001000  dq finite difference perturbation B field
   LLRAUG    =     F  two centre corrections for induced B field
   LBONE     =     F  B-component reconstruction in AE one-centre
   LVGVCALC  =     T  calculate vGv susceptibility
   LVGVAPPL  =     F  apply vGv susceptibility instead of pGv for G=0

 Random number generation:
   RANDOM_GENERATOR = DEFAULT
   PCG_SEED         = not used


--------------------------------------------------------------------------------------------------------


 Static calculation
 charge density and potential will be updated during run
 non-spin polarized calculation
 Variant of blocked Davidson
 Davidson routine will perform the subspace rotation
 perform sub-space diagonalisation
    after iterative eigenvector-optimisation
 modified Broyden-mixing scheme, WC =      100.0
 initial mixing is a Kerker type mixing with AMIX =  0.4000 and BMIX =      1.0000
 Hartree-type preconditioning will be used
 using additional bands           13
 real space projection scheme for non local part
 calculate Harris-corrections to forces 
   (improved forces if not selfconsistent)
 use gradient corrections 
 use of overlap-Matrix (Vanderbilt PP)
 Gauss-broadening in eV      SIGMA  =   0.05


--------------------------------------------------------------------------------------------------------


  energy-cutoff  :      520.00
  volume of cell :     3375.00
      direct lattice vectors                 reciprocal lattice vectors
    15.000000000  0.000000000  0.000000000     0.066666667  0.000000000  0.000000000
     0.000000000 15.000000000  0.000000000     0.000000000  0.066666667  0.000000000
     0.000000000  0.000000000 15.000000000     0.000000000  0.000000000  0.066666667

  length of vectors
    15.000000000 15.000000000 15.000000000     0.066666667  0.066666667  0.066666667


 
 k-points in units of 2pi/SCALE and weight: K-Spacing Value to Generate K-Mesh: 1.00
   0.00000000  0.00000000  0.00000000       1.000
 
 k-points in reciprocal lattice and weights: K-Spacing Value to Generate K-Mesh: 1.00
   0.00000000  0.00000000  0.00000000       1.000
 
 position of ions in fractional coordinates (direct lattice) 
   0.52386665  0.47546666  0.41886667
   0.49146668  0.54819997  0.45053333
   0.49353333  0.55000000  0.55113335
   0.48453334  0.46473335  0.57813333
   0.51679999  0.46113332  0.34940001
   0.56713333  0.43140001  0.45586665
   0.45840000  0.59740003  0.40860001
   0.51133334  0.61013336  0.59433333
   0.45833333  0.41040001  0.54073334
   0.49453335  0.45106665  0.65240002
 
 position of ions in cartesian coordinates  (Angst):
   7.85799980  7.13199997  6.28299999
   7.37200022  8.22299957  6.75799990
   7.40299988  8.25000000  8.26700020
   7.26800013  6.97100019  8.67199993
   7.75199986  6.91699982  5.24100018
   8.50699997  6.47100019  6.83799982
   6.87599993  8.96100044  6.12900019
   7.67000008  9.15200043  8.91499996
   6.87500000  6.15600014  8.11100006
   7.41800022  6.76599979  9.78600025
 


--------------------------------------------------------------------------------------------------------


 k-point   1 :   0.0000 0.0000 0.0000  plane waves:   90879

 maximum and minimum number of plane-waves per node :     45467    45412

 maximum number of plane-waves:     90879
 maximum index in each direction: 
   IXMAX=   27   IYMAX=   27   IZMAX=   27
   IXMIN=  -27   IYMIN=  -27   IZMIN=  -27


 real space projection operators:
  total allocation   :       1186.79 KBytes
  max/ min on nodes  :        593.73        593.06


 parallel 3D FFT for wavefunctions:
    minimum data exchange during FFTs selected (reduces bandwidth)
 parallel 3D FFT for charge:
    minimum data exchange during FFTs selected (reduces bandwidth)


 total amount of memory used by VASP MPI-rank0   224783. kBytes
=======================================================================

   base      :      30000. kBytes
   nonlr-proj:       1259. kBytes
   fftplans  :     123538. kBytes
   grid      :      67787. kBytes
   one-center:         15. kBytes
   wavefun   :       2184. kBytes
 
     INWAV:  cpu time      0.0000: real time      0.0000
 Broyden mixing: mesh for mixing (old mesh)
   NGX = 55   NGY = 55   NGZ = 55
  (NGX  =224   NGY  =224   NGZ  =224)
  gives a total of 166375 points

 initial charge density was supplied:
 charge density of overlapping atoms calculated
 number of electron      22.0000000 magnetization 
 keeping initial charge density in first step


--------------------------------------------------------------------------------------------------------


 Maximum index for non-local projection operator         1514
 Maximum index for augmentation-charges         2421 (set IRDMAX)


--------------------------------------------------------------------------------------------------------


 First call to EWALD:  gamma=   0.118
 Maximum number of real-space cells 3x 3x 3
 Maximum number of reciprocal cells 3x 3x 3

    FEWALD:  cpu time      0.0010: real time      0.0010


--------------------------------------- Ionic step        1  -------------------------------------------




--------------------------------------- Iteration      1(   1)  ---------------------------------------


    POTLOK:  cpu time      0.3371: real time      0.3390
    SETDIJ:  cpu time      0.1927: real time      0.1935
     EDDAV:  cpu time      0.4186: real time      0.4210
       DOS:  cpu time      0.0002: real time      0.0002
    --------------------------------------------
      LOOP:  cpu time      0.9487: real time      0.9538

 eigenvalue-minimisations  :    64
 total energy-change (2. order) : 0.1080331E+03  (-0.5294977E+03)
 number of electron      22.0000000 magnetization 
 augmentation part       22.0000000 magnetization 

 Free energy of the ion-electron system (eV)
  ---------------------------------------------------
  alpha Z        PSCENC =         0.62641250
  Ewald energy   TEWEN  =       947.91281482
  -Hartree energ DENC   =     -1368.15555524
  -exchange      EXHF   =         0.00000000
  -V(xc)+E(xc)   XCENC  =        67.62865295
  PAW double counting   =       156.01372664     -160.66969168
  entropy T*S    EENTRO =        -0.00487185
  eigenvalues    EBANDS =      -198.83578328
  atomic energy  EATOM  =       663.51739852
  Solvation  Ediel_sol  =         0.00000000
  ---------------------------------------------------
  free energy    TOTEN  =       108.03310338 eV

  energy without entropy =      108.03797523  energy(sigma->0) =      108.03553930


--------------------------------------------------------------------------------------------------------




--------------------------------------- Iteration      1(   2)  ---------------------------------------


     EDDAV:  cpu time      0.4815: real time      0.4842
       DOS:  cpu time      0.0001: real time      0.0001
    --------------------------------------------
      LOOP:  cpu time      0.4816: real time      0.4843

 eigenvalue-minimisations  :    80
 total energy-change (2. order) :-0.1291333E+03  (-0.1264736E+03)
 number of electron      22.0000000 magnetization 
 augmentation part       22.0000000 magnetization 

 Free energy of the ion-electron system (eV)
  ---------------------------------------------------
  alpha Z        PSCENC =         0.62641250
  Ewald energy   TEWEN  =       947.91281482
  -Hartree energ DENC   =     -1368.15555524
  -exchange      EXHF   =         0.00000000
  -V(xc)+E(xc)   XCENC  =        67.62865295
  PAW double counting   =       156.01372664     -160.66969168
  entropy T*S    EENTRO =        -0.00000000
  eigenvalues    EBANDS =      -327.97400348
  atomic energy  EATOM  =       663.51739852
  Solvation  Ediel_sol  =         0.00000000
  ---------------------------------------------------
  free energy    TOTEN  =       -21.10024497 eV

  energy without entropy =      -21.10024497  energy(sigma->0) =      -21.10024497


--------------------------------------------------------------------------------------------------------




--------------------------------------- Iteration      1(   3)  ---------------------------------------


     EDDAV:  cpu time      0.4415: real time      0.4440
       DOS:  cpu time      0.0001: real time      0.0001
    --------------------------------------------
      LOOP:  cpu time      0.4416: real time      0.4441

 eigenvalue-minimisations  :    72
 total energy-change (2. order) :-0.3979840E+02  (-0.3973214E+02)
 number of electron      22.0000000 magnetization 
 augmentation part       22.0000000 magnetization 

 Free energy of the ion-electron system (eV)
  ---------------------------------------------------
  alpha Z        PSCENC =         0.62641250
  Ewald energy   TEWEN  =       947.91281482
  -Hartree energ DENC   =     -1368.15555524
  -exchange      EXHF   =         0.00000000
  -V(xc)+E(xc)   XCENC  =        67.62865295
  PAW double counting   =       156.01372664     -160.66969168
  entropy T*S    EENTRO =        -0.00000000
  eigenvalues    EBANDS =      -367.77240125
  atomic energy  EATOM  =       663.51739852
  Solvation  Ediel_sol  =         0.00000000
  ---------------------------------------------------
  free energy    TOTEN  =       -60.89864274 eV

  energy without entropy =      -60.89864274  energy(sigma->0) =      -60.89864274


--------------------------------------------------------------------------------------------------------




--------------------------------------- Iteration      1(   4)  ---------------------------------------


     EDDAV:  cpu time      0.4408: real time      0.4434
       DOS:  cpu time      0.0001: real time      0.0001
    --------------------------------------------
      LOOP:  cpu time      0.4409: real time      0.4435

 eigenvalue-minimisations  :    72
 total energy-change (2. order) :-0.2021611E+01  (-0.2019655E+01)
 number of electron      22.0000000 magnetization 
 augmentation part       22.0000000 magnetization 

 Free energy of the ion-electron system (eV)
  ---------------------------------------------------
  alpha Z        PSCENC =         0.62641250
  Ewald energy   TEWEN  =       947.91281482
  -Hartree energ DENC   =     -1368.15555524
  -exchange      EXHF   =         0.00000000
  -V(xc)+E(xc)   XCENC  =        67.62865295
  PAW double counting   =       156.01372664     -160.66969168
  entropy T*S    EENTRO =        -0.00000000
  eigenvalues    EBANDS =      -369.79401198
  atomic energy  EATOM  =       663.51739852
  Solvation  Ediel_sol  =         0.00000000
  ---------------------------------------------------
  free energy    TOTEN  =       -62.92025347 eV

  energy without entropy =      -62.92025347  energy(sigma->0) =      -62.92025347


--------------------------------------------------------------------------------------------------------




--------------------------------------- Iteration      1(   5)  ---------------------------------------


     EDDAV:  cpu time      0.3663: real time      0.3684
       DOS:  cpu time      0.0001: real time      0.0001
    CHARGE:  cpu time      0.1991: real time      0.1999
    MIXING:  cpu time      0.0114: real time      0.0115
    --------------------------------------------
      LOOP:  cpu time      0.5771: real time      0.5800

 eigenvalue-minimisations  :    56
 total energy-change (2. order) :-0.1701888E-01  (-0.1701521E-01)
 number of electron      22.0000000 magnetization 
 augmentation part        0.5883517 magnetization 

 Broyden mixing:
  rms(total) = 0.12274E+01    rms(broyden)= 0.12272E+01
  rms(prec ) = 0.14763E+01
  weight for this iteration     100.00

 Free energy of the ion-electron system (eV)
  ---------------------------------------------------
  alpha Z        PSCENC =         0.62641250
  Ewald energy   TEWEN  =       947.91281482
  -Hartree energ DENC   =     -1368.15555524
  -exchange      EXHF   =         0.00000000
  -V(xc)+E(xc)   XCENC  =        67.62865295
  PAW double counting   =       156.01372664     -160.66969168
  entropy T*S    EENTRO =        -0.00000000
  eigenvalues    EBANDS =      -369.81103087
  atomic energy  EATOM  =       663.51739852
  Solvation  Ediel_sol  =         0.00000000
  ---------------------------------------------------
  free energy    TOTEN  =       -62.93727235 eV

  energy without entropy =      -62.93727235  energy(sigma->0) =      -62.93727235


--------------------------------------------------------------------------------------------------------




--------------------------------------- Iteration      1(   6)  ---------------------------------------


    POTLOK:  cpu time      0.3090: real time      0.3107
    SETDIJ:  cpu time      0.1908: real time      0.1917
     EDDAV:  cpu time      0.4029: real time      0.4051
       DOS:  cpu time      0.0001: real time      0.0001
    CHARGE:  cpu time      0.1997: real time      0.2005
    MIXING:  cpu time      0.0080: real time      0.0080
    --------------------------------------------
      LOOP:  cpu time      1.1104: real time      1.1161

 eigenvalue-minimisations  :    64
 total energy-change (2. order) : 0.5663368E+01  (-0.8939154E+00)
 number of electron      22.0000000 magnetization 
 augmentation part        0.5376027 magnetization 

 Broyden mixing:
  rms(total) = 0.58466E+00    rms(broyden)= 0.58463E+00
  rms(prec ) = 0.69395E+00
  weight for this iteration     100.00

 eigenvalues of (default mixing * dielectric matrix)
  average eigenvalue GAMMA=   1.5761
  1.5761

 Free energy of the ion-electron system (eV)
  ---------------------------------------------------
  alpha Z        PSCENC =         0.62641250
  Ewald energy   TEWEN  =       947.91281482
  -Hartree energ DENC   =     -1417.36031748
  -exchange      EXHF   =         0.00000000
  -V(xc)+E(xc)   XCENC  =        70.07208314
  PAW double counting   =       232.98853927     -238.22509815
  entropy T*S    EENTRO =        -0.00000000
  eigenvalues    EBANDS =      -316.80573658
  atomic energy  EATOM  =       663.51739852
  Solvation  Ediel_sol  =         0.00000000
  ---------------------------------------------------
  free energy    TOTEN  =       -57.27390395 eV

  energy without entropy =      -57.27390395  energy(sigma->0) =      -57.27390395


--------------------------------------------------------------------------------------------------------




--------------------------------------- Iteration      1(   7)  ---------------------------------------


    POTLOK:  cpu time      0.3098: real time      0.3115
    SETDIJ:  cpu time      0.1877: real time      0.1885
     EDDAV:  cpu time      0.4113: real time      0.4135
       DOS:  cpu time      0.0001: real time      0.0001
    CHARGE:  cpu time      0.2000: real time      0.2008
    MIXING:  cpu time      0.0091: real time      0.0091
    --------------------------------------------
      LOOP:  cpu time      1.1180: real time      1.1236

 eigenvalue-minimisations  :    64
 total energy-change (2. order) : 0.1258917E+01  (-0.4636230E+00)
 number of electron      22.0000000 magnetization 
 augmentation part        0.5045402 magnetization 

 Broyden mixing:
  rms(total) = 0.23757E+00    rms(broyden)= 0.23750E+00
  rms(prec ) = 0.27276E+00
  weight for this iteration     100.00

 eigenvalues of (default mixing * dielectric matrix)
  average eigenvalue GAMMA=   1.6560
  1.6560  1.6560

 Free energy of the ion-electron system (eV)
  ---------------------------------------------------
  alpha Z        PSCENC =         0.62641250
  Ewald energy   TEWEN  =       947.91281482
  -Hartree energ DENC   =     -1455.78317578
  -exchange      EXHF   =         0.00000000
  -V(xc)+E(xc)   XCENC  =        72.20508671
  PAW double counting   =       296.15868842     -301.66000386
  entropy T*S    EENTRO =        -0.00000000
  eigenvalues    EBANDS =      -278.99220867
  atomic energy  EATOM  =       663.51739852
  Solvation  Ediel_sol  =         0.00000000
  ---------------------------------------------------
  free energy    TOTEN  =       -56.01498732 eV

  energy without entropy =      -56.01498732  energy(sigma->0) =      -56.01498732


--------------------------------------------------------------------------------------------------------




--------------------------------------- Iteration      1(   8)  ---------------------------------------


    POTLOK:  cpu time      0.3137: real time      0.3154
    SETDIJ:  cpu time      0.1870: real time      0.1879
     EDDAV:  cpu time      0.4037: real time      0.4060
       DOS:  cpu time      0.0001: real time      0.0001
    CHARGE:  cpu time      0.1985: real time      0.1993
    MIXING:  cpu time      0.0085: real time      0.0085
    --------------------------------------------
      LOOP:  cpu time      1.1116: real time      1.1172

 eigenvalue-minimisations  :    64
 total energy-change (2. order) : 0.1715334E+00  (-0.2355378E-01)
 number of electron      22.0000000 magnetization 
 augmentation part        0.5040830 magnetization 

 Broyden mixing:
  rms(total) = 0.80312E-01    rms(broyden)= 0.80305E-01
  rms(prec ) = 0.10632E+00
  weight for this iteration     100.00

 eigenvalues of (default mixing * dielectric matrix)
  average eigenvalue GAMMA=   1.6206
  2.3919  0.9084  1.5614

 Free energy of the ion-electron system (eV)
  ---------------------------------------------------
  alpha Z        PSCENC =         0.62641250
  Ewald energy   TEWEN  =       947.91281482
  -Hartree energ DENC   =     -1462.23462831
  -exchange      EXHF   =         0.00000000
  -V(xc)+E(xc)   XCENC  =        72.70499955
  PAW double counting   =       303.57965828     -308.98346663
  entropy T*S    EENTRO =        -0.00000000
  eigenvalues    EBANDS =      -272.96664260
  atomic energy  EATOM  =       663.51739852
  Solvation  Ediel_sol  =         0.00000000
  ---------------------------------------------------
  free energy    TOTEN  =       -55.84345388 eV

  energy without entropy =      -55.84345388  energy(sigma->0) =      -55.84345388


--------------------------------------------------------------------------------------------------------




--------------------------------------- Iteration      1(   9)  ---------------------------------------


    POTLOK:  cpu time      0.3142: real time      0.3158
    SETDIJ:  cpu time      0.1868: real time      0.1876
     EDDAV:  cpu time      0.3643: real time      0.3664
       DOS:  cpu time      0.0001: real time      0.0001
    CHARGE:  cpu time      0.1987: real time      0.1995
    MIXING:  cpu time      0.0082: real time      0.0082
    --------------------------------------------
      LOOP:  cpu time      1.0722: real time      1.0776

 eigenvalue-minimisations  :    56
 total energy-change (2. order) : 0.4669323E-01  (-0.7088734E-02)
 number of electron      22.0000000 magnetization 
 augmentation part        0.5021687 magnetization 

 Broyden mixing:
  rms(total) = 0.27676E-01    rms(broyden)= 0.27670E-01
  rms(prec ) = 0.50859E-01
  weight for this iteration     100.00

 eigenvalues of (default mixing * dielectric matrix)
  average eigenvalue GAMMA=   1.4322
  2.2361  1.5557  0.9685  0.9685

 Free energy of the ion-electron system (eV)
  ---------------------------------------------------
  alpha Z        PSCENC =         0.62641250
  Ewald energy   TEWEN  =       947.91281482
  -Hartree energ DENC   =     -1469.10795318
  -exchange      EXHF   =         0.00000000
  -V(xc)+E(xc)   XCENC  =        73.10005885
  PAW double counting   =       309.72102623     -315.08891032
  entropy T*S    EENTRO =        -0.00000000
  eigenvalues    EBANDS =      -266.47760807
  atomic energy  EATOM  =       663.51739852
  Solvation  Ediel_sol  =         0.00000000
  ---------------------------------------------------
  free energy    TOTEN  =       -55.79676065 eV

  energy without entropy =      -55.79676065  energy(sigma->0) =      -55.79676065


--------------------------------------------------------------------------------------------------------




--------------------------------------- Iteration      1(  10)  ---------------------------------------


    POTLOK:  cpu time      0.3154: real time      0.3171
    SETDIJ:  cpu time      0.1885: real time      0.1893
     EDDAV:  cpu time      0.4031: real time      0.4053
       DOS:  cpu time      0.0001: real time      0.0001
    CHARGE:  cpu time      0.1984: real time      0.1992
    MIXING:  cpu time      0.0082: real time      0.0083
    --------------------------------------------
      LOOP:  cpu time      1.1138: real time      1.1193

 eigenvalue-minimisations  :    64
 total energy-change (2. order) : 0.5084753E-02  (-0.2006086E-02)
 number of electron      22.0000000 magnetization 
 augmentation part        0.5006241 magnetization 

 Broyden mixing:
  rms(total) = 0.18690E-01    rms(broyden)= 0.18687E-01
  rms(prec ) = 0.36925E-01
  weight for this iteration     100.00

 eigenvalues of (default mixing * dielectric matrix)
  average eigenvalue GAMMA=   1.6753
  2.7455  2.2937  1.0613  1.0613  1.2145

 Free energy of the ion-electron system (eV)
  ---------------------------------------------------
  alpha Z        PSCENC =         0.62641250
  Ewald energy   TEWEN  =       947.91281482
  -Hartree energ DENC   =     -1471.72683228
  -exchange      EXHF   =         0.00000000
  -V(xc)+E(xc)   XCENC  =        73.14049551
  PAW double counting   =       309.32758308     -314.70727651
  entropy T*S    EENTRO =        -0.00000000
  eigenvalues    EBANDS =      -263.88227153
  atomic energy  EATOM  =       663.51739852
  Solvation  Ediel_sol  =         0.00000000
  ---------------------------------------------------
  free energy    TOTEN  =       -55.79167590 eV

  energy without entropy =      -55.79167590  energy(sigma->0) =      -55.79167590


--------------------------------------------------------------------------------------------------------




--------------------------------------- Iteration      1(  11)  ---------------------------------------


    POTLOK:  cpu time      0.3154: real time      0.3170
    SETDIJ:  cpu time      0.1920: real time      0.1928
     EDDAV:  cpu time      0.3627: real time      0.3647
       DOS:  cpu time      0.0002: real time      0.0002
    CHARGE:  cpu time      0.1958: real time      0.1966
    MIXING:  cpu time      0.0116: real time      0.0116
    --------------------------------------------
      LOOP:  cpu time      1.0776: real time      1.0829

 eigenvalue-minimisations  :    56
 total energy-change (2. order) : 0.1313671E-01  (-0.8652182E-03)
 number of electron      22.0000000 magnetization 
 augmentation part        0.5002973 magnetization 

 Broyden mixing:
  rms(total) = 0.79056E-02    rms(broyden)= 0.79053E-02
  rms(prec ) = 0.18026E-01
  weight for this iteration     100.00

 eigenvalues of (default mixing * dielectric matrix)
  average eigenvalue GAMMA=   1.7227
  3.1487  2.5311  1.4185  1.0341  1.1019  1.1019

 Free energy of the ion-electron system (eV)
  ---------------------------------------------------
  alpha Z        PSCENC =         0.62641250
  Ewald energy   TEWEN  =       947.91281482
  -Hartree energ DENC   =     -1476.40917403
  -exchange      EXHF   =         0.00000000
  -V(xc)+E(xc)   XCENC  =        73.26710207
  PAW double counting   =       308.04452226     -313.40654118
  entropy T*S    EENTRO =        -0.00000000
  eigenvalues    EBANDS =      -259.33107415
  atomic energy  EATOM  =       663.51739852
  Solvation  Ediel_sol  =         0.00000000
  ---------------------------------------------------
  free energy    TOTEN  =       -55.77853919 eV

  energy without entropy =      -55.77853919  energy(sigma->0) =      -55.77853919


--------------------------------------------------------------------------------------------------------




--------------------------------------- Iteration      1(  12)  ---------------------------------------


    POTLOK:  cpu time      0.3152: real time      0.3168
    SETDIJ:  cpu time      0.1928: real time      0.1936
     EDDAV:  cpu time      0.4032: real time      0.4055
       DOS:  cpu time      0.0002: real time      0.0001
    CHARGE:  cpu time      0.1960: real time      0.1967
    MIXING:  cpu time      0.0122: real time      0.0122
    --------------------------------------------
      LOOP:  cpu time      1.1195: real time      1.1251

 eigenvalue-minimisations  :    64
 total energy-change (2. order) :-0.2485736E-02  (-0.1834771E-03)
 number of electron      22.0000000 magnetization 
 augmentation part        0.4999553 magnetization 

 Broyden mixing:
  rms(total) = 0.60104E-02    rms(broyden)= 0.60103E-02
  rms(prec ) = 0.11578E-01
  weight for this iteration     100.00

 eigenvalues of (default mixing * dielectric matrix)
  average eigenvalue GAMMA=   1.8638
  4.2269  2.4664  1.9910  1.3803  1.0293  1.0293  0.9232

 Free energy of the ion-electron system (eV)
  ---------------------------------------------------
  alpha Z        PSCENC =         0.62641250
  Ewald energy   TEWEN  =       947.91281482
  -Hartree energ DENC   =     -1478.38395663
  -exchange      EXHF   =         0.00000000
  -V(xc)+E(xc)   XCENC  =        73.29549515
  PAW double counting   =       307.42824845     -312.79219386
  entropy T*S    EENTRO =        -0.00000000
  eigenvalues    EBANDS =      -257.38524387
  atomic energy  EATOM  =       663.51739852
  Solvation  Ediel_sol  =         0.00000000
  ---------------------------------------------------
  free energy    TOTEN  =       -55.78102493 eV

  energy without entropy =      -55.78102493  energy(sigma->0) =      -55.78102493


--------------------------------------------------------------------------------------------------------




--------------------------------------- Iteration      1(  13)  ---------------------------------------


    POTLOK:  cpu time      0.3095: real time      0.3111
    SETDIJ:  cpu time      0.1918: real time      0.1926
     EDDAV:  cpu time      0.4018: real time      0.4040
       DOS:  cpu time      0.0001: real time      0.0001
    CHARGE:  cpu time      0.1980: real time      0.1988
    MIXING:  cpu time      0.0111: real time      0.0112
    --------------------------------------------
      LOOP:  cpu time      1.1122: real time      1.1178

 eigenvalue-minimisations  :    64
 total energy-change (2. order) :-0.7861539E-02  (-0.1280762E-03)
 number of electron      22.0000000 magnetization 
 augmentation part        0.4999386 magnetization 

 Broyden mixing:
  rms(total) = 0.32190E-02    rms(broyden)= 0.32189E-02
  rms(prec ) = 0.69682E-02
  weight for this iteration     100.00

 eigenvalues of (default mixing * dielectric matrix)
  average eigenvalue GAMMA=   1.9838
  4.9963  2.6968  2.2246  1.4675  1.4675  0.9462  1.0358  1.0358

 Free energy of the ion-electron system (eV)
  ---------------------------------------------------
  alpha Z        PSCENC =         0.62641250
  Ewald energy   TEWEN  =       947.91281482
  -Hartree energ DENC   =     -1479.06913565
  -exchange      EXHF   =         0.00000000
  -V(xc)+E(xc)   XCENC  =        73.29854309
  PAW double counting   =       307.39680108     -312.76029231
  entropy T*S    EENTRO =        -0.00000000
  eigenvalues    EBANDS =      -256.71142852
  atomic energy  EATOM  =       663.51739852
  Solvation  Ediel_sol  =         0.00000000
  ---------------------------------------------------
  free energy    TOTEN  =       -55.78888647 eV

  energy without entropy =      -55.78888647  energy(sigma->0) =      -55.78888647


--------------------------------------------------------------------------------------------------------




--------------------------------------- Iteration      1(  14)  ---------------------------------------


    POTLOK:  cpu time      0.3110: real time      0.3126
    SETDIJ:  cpu time      0.1903: real time      0.1911
     EDDAV:  cpu time      0.4040: real time      0.4062
       DOS:  cpu time      0.0001: real time      0.0001
    CHARGE:  cpu time      0.1979: real time      0.1987
    MIXING:  cpu time      0.0094: real time      0.0094
    --------------------------------------------
      LOOP:  cpu time      1.1127: real time      1.1182

 eigenvalue-minimisations  :    64
 total energy-change (2. order) :-0.7720947E-02  (-0.1236240E-03)
 number of electron      22.0000000 magnetization 
 augmentation part        0.4998367 magnetization 

 Broyden mixing:
  rms(total) = 0.17370E-02    rms(broyden)= 0.17368E-02
  rms(prec ) = 0.36440E-02
  weight for this iteration     100.00

 eigenvalues of (default mixing * dielectric matrix)
  average eigenvalue GAMMA=   2.0802
  5.8875  3.2594  2.2990  1.7559  1.2978  1.2978  0.9182  1.0033  1.0033

 Free energy of the ion-electron system (eV)
  ---------------------------------------------------
  alpha Z        PSCENC =         0.62641250
  Ewald energy   TEWEN  =       947.91281482
  -Hartree energ DENC   =     -1479.50441694
  -exchange      EXHF   =         0.00000000
  -V(xc)+E(xc)   XCENC  =        73.29139736
  PAW double counting   =       307.52762022     -312.89176702
  entropy T*S    EENTRO =        -0.00000000
  eigenvalues    EBANDS =      -256.27606688
  atomic energy  EATOM  =       663.51739852
  Solvation  Ediel_sol  =         0.00000000
  ---------------------------------------------------
  free energy    TOTEN  =       -55.79660741 eV

  energy without entropy =      -55.79660741  energy(sigma->0) =      -55.79660741


--------------------------------------------------------------------------------------------------------




--------------------------------------- Iteration      1(  15)  ---------------------------------------


    POTLOK:  cpu time      0.3049: real time      0.3066
    SETDIJ:  cpu time      0.1903: real time      0.1912
     EDDAV:  cpu time      0.4045: real time      0.4067
       DOS:  cpu time      0.0001: real time      0.0001
    CHARGE:  cpu time      0.1983: real time      0.1992
    MIXING:  cpu time      0.0094: real time      0.0095
    --------------------------------------------
      LOOP:  cpu time      1.1076: real time      1.1132

 eigenvalue-minimisations  :    64
 total energy-change (2. order) :-0.3385629E-02  (-0.4318943E-04)
 number of electron      22.0000000 magnetization 
 augmentation part        0.4998492 magnetization 

 Broyden mixing:
  rms(total) = 0.12572E-02    rms(broyden)= 0.12571E-02
  rms(prec ) = 0.22131E-02
  weight for this iteration     100.00

 eigenvalues of (default mixing * dielectric matrix)
  average eigenvalue GAMMA=   2.1411
  6.4196  3.6649  2.3570  1.9803  1.4109  1.4109  1.0222  1.0222  0.9161  1.2068

 Free energy of the ion-electron system (eV)
  ---------------------------------------------------
  alpha Z        PSCENC =         0.62641250
  Ewald energy   TEWEN  =       947.91281482
  -Hartree energ DENC   =     -1479.48040809
  -exchange      EXHF   =         0.00000000
  -V(xc)+E(xc)   XCENC  =        73.28140415
  PAW double counting   =       307.48580642     -312.84902109
  entropy T*S    EENTRO =        -0.00000000
  eigenvalues    EBANDS =      -256.29440027
  atomic energy  EATOM  =       663.51739852
  Solvation  Ediel_sol  =         0.00000000
  ---------------------------------------------------
  free energy    TOTEN  =       -55.79999304 eV

  energy without entropy =      -55.79999304  energy(sigma->0) =      -55.79999304


--------------------------------------------------------------------------------------------------------




--------------------------------------- Iteration      1(  16)  ---------------------------------------


    POTLOK:  cpu time      0.3038: real time      0.3054
    SETDIJ:  cpu time      0.1908: real time      0.1916
     EDDAV:  cpu time      0.3636: real time      0.3656
       DOS:  cpu time      0.0001: real time      0.0001
    CHARGE:  cpu time      0.1942: real time      0.1949
    MIXING:  cpu time      0.0122: real time      0.0122
    --------------------------------------------
      LOOP:  cpu time      1.0646: real time      1.0699

 eigenvalue-minimisations  :    56
 total energy-change (2. order) :-0.1686474E-02  (-0.1670011E-04)
 number of electron      22.0000000 magnetization 
 augmentation part        0.4997968 magnetization 

 Broyden mixing:
  rms(total) = 0.58444E-03    rms(broyden)= 0.58436E-03
  rms(prec ) = 0.11161E-02
  weight for this iteration     100.00

 eigenvalues of (default mixing * dielectric matrix)
  average eigenvalue GAMMA=   2.2266
  7.5152  4.2474  2.3765  2.3765  1.4383  1.4383  1.0786  1.0786  0.9343  1.0044
  1.0044

 Free energy of the ion-electron system (eV)
  ---------------------------------------------------
  alpha Z        PSCENC =         0.62641250
  Ewald energy   TEWEN  =       947.91281482
  -Hartree energ DENC   =     -1479.55114671
  -exchange      EXHF   =         0.00000000
  -V(xc)+E(xc)   XCENC  =        73.28039418
  PAW double counting   =       307.53121554     -312.89435439
  entropy T*S    EENTRO =        -0.00000000
  eigenvalues    EBANDS =      -256.22441397
  atomic energy  EATOM  =       663.51739852
  Solvation  Ediel_sol  =         0.00000000
  ---------------------------------------------------
  free energy    TOTEN  =       -55.80167952 eV

  energy without entropy =      -55.80167952  energy(sigma->0) =      -55.80167952


--------------------------------------------------------------------------------------------------------




--------------------------------------- Iteration      1(  17)  ---------------------------------------


    POTLOK:  cpu time      0.3010: real time      0.3026
    SETDIJ:  cpu time      0.1908: real time      0.1917
     EDDAV:  cpu time      0.4436: real time      0.4461
       DOS:  cpu time      0.0001: real time      0.0001
    CHARGE:  cpu time      0.1978: real time      0.1986
    MIXING:  cpu time      0.0094: real time      0.0094
    --------------------------------------------
      LOOP:  cpu time      1.1428: real time      1.1485

 eigenvalue-minimisations  :    72
 total energy-change (2. order) :-0.5795759E-03  (-0.3485501E-05)
 number of electron      22.0000000 magnetization 
 augmentation part        0.4997854 magnetization 

 Broyden mixing:
  rms(total) = 0.42297E-03    rms(broyden)= 0.42292E-03
  rms(prec ) = 0.76025E-03
  weight for this iteration     100.00

 eigenvalues of (default mixing * dielectric matrix)
  average eigenvalue GAMMA=   2.2891
  7.9977  4.6590  2.5456  2.3363  1.6718  1.6718  1.3280  1.3280  1.0225  1.0225
  0.9816  0.9049

 Free energy of the ion-electron system (eV)
  ---------------------------------------------------
  alpha Z        PSCENC =         0.62641250
  Ewald energy   TEWEN  =       947.91281482
  -Hartree energ DENC   =     -1479.55092863
  -exchange      EXHF   =         0.00000000
  -V(xc)+E(xc)   XCENC  =        73.27874419
  PAW double counting   =       307.51368586     -312.87680853
  entropy T*S    EENTRO =        -0.00000000
  eigenvalues    EBANDS =      -256.22357783
  atomic energy  EATOM  =       663.51739852
  Solvation  Ediel_sol  =         0.00000000
  ---------------------------------------------------
  free energy    TOTEN  =       -55.80225909 eV

  energy without entropy =      -55.80225909  energy(sigma->0) =      -55.80225909


--------------------------------------------------------------------------------------------------------




--------------------------------------- Iteration      1(  18)  ---------------------------------------


    POTLOK:  cpu time      0.2985: real time      0.3001
    SETDIJ:  cpu time      0.1894: real time      0.1902
     EDDAV:  cpu time      0.4025: real time      0.4047
       DOS:  cpu time      0.0001: real time      0.0001
    CHARGE:  cpu time      0.1968: real time      0.1976
    MIXING:  cpu time      0.0099: real time      0.0099
    --------------------------------------------
      LOOP:  cpu time      1.0972: real time      1.1027

 eigenvalue-minimisations  :    64
 total energy-change (2. order) :-0.3978166E-03  (-0.2378206E-05)
 number of electron      22.0000000 magnetization 
 augmentation part        0.4997841 magnetization 

 Broyden mixing:
  rms(total) = 0.27220E-03    rms(broyden)= 0.27214E-03
  rms(prec ) = 0.44585E-03
  weight for this iteration     100.00

 eigenvalues of (default mixing * dielectric matrix)
  average eigenvalue GAMMA=   2.3061
  8.4153  5.0533  3.0462  2.3779  2.0598  1.2414  1.2414  1.3094  1.3094  1.0168
  1.0168  0.9186  0.9729

 Free energy of the ion-electron system (eV)
  ---------------------------------------------------
  alpha Z        PSCENC =         0.62641250
  Ewald energy   TEWEN  =       947.91281482
  -Hartree energ DENC   =     -1479.55626909
  -exchange      EXHF   =         0.00000000
  -V(xc)+E(xc)   XCENC  =        73.27831419
  PAW double counting   =       307.50142705     -312.86458322
  entropy T*S    EENTRO =        -0.00000000
  eigenvalues    EBANDS =      -256.21817168
  atomic energy  EATOM  =       663.51739852
  Solvation  Ediel_sol  =         0.00000000
  ---------------------------------------------------
  free energy    TOTEN  =       -55.80265691 eV

  energy without entropy =      -55.80265691  energy(sigma->0) =      -55.80265691


--------------------------------------------------------------------------------------------------------




--------------------------------------- Iteration      1(  19)  ---------------------------------------


    POTLOK:  cpu time      0.2970: real time      0.2986
    SETDIJ:  cpu time      0.1909: real time      0.1917
     EDDAV:  cpu time      0.4028: real time      0.4051
       DOS:  cpu time      0.0001: real time      0.0001
    CHARGE:  cpu time      0.1969: real time      0.1976
    MIXING:  cpu time      0.0100: real time      0.0101
    --------------------------------------------
      LOOP:  cpu time      1.0976: real time      1.1031

 eigenvalue-minimisations  :    64
 total energy-change (2. order) :-0.1136845E-03  (-0.5554211E-06)
 number of electron      22.0000000 magnetization 
 augmentation part        0.4997736 magnetization 

 Broyden mixing:
  rms(total) = 0.16197E-03    rms(broyden)= 0.16191E-03
  rms(prec ) = 0.26529E-03
  weight for this iteration     100.00

 eigenvalues of (default mixing * dielectric matrix)
  average eigenvalue GAMMA=   2.2996
  8.6497  5.2182  3.2229  2.4763  2.0138  1.6195  1.2655  1.2655  1.4065  1.0410
  1.0410  0.9211  1.0264  1.0264

 Free energy of the ion-electron system (eV)
  ---------------------------------------------------
  alpha Z        PSCENC =         0.62641250
  Ewald energy   TEWEN  =       947.91281482
  -Hartree energ DENC   =     -1479.57404318
  -exchange      EXHF   =         0.00000000
  -V(xc)+E(xc)   XCENC  =        73.27876495
  PAW double counting   =       307.50262520     -312.86590121
  entropy T*S    EENTRO =        -0.00000000
  eigenvalues    EBANDS =      -256.20084219
  atomic energy  EATOM  =       663.51739852
  Solvation  Ediel_sol  =         0.00000000
  ---------------------------------------------------
  free energy    TOTEN  =       -55.80277059 eV

  energy without entropy =      -55.80277059  energy(sigma->0) =      -55.80277059


--------------------------------------------------------------------------------------------------------




--------------------------------------- Iteration      1(  20)  ---------------------------------------


    POTLOK:  cpu time      0.2996: real time      0.3012
    SETDIJ:  cpu time      0.1905: real time      0.1912
     EDDAV:  cpu time      0.3644: real time      0.3664
       DOS:  cpu time      0.0001: real time      0.0001
    CHARGE:  cpu time      0.1991: real time      0.1999
    MIXING:  cpu time      0.0107: real time      0.0107
    --------------------------------------------
      LOOP:  cpu time      1.0644: real time      1.0696

 eigenvalue-minimisations  :    56
 total energy-change (2. order) :-0.6485571E-04  (-0.1762693E-06)
 number of electron      22.0000000 magnetization 
 augmentation part        0.4997757 magnetization 

 Broyden mixing:
  rms(total) = 0.94448E-04    rms(broyden)= 0.94372E-04
  rms(prec ) = 0.15228E-03
  weight for this iteration     100.00

 eigenvalues of (default mixing * dielectric matrix)
  average eigenvalue GAMMA=   2.3434
  8.8197  5.6081  3.8402  2.5658  2.3976  1.9292  1.2446  1.2446  1.3114  1.1706
  1.0150  1.0150  0.9108  1.0394  1.0394

 Free energy of the ion-electron system (eV)
  ---------------------------------------------------
  alpha Z        PSCENC =         0.62641250
  Ewald energy   TEWEN  =       947.91281482
  -Hartree energ DENC   =     -1479.57272060
  -exchange      EXHF   =         0.00000000
  -V(xc)+E(xc)   XCENC  =        73.27842000
  PAW double counting   =       307.49648848     -312.85975248
  entropy T*S    EENTRO =        -0.00000000
  eigenvalues    EBANDS =      -256.20189669
  atomic energy  EATOM  =       663.51739852
  Solvation  Ediel_sol  =         0.00000000
  ---------------------------------------------------
  free energy    TOTEN  =       -55.80283545 eV

  energy without entropy =      -55.80283545  energy(sigma->0) =      -55.80283545


--------------------------------------------------------------------------------------------------------




--------------------------------------- Iteration      1(  21)  ---------------------------------------


    POTLOK:  cpu time      0.3055: real time      0.3072
    SETDIJ:  cpu time      0.1900: real time      0.1908
     EDDAV:  cpu time      0.3638: real time      0.3659
       DOS:  cpu time      0.0002: real time      0.0002
    CHARGE:  cpu time      0.1981: real time      0.1989
    MIXING:  cpu time      0.0112: real time      0.0112
    --------------------------------------------
      LOOP:  cpu time      1.0688: real time      1.0742

 eigenvalue-minimisations  :    56
 total energy-change (2. order) :-0.2962090E-04  (-0.6296763E-07)
 number of electron      22.0000000 magnetization 
 augmentation part        0.4997773 magnetization 

 Broyden mixing:
  rms(total) = 0.79100E-04    rms(broyden)= 0.79016E-04
  rms(prec ) = 0.10878E-03
  weight for this iteration     100.00

 eigenvalues of (default mixing * dielectric matrix)
  average eigenvalue GAMMA=   2.3414
  8.8865  5.8322  4.0621  2.7953  2.3927  1.7506  1.7095  1.2955  1.2955  1.3808
  1.0354  1.0354  1.0661  1.0661  0.9295  0.9295

 Free energy of the ion-electron system (eV)
  ---------------------------------------------------
  alpha Z        PSCENC =         0.62641250
  Ewald energy   TEWEN  =       947.91281482
  -Hartree energ DENC   =     -1479.57646065
  -exchange      EXHF   =         0.00000000
  -V(xc)+E(xc)   XCENC  =        73.27850459
  PAW double counting   =       307.49793353     -312.86115748
  entropy T*S    EENTRO =        -0.00000000
  eigenvalues    EBANDS =      -256.19831090
  atomic energy  EATOM  =       663.51739852
  Solvation  Ediel_sol  =         0.00000000
  ---------------------------------------------------
  free energy    TOTEN  =       -55.80286507 eV

  energy without entropy =      -55.80286507  energy(sigma->0) =      -55.80286507


--------------------------------------------------------------------------------------------------------




--------------------------------------- Iteration      1(  22)  ---------------------------------------


    POTLOK:  cpu time      0.3103: real time      0.3120
    SETDIJ:  cpu time      0.1902: real time      0.1910
     EDDAV:  cpu time      0.4090: real time      0.4113
       DOS:  cpu time      0.0001: real time      0.0001
    CHARGE:  cpu time      0.1992: real time      0.2000
    MIXING:  cpu time      0.0115: real time      0.0115
    --------------------------------------------
      LOOP:  cpu time      1.1203: real time      1.1259

 eigenvalue-minimisations  :    64
 total energy-change (2. order) :-0.1222931E-04  (-0.1898694E-07)
 number of electron      22.0000000 magnetization 
 augmentation part        0.4997781 magnetization 

 Broyden mixing:
  rms(total) = 0.29217E-04    rms(broyden)= 0.28999E-04
  rms(prec ) = 0.45360E-04
  weight for this iteration     100.00

 eigenvalues of (default mixing * dielectric matrix)
  average eigenvalue GAMMA=   2.4047
  9.0131  6.2768  4.5738  3.1627  2.6204  2.2411  1.8650  1.3023  1.3023  1.3574
  1.1060  1.1060  1.0132  1.0132  0.9244  0.9474  1.0551

 Free energy of the ion-electron system (eV)
  ---------------------------------------------------
  alpha Z        PSCENC =         0.62641250
  Ewald energy   TEWEN  =       947.91281482
  -Hartree energ DENC   =     -1479.57663046
  -exchange      EXHF   =         0.00000000
  -V(xc)+E(xc)   XCENC  =        73.27844819
  PAW double counting   =       307.49925393     -312.86247760
  entropy T*S    EENTRO =        -0.00000000
  eigenvalues    EBANDS =      -256.19809721
  atomic energy  EATOM  =       663.51739852
  Solvation  Ediel_sol  =         0.00000000
  ---------------------------------------------------
  free energy    TOTEN  =       -55.80287730 eV

  energy without entropy =      -55.80287730  energy(sigma->0) =      -55.80287730


--------------------------------------------------------------------------------------------------------




--------------------------------------- Iteration      1(  23)  ---------------------------------------


    POTLOK:  cpu time      0.3111: real time      0.3128
    SETDIJ:  cpu time      0.1897: real time      0.1905
     EDDAV:  cpu time      0.3639: real time      0.3659
       DOS:  cpu time      0.0001: real time      0.0001
    CHARGE:  cpu time      0.1946: real time      0.1955
    MIXING:  cpu time      0.0140: real time      0.0140
    --------------------------------------------
      LOOP:  cpu time      1.0734: real time      1.0788

 eigenvalue-minimisations  :    56
 total energy-change (2. order) :-0.5209701E-05  (-0.1337209E-07)
 number of electron      22.0000000 magnetization 
 augmentation part        0.4997779 magnetization 

 Broyden mixing:
  rms(total) = 0.36608E-04    rms(broyden)= 0.36435E-04
  rms(prec ) = 0.45178E-04
  weight for this iteration     100.00

 eigenvalues of (default mixing * dielectric matrix)
  average eigenvalue GAMMA=   2.3706
  9.1211  6.4356  4.7564  3.3058  2.4732  2.3297  1.8191  1.3006  1.3006  1.4716
  1.2846  1.0318  1.0318  1.0261  1.0261  0.9049  1.0664  0.9860

 Free energy of the ion-electron system (eV)
  ---------------------------------------------------
  alpha Z        PSCENC =         0.62641250
  Ewald energy   TEWEN  =       947.91281482
  -Hartree energ DENC   =     -1479.57778227
  -exchange      EXHF   =         0.00000000
  -V(xc)+E(xc)   XCENC  =        73.27846208
  PAW double counting   =       307.50007079     -312.86328983
  entropy T*S    EENTRO =        -0.00000000
  eigenvalues    EBANDS =      -256.19696912
  atomic energy  EATOM  =       663.51739852
  Solvation  Ediel_sol  =         0.00000000
  ---------------------------------------------------
  free energy    TOTEN  =       -55.80288251 eV

  energy without entropy =      -55.80288251  energy(sigma->0) =      -55.80288251


--------------------------------------------------------------------------------------------------------




--------------------------------------- Iteration      1(  24)  ---------------------------------------


    POTLOK:  cpu time      0.3091: real time      0.3107
    SETDIJ:  cpu time      0.1911: real time      0.1920
     EDDAV:  cpu time      0.4459: real time      0.4484
       DOS:  cpu time      0.0001: real time      0.0001
    CHARGE:  cpu time      0.1958: real time      0.1966
    MIXING:  cpu time      0.0140: real time      0.0141
    --------------------------------------------
      LOOP:  cpu time      1.1561: real time      1.1619

 eigenvalue-minimisations  :    72
 total energy-change (2. order) :-0.1282946E-05  (-0.2572463E-08)
 number of electron      22.0000000 magnetization 
 augmentation part        0.4997776 magnetization 

 Broyden mixing:
  rms(total) = 0.13346E-04    rms(broyden)= 0.12873E-04
  rms(prec ) = 0.18827E-04
  weight for this iteration     100.00

 eigenvalues of (default mixing * dielectric matrix)
  average eigenvalue GAMMA=   2.3887
  9.1693  6.6630  4.9945  3.4800  2.5321  2.5321  2.0127  1.7337  1.3476  1.3476
  1.3440  1.1038  1.1038  1.0171  1.0171  1.1277  1.0169  0.9210  0.9210

 Free energy of the ion-electron system (eV)
  ---------------------------------------------------
  alpha Z        PSCENC =         0.62641250
  Ewald energy   TEWEN  =       947.91281482
  -Hartree energ DENC   =     -1479.57781084
  -exchange      EXHF   =         0.00000000
  -V(xc)+E(xc)   XCENC  =        73.27844512
  PAW double counting   =       307.49960376     -312.86283153
  entropy T*S    EENTRO =        -0.00000000
  eigenvalues    EBANDS =      -256.19691615
  atomic energy  EATOM  =       663.51739852
  Solvation  Ediel_sol  =         0.00000000
  ---------------------------------------------------
  free energy    TOTEN  =       -55.80288379 eV

  energy without entropy =      -55.80288379  energy(sigma->0) =      -55.80288379


--------------------------------------------------------------------------------------------------------




--------------------------------------- Iteration      1(  25)  ---------------------------------------


    POTLOK:  cpu time      0.3144: real time      0.3160
    SETDIJ:  cpu time      0.1902: real time      0.1910
     EDDAV:  cpu time      0.2852: real time      0.2868
       DOS:  cpu time      0.0001: real time      0.0001
    CHARGE:  cpu time      0.1948: real time      0.1956
    MIXING:  cpu time      0.0152: real time      0.0152
    --------------------------------------------
      LOOP:  cpu time      0.9998: real time      1.0048

 eigenvalue-minimisations  :    40
 total energy-change (2. order) :-0.1136024E-05  (-0.3232726E-08)
 number of electron      22.0000000 magnetization 
 augmentation part        0.4997774 magnetization 

 Broyden mixing:
  rms(total) = 0.11770E-04    rms(broyden)= 0.11231E-04
  rms(prec ) = 0.15026E-04
  weight for this iteration     100.00

 eigenvalues of (default mixing * dielectric matrix)
  average eigenvalue GAMMA=   2.3768
  9.1680  6.8611  5.1231  3.6775  2.7708  2.4501  1.9669  1.9669  1.3410  1.3410
  1.3679  1.2177  1.2177  1.0937  1.0937  1.0164  1.0164  0.9817  0.9233  0.9416

 Free energy of the ion-electron system (eV)
  ---------------------------------------------------
  alpha Z        PSCENC =         0.62641250
  Ewald energy   TEWEN  =       947.91281482
  -Hartree energ DENC   =     -1479.57846432
  -exchange      EXHF   =         0.00000000
  -V(xc)+E(xc)   XCENC  =        73.27846604
  PAW double counting   =       307.49942217     -312.86265268
  entropy T*S    EENTRO =        -0.00000000
  eigenvalues    EBANDS =      -256.19628198
  atomic energy  EATOM  =       663.51739852
  Solvation  Ediel_sol  =         0.00000000
  ---------------------------------------------------
  free energy    TOTEN  =       -55.80288493 eV

  energy without entropy =      -55.80288493  energy(sigma->0) =      -55.80288493


--------------------------------------------------------------------------------------------------------




--------------------------------------- Iteration      1(  26)  ---------------------------------------


    POTLOK:  cpu time      0.3163: real time      0.3180
    SETDIJ:  cpu time      0.1911: real time      0.1919
     EDDAV:  cpu time      0.3663: real time      0.3684
       DOS:  cpu time      0.0001: real time      0.0001
    --------------------------------------------
      LOOP:  cpu time      0.8738: real time      0.8783

 eigenvalue-minimisations  :    56
 total energy-change (2. order) :-0.4314721E-06  (-0.7396785E-09)
 number of electron      22.0000000 magnetization 
 augmentation part        0.4997774 magnetization 

 Free energy of the ion-electron system (eV)
  ---------------------------------------------------
  alpha Z        PSCENC =         0.62641250
  Ewald energy   TEWEN  =       947.91281482
  -Hartree energ DENC   =     -1479.57852916
  -exchange      EXHF   =         0.00000000
  -V(xc)+E(xc)   XCENC  =        73.27846839
  PAW double counting   =       307.49940259     -312.86263090
  entropy T*S    EENTRO =        -0.00000000
  eigenvalues    EBANDS =      -256.19622212
  atomic energy  EATOM  =       663.51739852
  Solvation  Ediel_sol  =         0.00000000
  ---------------------------------------------------
  free energy    TOTEN  =       -55.80288536 eV

  energy without entropy =      -55.80288536  energy(sigma->0) =      -55.80288536


--------------------------------------------------------------------------------------------------------




 average (electrostatic) potential at core
  the test charge radii are     0.6991  0.5201
  (the norm of the test charge is              1.0000)
       1 -58.2397       2 -58.6267       3 -58.8222       4 -58.4597       5 -41.8672
       6 -41.9462       7 -42.0753       8 -41.9137       9 -42.2506      10 -41.2300
 
 
 
 E-fermi :  -5.6736     XC(G=0):  -0.4272     alpha+bet : -0.1681

 Fermi energy:        -5.6735660810

 k-point     1 :       0.0000    0.0000    0.0000
  band No.  band energies     occupation 
      1     -20.3450      2.00000
      2     -17.5696      2.00000
      3     -14.7985      2.00000
      4     -12.8604      2.00000
      5     -12.0515      2.00000
      6     -10.5893      2.00000
      7      -9.9352      2.00000
      8      -9.1458      2.00000
      9      -7.8847      2.00000
     10      -6.9920      2.00000
     11      -5.9263      2.00000
     12      -1.5920      0.00000
     13      -0.3374      0.00000
     14       0.0131      0.00000
     15       0.1093      0.00000
     16       0.2378      0.00000
     17       0.4146      0.00000
     18       0.4340      0.00000
     19       0.5698      0.00000
     20       0.6878      0.00000
     21       0.9067      0.00000
     22       0.9604      0.00000
     23       1.0112      0.00000
     24       1.1110      0.00000


--------------------------------------------------------------------------------------------------------


 soft charge-density along one line, spin component           1
         0         1         2         3         4         5         6         7         8         9
 total charge-density along one line
 
 pseudopotential strength for first ion, spin component:           1
 10.241   0.019  -0.003  -0.002   0.000  -0.003  -0.001   0.001
  0.019  -0.001   0.000   0.000  -0.000  -0.000  -0.000   0.000
 -0.003   0.000  -4.347  -0.006   0.012  -0.021  -0.002   0.003
 -0.002   0.000  -0.006  -4.343  -0.001  -0.002  -0.021  -0.000
  0.000  -0.000   0.012  -0.001  -4.332   0.003  -0.000  -0.018
 -0.003  -0.000  -0.021  -0.002   0.003  -0.772  -0.000   0.000
 -0.001  -0.000  -0.002  -0.021  -0.000  -0.000  -0.772  -0.000
  0.001   0.000   0.003  -0.000  -0.018   0.000  -0.000  -0.772
 total augmentation occupancy for first ion, spin component:           1
  1.529  -1.185   0.071   0.046  -0.025   0.036   0.010  -0.010
 -1.185   1.057  -0.152  -0.026   0.042  -0.060  -0.020   0.020
  0.071  -0.152   1.203   0.092  -0.168   0.208   0.029  -0.062
  0.046  -0.026   0.092   1.214   0.030   0.029   0.201   0.013
 -0.025   0.042  -0.168   0.030   1.045  -0.061   0.013   0.142
  0.036  -0.060   0.208   0.029  -0.061   0.040   0.008  -0.016
  0.010  -0.020   0.029   0.201   0.013   0.008   0.036   0.003
 -0.010   0.020  -0.062   0.013   0.142  -0.016   0.003   0.022


------------------------ aborting loop because EDIFF is reached ----------------------------------------


    CHARGE:  cpu time      0.1947: real time      0.1956
    FORLOC:  cpu time      0.0322: real time      0.0323
    FORNL :  cpu time      1.0694: real time      1.0745
    STRESS:  cpu time      3.3849: real time      3.4012
    FORHAR:  cpu time      0.1090: real time      0.1095
    MIXING:  cpu time      0.0122: real time      0.0122
    OFIELD:  cpu time      0.0001: real time      0.0001

  FORCE on cell =-STRESS in cart. coord.  units (eV):
  Direction    XX          YY          ZZ          XY          YZ          ZX
  --------------------------------------------------------------------------------------
  Alpha Z     0.62641     0.62641     0.62641
  Ewald     -96.21958   428.42055   615.71153   -81.09241     4.47824   -34.13752
  Hartree   262.99587   518.83610   697.74645   -37.11377    -6.33318   -43.78175
  E(xc)     -77.97993   -76.37033   -76.13995    -0.25556     0.06471     0.17593
  Local    -385.07880 -1132.49234 -1504.68613   111.87623     4.85983    83.90752
  n-local   -28.92613   -30.59380   -31.25186     0.39016     0.00084    -0.50242
  augment    -0.58169    -0.76038    -0.69792     0.04186    -0.02438    -0.03769
  Kinetic   325.98487   293.63470   302.20569     4.39687    -2.77796    -7.87905
  Fock        0.00000     0.00000     0.00000     0.00000     0.00000     0.00000
  -------------------------------------------------------------------------------------
  Total       0.82103     1.30091     3.51423    -1.75662     0.26811    -2.25498
  in kB       0.38976     0.61757     1.66827    -0.83390     0.12728    -1.07048
  external pressure =        0.89 kB  Pullay stress =        0.00 kB


 VOLUME and BASIS-vectors are now :
 -----------------------------------------------------------------------------
  energy-cutoff  :      520.00
  volume of cell :     3375.00
      direct lattice vectors                 reciprocal lattice vectors
    15.000000000  0.000000000  0.000000000     0.066666667  0.000000000  0.000000000
     0.000000000 15.000000000  0.000000000     0.000000000  0.066666667  0.000000000
     0.000000000  0.000000000 15.000000000     0.000000000  0.000000000  0.066666667

  length of vectors
    15.000000000 15.000000000 15.000000000     0.066666667  0.066666667  0.066666667


 FORCES acting on ions
    electron-ion (+dipol)            ewald-force                    non-local-force                 convergence-correction
 -----------------------------------------------------------------------------------------------
   -.551E+02 0.103E+03 0.114E+03   0.568E+02 -.105E+03 -.115E+03   0.136E+00 0.188E+00 -.161E+01   -.148E-05 -.283E-04 0.296E-04
   0.388E+02 -.129E+03 0.670E+02   -.399E+02 0.132E+03 -.660E+02   -.149E+00 0.993E-01 0.166E+01   -.113E-04 0.107E-04 0.956E-04
   0.300E+01 -.131E+03 -.844E+02   -.290E+01 0.133E+03 0.847E+02   0.201E+00 -.103E+01 -.156E+01   0.221E-05 -.451E-04 0.525E-05
   0.186E+02 0.111E+03 -.108E+03   -.187E+02 -.111E+03 0.110E+03   0.341E-01 0.132E+01 0.278E+01   0.978E-05 0.604E-04 -.671E-04
   0.105E+01 0.206E+02 0.687E+02   -.166E+01 -.220E+02 -.754E+02   0.606E+00 0.118E+01 0.585E+01   -.183E-05 -.564E-05 -.284E-05
   -.488E+02 0.487E+02 -.906E+01   0.525E+02 -.525E+02 0.122E+02   -.364E+01 0.358E+01 -.303E+01   0.104E-05 -.502E-05 0.955E-05
   0.309E+02 -.513E+02 0.418E+02   -.336E+02 0.554E+02 -.451E+02   0.261E+01 -.386E+01 0.336E+01   -.468E-05 0.495E-05 0.258E-05
   -.133E+02 -.549E+02 -.398E+02   0.141E+02 0.576E+02 0.418E+02   -.119E+01 -.397E+01 -.285E+01   -.426E-05 -.196E-04 -.180E-04
   0.300E+02 0.617E+02 0.106E+02   -.326E+02 -.669E+02 -.143E+02   0.236E+01 0.479E+01 0.321E+01   0.838E-05 0.165E-04 0.227E-05
   -.547E+01 0.194E+02 -.638E+02   0.594E+01 -.202E+02 0.675E+02   -.650E+00 0.821E+00 -.482E+01   -.223E-07 0.345E-05 -.215E-04
 -----------------------------------------------------------------------------------------------
   -.313E+00 -.310E+01 -.302E+01   0.160E-13 -.817E-13 0.142E-13   0.314E+00 0.310E+01 0.301E+01   -.211E-05 -.760E-05 0.354E-04
 
 
 POSITION                                       TOTAL-FORCE (eV/Angst)
 -----------------------------------------------------------------------------------
      7.85800      7.13200      6.28300         1.837378     -2.153721     -2.788849
      7.37200      8.22300      6.75800        -1.209029      2.969130      2.664353
      7.40300      8.25000      8.26700         0.299536      0.117877     -1.284092
      7.26800      6.97100      8.67200        -0.057030      1.023768      4.643028
      7.75200      6.91700      5.24100        -0.004074     -0.298863     -0.921024
      8.50700      6.47100      6.83800         0.021330     -0.177086      0.078152
      6.87600      8.96100      6.12900        -0.073081      0.161331      0.083540
      7.67000      9.15200      8.91500        -0.440639     -1.294025     -0.816242
      6.87500      6.15600      8.11100        -0.197396     -0.356168     -0.472124
      7.41800      6.76600      9.78600        -0.176995      0.007756     -1.186743
 -----------------------------------------------------------------------------------
    total drift:                                0.001270      0.002123     -0.014955


--------------------------------------------------------------------------------------------------------



  FREE ENERGIE OF THE ION-ELECTRON SYSTEM (eV)
  ---------------------------------------------------
  free  energy   TOTEN  =       -55.80288536 eV

  energy  without entropy=      -55.80288536  energy(sigma->0) =      -55.80288536
 


--------------------------------------------------------------------------------------------------------


    POTLOK:  cpu time      0.5084: real time      0.5109


--------------------------------------------------------------------------------------------------------


 stress matrix after NEB project (eV)
      0.82103     -1.75662     -2.25498
     -1.75662      1.30091      0.26811
     -2.25498      0.26811      3.51423
  FORCES: max atom, RMS     4.754899    2.508132
  FORCE total and by dimension    7.931410    4.643028
  Stress total and by dimension    5.585822    3.514235
     LOOP+:  cpu time     31.2094: real time     31.3663
    4ORBIT:  cpu time      0.0000: real time      0.0000

 total amount of memory used by VASP MPI-rank0   224783. kBytes
=======================================================================

   base      :      30000. kBytes
   nonlr-proj:       1259. kBytes
   fftplans  :     123538. kBytes
   grid      :      67787. kBytes
   one-center:         15. kBytes
   wavefun   :       2184. kBytes
 
  
  
 General timing and accounting informations for this job:
 ========================================================
  
                  Total CPU time used (sec):       37.812
                            User time (sec):       34.527
                          System time (sec):        3.285
                         Elapsed time (sec):       38.861
  
                   Maximum memory used (kb):      559828.
                   Average memory used (kb):          N/A
  
                          Minor page faults:       155660
                          Major page faults:         5437
                 Voluntary context switches:         3121
