 vasp.6.4.2 20Jul23 (build Apr 10 2024 13:39:58) complex                        
  
 executed on             LinuxIFC date 2024.05.17  23:32:48
 running   16 mpi-ranks, on    1 nodes
 distrk:  each k-point on   16 cores,    1 groups
 distr:  one band on NCORE=   2 cores,    8 groups


--------------------------------------------------------------------------------------------------------


 INCAR:
   ISTART = 0
   ISPIN = 1
   LREAL = Auto
   ENCUT = 520
   NPAR = 8
   LPLANE = .TRUE.
   LSCALU = .FALSE.
   NSIM = 4
   LWAVE = .FALSE.
   LCHARG = .FALSE.
   ADDGRID = .TRUE.
   LASPH = .TRUE.
   PREC = Accurate
   ISMEAR = 0
   SIGMA = 0.05
   EDIFF = 1E-06
   NSW = 0
   TEBEG = 300
   TEEND = 700     	
   ISYM = 0
   NWRITE = 2

 POTCAR:   PAW_PBE C 08Apr2002                    
 POTCAR:   PAW_PBE H 15Jun2001                    
 POTCAR:   PAW_PBE C 08Apr2002                    
   VRHFIN =C: s2p2                                                                                  
   LEXCH  = PE                                                                                      
   EATOM  =   147.1560 eV,   10.8157 Ry                                                             
                                                                                                    
   TITEL  = PAW_PBE C 08Apr2002                                                                     
   LULTRA =        F    use ultrasoft PP ?                                                          
   IUNSCR =        0    unscreen: 0-lin 1-nonlin 2-no                                               
   RPACOR =     .000    partial core radius                                                         
   POMASS =   12.011; ZVAL   =    4.000    mass and valenz                                          
   RCORE  =    1.500    outmost cutoff radius                                                       
   RWIGS  =    1.630; RWIGS  =     .863    wigner-seitz radius (au A)                               
   ENMAX  =  400.000; ENMIN  =  300.000 eV                                                          
   ICORE  =        2    local potential                                                             
   LCOR   =        T    correct aug charges                                                         
   LPAW   =        T    paw PP                                                                      
   EAUG   =  644.873                                                                                
   DEXC   =     .000                                                                                
   RMAX   =    2.266    core radius for proj-oper                                                   
   RAUG   =    1.300    factor for augmentation sphere                                              
   RDEP   =    1.501    radius for radial grids                                                     
   RDEPT  =    1.300    core radius for aug-charge                                                  
   QCUT   =   -5.516; QGAM   =   11.032    optimization parameters                                  
                                                                                                    
   Description                                                                                      
     l     E      TYP  RCUT    TYP  RCUT                                                            
     0   .000     23  1.200                                                                         
     0   .000     23  1.200                                                                         
     1   .000     23  1.500                                                                         
     1  2.500     23  1.500                                                                         
     2   .000      7  1.500                                                                         
  local pseudopotential read in
  atomic valenz-charges read in
  non local Contribution for L=           0  read in
    real space projection operators read in
  non local Contribution for L=           0  read in
    real space projection operators read in
  non local Contribution for L=           1  read in
    real space projection operators read in
  non local Contribution for L=           1  read in
    real space projection operators read in
    PAW grid and wavefunctions read in
 
   number of l-projection  operators is LMAX  =           4
   number of lm-projection operators is LMMAX =           8
 
 POTCAR:   PAW_PBE H 15Jun2001                    
   VRHFIN =H: ultrasoft test                                                                        
   LEXCH  = PE                                                                                      
   EATOM  =    12.4884 eV,     .9179 Ry                                                             
                                                                                                    
   TITEL  = PAW_PBE H 15Jun2001                                                                     
   LULTRA =        F    use ultrasoft PP ?                                                          
   IUNSCR =        0    unscreen: 0-lin 1-nonlin 2-no                                               
   RPACOR =     .000    partial core radius                                                         
   POMASS =    1.000; ZVAL   =    1.000    mass and valenz                                          
   RCORE  =    1.100    outmost cutoff radius                                                       
   RWIGS  =     .700; RWIGS  =     .370    wigner-seitz radius (au A)                               
   ENMAX  =  250.000; ENMIN  =  200.000 eV                                                          
   RCLOC  =     .701    cutoff for local pot                                                        
   LCOR   =        T    correct aug charges                                                         
   LPAW   =        T    paw PP                                                                      
   EAUG   =  400.000                                                                                
   RMAX   =    2.174    core radius for proj-oper                                                   
   RAUG   =    1.200    factor for augmentation sphere                                              
   RDEP   =    1.112    radius for radial grids                                                     
   QCUT   =   -5.749; QGAM   =   11.498    optimization parameters                                  
                                                                                                    
   Description                                                                                      
     l     E      TYP  RCUT    TYP  RCUT                                                            
     0   .000     23  1.100                                                                         
     0   .500     23  1.100                                                                         
     1  -.300     23  1.100                                                                         
  local pseudopotential read in
  atomic valenz-charges read in
  non local Contribution for L=           0  read in
    real space projection operators read in
  non local Contribution for L=           0  read in
    real space projection operators read in
  non local Contribution for L=           1  read in
    real space projection operators read in
    PAW grid and wavefunctions read in
 
   number of l-projection  operators is LMAX  =           3
   number of lm-projection operators is LMMAX =           5
 
 Optimization of the real space projectors (new method)

 maximal supplied QI-value         = 25.13
 optimisation between [QCUT,QGAM] = [ 11.56, 23.12] = [ 37.43,149.72] Ry 
 Optimized for a Real-space Cutoff    1.04 Angstroem

   l    n(q)    QCUT    max X(q) W(low)/X(q) W(high)/X(q)  e(spline) 
   0      7    11.561     5.582    0.47E-04    0.94E-04    0.17E-07
   0      7    11.561    69.432    0.20E-03    0.59E-03    0.21E-06
   1      7    11.561     2.780    0.24E-04    0.70E-04    0.44E-07
   1      7    11.561     4.549    0.18E-03    0.25E-03    0.12E-06
 Optimization of the real space projectors (new method)

 maximal supplied QI-value         = 34.20
 optimisation between [QCUT,QGAM] = [ 11.63, 23.26] = [ 37.87,151.49] Ry 
 Optimized for a Real-space Cutoff    1.21 Angstroem

   l    n(q)    QCUT    max X(q) W(low)/X(q) W(high)/X(q)  e(spline) 
   0      8    11.629     4.436    0.19E-04    0.32E-04    0.47E-07
   0      8    11.629    16.131    0.16E-03    0.33E-03    0.21E-06
   1      8    11.629     4.654    0.18E-03    0.16E-03    0.26E-06
 PAW_PBE C 08Apr2002                    :
 energy of atom  1       EATOM= -147.1560
 kinetic energy error for atom=    0.0071 (will be added to EATOM!!)
 PAW_PBE H 15Jun2001                    :
 energy of atom  2       EATOM=  -12.4884
 kinetic energy error for atom=    0.0014 (will be added to EATOM!!)
 
 
 POSCAR:  C  H
  positions in cartesian coordinates
  No initial velocities read in
 exchange correlation table for  LEXCH =        8
   RHO(1)=    0.500       N(1)  =     2000
   RHO(2)=  100.500       N(2)  =     4000

 VTST: version 4.1, (05/19/21)

 CHAIN: initializing optimizer
 
 OPT: Using VASP Dynamics algorithm
 CHAIN: Read ICHAIN            0
 
 POSCAR:  C  H
  positions in cartesian coordinates
  No initial velocities read in
 


--------------------------------------------------------------------------------------------------------


 ion  position               nearest neighbor table
   1  0.535  0.479  0.397-   5 1.11   6 1.16   2 1.33
   2  0.492  0.537  0.449-   7 1.13   1 1.33   3 1.52
   3  0.489  0.538  0.550-   8 1.12   4 1.38   2 1.52
   4  0.482  0.466  0.606-  10 1.04   9 1.15   3 1.38
   5  0.539  0.482  0.323-   1 1.11
   6  0.577  0.423  0.430-   1 1.16
   7  0.455  0.595  0.417-   2 1.13
   8  0.476  0.606  0.578-   3 1.12
   9  0.479  0.395  0.576-   4 1.15
  10  0.476  0.479  0.674-   4 1.04
 

IMPORTANT INFORMATION: All symmetrisations will be switched off!
NOSYMM: (Re-)initialisation of all symmetry stuff for point group C_1.


----------------------------------------------------------------------------------------

                                     Primitive cell                                     

  volume of cell :    3375.0000

  direct lattice vectors                    reciprocal lattice vectors
    15.000000000  0.000000000  0.000000000     0.066666667  0.000000000  0.000000000
     0.000000000 15.000000000  0.000000000     0.000000000  0.066666667  0.000000000
     0.000000000  0.000000000 15.000000000     0.000000000  0.000000000  0.066666667

  length of vectors
    15.000000000 15.000000000 15.000000000     0.066666667  0.066666667  0.066666667

  position of ions in fractional coordinates (direct lattice)
     0.535266685  0.478933334  0.397399998
     0.491666667  0.536933327  0.448866653
     0.489333344  0.538333321  0.549933306
     0.482133325  0.465733337  0.605866687
     0.538600032  0.481933339  0.323466682
     0.576999982  0.422666677  0.429733340
     0.454933325  0.594866689  0.417066669
     0.476399994  0.605933317  0.578333346
     0.478933334  0.395266660  0.575733312
     0.475800006  0.479399999  0.673600006

  ion indices of the primitive-cell ions
   primitive index   ion index
                 1           1
                 2           2
                 3           3
                 4           4
                 5           5
                 6           6
                 7           7
                 8           8
                 9           9
                10          10

----------------------------------------------------------------------------------------

 
 
 KPOINTS: K-Spacing Value to Generate K-Mesh: 1.00

Automatic generation of k-mesh.
 Grid dimensions read from file:
 generate k-points for:    1    1    1

 Generating k-lattice:

  Cartesian coordinates                     Fractional coordinates (reciprocal lattice)
     0.066666667  0.000000000  0.000000000     1.000000000  0.000000000  0.000000000
     0.000000000  0.066666667  0.000000000     0.000000000  1.000000000  0.000000000
     0.000000000  0.000000000  0.066666667     0.000000000  0.000000000  1.000000000

  Length of vectors
     0.066666667  0.066666667  0.066666667

  Shift w.r.t. Gamma in fractional coordinates (k-lattice)
     0.000000000  0.000000000  0.000000000

 
 Subroutine IBZKPT returns following result:
 ===========================================
 
 Found      1 irreducible k-points:
 
 Following reciprocal coordinates:
            Coordinates               Weight
  0.000000  0.000000  0.000000      1.000000
 
 Following cartesian coordinates:
            Coordinates               Weight
  0.000000  0.000000  0.000000      1.000000
 


--------------------------------------------------------------------------------------------------------




 Dimension of arrays:
   k-points           NKPTS =      1   k-points in BZ     NKDIM =      1   number of bands    NBANDS=     24
   number of dos      NEDOS =    301   number of ions     NIONS =     10
   non local maximal  LDIM  =      4   non local SUM 2l+1 LMDIM =      8
   total plane-waves  NPLWV = ******
   max r-space proj   IRMAX =   3145   max aug-charges    IRDMAX=  39494
   dimension x,y,z NGX =   112 NGY =  112 NGZ =  112
   dimension x,y,z NGXF=   224 NGYF=  224 NGZF=  224
   support grid    NGXF=   448 NGYF=  448 NGZF=  448
   ions per type =               4   6
   NGX,Y,Z   is equivalent  to a cutoff of  12.41, 12.41, 12.41 a.u.
   NGXF,Y,Z  is equivalent  to a cutoff of  24.83, 24.83, 24.83 a.u.

 SYSTEM =  unknown system                          
 POSCAR =   C  H                                   

 Startparameter for this run:
   NWRITE =      2    write-flag & timer
   PREC   = accura    normal or accurate (medium, high low for compatibility)
   ISTART =      0    job   : 0-new  1-cont  2-samecut
   ICHARG =      2    charge: 1-file 2-atom 10-const
   ISPIN  =      1    spin polarized calculation?
   LNONCOLLINEAR =      F non collinear calculations
   LSORBIT =      F    spin-orbit coupling
   INIWAV =      1    electr: 0-lowe 1-rand  2-diag
   LASPH  =      T    aspherical Exc in radial PAW
 Electronic Relaxation 1
   ENCUT  =  520.0 eV  38.22 Ry    6.18 a.u.  27.89 27.89 27.89*2*pi/ulx,y,z
   ENINI  =  520.0     initial cutoff
   ENAUG  =  644.9 eV  augmentation charge cutoff
   NELM   =     60;   NELMIN=  2; NELMDL= -5     # of ELM steps 
   EDIFF  = 0.1E-05   stopping-criterion for ELM
   LREAL  =      T    real-space projection
   NLSPLINE    = F    spline interpolate recip. space projectors
   LCOMPAT=      F    compatible to vasp.4.4
   GGA_COMPAT  = T    GGA compatible to vasp.4.4-vasp.4.6
   LMAXPAW     = -100 max onsite density
   LMAXMIX     =    2 max onsite mixed and CHGCAR
   VOSKOWN=      0    Vosko Wilk Nusair interpolation
   ROPT   =   -0.00025  -0.00025
 Ionic relaxation
   EDIFFG = 0.1E-04   stopping-criterion for IOM
   NSW    =      0    number of steps for IOM
   NBLOCK =      1;   KBLOCK =      1    inner block; outer block 
   IBRION =     -1    ionic relax: 0-MD 1-quasi-New 2-CG
   NFREE  =      0    steps in history (QN), initial steepest desc. (CG)
   ISIF   =      2    stress and relaxation
   IWAVPR =     10    prediction:  0-non 1-charg 2-wave 3-comb
   ISYM   =      0    0-nonsym 1-usesym 2-fastsym
   LCORR  =      T    Harris-Foulkes like correction to forces

   POTIM  = 0.5000    time-step for ionic-motion
   TEIN   =    0.0    initial temperature
   TEBEG  =  300.0;   TEEND  = 700.0 temperature during run
   SMASS  =  -3.00    Nose mass-parameter (am)
   estimated Nose-frequenzy (Omega)   =  0.10E-29 period in steps = 0.13E+47 mass=  -0.514E-26a.u.
   SCALEE = 1.0000    scale energy and forces
   NPACO  =    256;   APACO  = 10.0  distance and # of slots for P.C.
   PSTRESS=    0.0 pullay stress

  Mass of Ions in am
   POMASS =  12.01  1.00
  Ionic Valenz
   ZVAL   =   4.00  1.00
  Atomic Wigner-Seitz radii
   RWIGS  =  -1.00 -1.00
  virtual crystal weights 
   VCA    =   1.00  1.00
   NELECT =      22.0000    total number of electrons
   NUPDOWN=      -1.0000    fix difference up-down

 DOS related values:
   EMIN   =  10.00;   EMAX   =-10.00  energy-range for DOS
   EFERMI =   0.00;   METHOD = LEGACY      
   ISMEAR =     0;   SIGMA  =   0.05  broadening in eV -4-tet -1-fermi 0-gaus

 Electronic relaxation 2 (details)
   IALGO  =     38    algorithm
   LDIAG  =      T    sub-space diagonalisation (order eigenvalues)
   LSUBROT=      F    optimize rotation matrix (better conditioning)
   TURBO    =      0    0=normal 1=particle mesh
   IRESTART =      0    0=no restart 2=restart with 2 vectors
   NREBOOT  =      0    no. of reboots
   NMIN     =      0    reboot dimension
   EREF     =   0.00    reference energy to select bands
   IMIX   =      4    mixing-type and parameters
     AMIX     =   0.40;   BMIX     =  1.00
     AMIX_MAG =   1.60;   BMIX_MAG =  1.00
     AMIN     =   0.10
     WC   =   100.;   INIMIX=   1;  MIXPRE=   1;  MAXMIX= -45

 Intra band minimization:
   WEIMIN = 0.0000     energy-eigenvalue tresh-hold
   EBREAK =  0.10E-07  absolut break condition
   DEPER  =   0.30     relativ break condition  

   TIME   =   0.40     timestep for ELM

  volume/ion in A,a.u.               =     337.50      2277.56
  Fermi-wavevector in a.u.,A,eV,Ry     =   0.305814  0.577905  1.272449  0.093522
  Thomas-Fermi vector in A             =   1.179187
 
 Write flags
   LWAVE        =      F    write WAVECAR
   LDOWNSAMPLE  =      F    k-point downsampling of WAVECAR
   LCHARG       =      F    write CHGCAR
   LVTOT        =      F    write LOCPOT, total local potential
   LVHAR        =      F    write LOCPOT, Hartree potential only
   LELF         =      F    write electronic localiz. function (ELF)
   LORBIT       =      0    0 simple, 1 ext, 2 COOP (PROOUT), +10 PAW based schemes


 Dipole corrections
   LMONO  =      F    monopole corrections only (constant potential shift)
   LDIPOL =      F    correct potential (dipole corrections)
   IDIPOL =      0    1-x, 2-y, 3-z, 4-all directions 
   EPSILON=  1.0000000 bulk dielectric constant

 Exchange correlation treatment:
   GGA     =    --    GGA type
   LEXCH   =     8    internal setting for exchange type
   LIBXC   =     F    Libxc                    
   VOSKOWN =     0    Vosko Wilk Nusair interpolation
   LHFCALC =     F    Hartree Fock is set to
   LHFONE  =     F    Hartree Fock one center treatment
   AEXX    =    0.0000 exact exchange contribution

 Linear response parameters
   LEPSILON=     F    determine dielectric tensor
   LRPA    =     F    only Hartree local field effects (RPA)
   LNABLA  =     F    use nabla operator in PAW spheres
   LVEL    =     F    velocity operator in full k-point grid
   CSHIFT  =0.1000    complex shift for real part using Kramers Kronig
   OMEGAMAX=  -1.0    maximum frequency
   DEG_THRESHOLD= 0.2000000E-02 threshold for treating states as degnerate
   RTIME   =   -0.100 relaxation time in fs
  (WPLASMAI=    0.000 imaginary part of plasma frequency in eV, 0.658/RTIME)
   DFIELD  = 0.0000000 0.0000000 0.0000000 field for delta impulse in time
 
  Optional k-point grid parameters
   LKPOINTS_OPT  =     F    use optional k-point grid
   KPOINTS_OPT_MODE=     1    mode for optional k-point grid
 
 Orbital magnetization related:
   ORBITALMAG=     F  switch on orbital magnetization
   LCHIMAG   =     F  perturbation theory with respect to B field
   DQ        =  0.001000  dq finite difference perturbation B field
   LLRAUG    =     F  two centre corrections for induced B field
   LBONE     =     F  B-component reconstruction in AE one-centre
   LVGVCALC  =     T  calculate vGv susceptibility
   LVGVAPPL  =     F  apply vGv susceptibility instead of pGv for G=0

 Random number generation:
   RANDOM_GENERATOR = DEFAULT
   PCG_SEED         = not used


--------------------------------------------------------------------------------------------------------


 Static calculation
 charge density and potential will be updated during run
 non-spin polarized calculation
 Variant of blocked Davidson
 Davidson routine will perform the subspace rotation
 perform sub-space diagonalisation
    after iterative eigenvector-optimisation
 modified Broyden-mixing scheme, WC =      100.0
 initial mixing is a Kerker type mixing with AMIX =  0.4000 and BMIX =      1.0000
 Hartree-type preconditioning will be used
 using additional bands           13
 real space projection scheme for non local part
 calculate Harris-corrections to forces 
   (improved forces if not selfconsistent)
 use gradient corrections 
 use of overlap-Matrix (Vanderbilt PP)
 Gauss-broadening in eV      SIGMA  =   0.05


--------------------------------------------------------------------------------------------------------


  energy-cutoff  :      520.00
  volume of cell :     3375.00
      direct lattice vectors                 reciprocal lattice vectors
    15.000000000  0.000000000  0.000000000     0.066666667  0.000000000  0.000000000
     0.000000000 15.000000000  0.000000000     0.000000000  0.066666667  0.000000000
     0.000000000  0.000000000 15.000000000     0.000000000  0.000000000  0.066666667

  length of vectors
    15.000000000 15.000000000 15.000000000     0.066666667  0.066666667  0.066666667


 
 k-points in units of 2pi/SCALE and weight: K-Spacing Value to Generate K-Mesh: 1.00
   0.00000000  0.00000000  0.00000000       1.000
 
 k-points in reciprocal lattice and weights: K-Spacing Value to Generate K-Mesh: 1.00
   0.00000000  0.00000000  0.00000000       1.000
 
 position of ions in fractional coordinates (direct lattice) 
   0.53526669  0.47893333  0.39740000
   0.49166667  0.53693333  0.44886665
   0.48933334  0.53833332  0.54993331
   0.48213332  0.46573334  0.60586669
   0.53860003  0.48193334  0.32346668
   0.57699998  0.42266668  0.42973334
   0.45493333  0.59486669  0.41706667
   0.47639999  0.60593332  0.57833335
   0.47893333  0.39526666  0.57573331
   0.47580001  0.47940000  0.67360001
 
 position of ions in cartesian coordinates  (Angst):
   8.02900028  7.18400002  5.96099997
   7.37500000  8.05399990  6.73299980
   7.34000015  8.07499981  8.24899960
   7.23199987  6.98600006  9.08800030
   8.07900047  7.22900009  4.85200024
   8.65499973  6.34000015  6.44600010
   6.82399988  8.92300034  6.25600004
   7.14599991  9.08899975  8.67500019
   7.18400002  5.92899990  8.63599968
   7.13700008  7.19099998 10.10400009
 


--------------------------------------------------------------------------------------------------------


 k-point   1 :   0.0000 0.0000 0.0000  plane waves:   90879

 maximum and minimum number of plane-waves per node :     45467    45412

 maximum number of plane-waves:     90879
 maximum index in each direction: 
   IXMAX=   27   IYMAX=   27   IZMAX=   27
   IXMIN=  -27   IYMIN=  -27   IZMIN=  -27


 real space projection operators:
  total allocation   :       1185.82 KBytes
  max/ min on nodes  :        593.55        592.27


 parallel 3D FFT for wavefunctions:
    minimum data exchange during FFTs selected (reduces bandwidth)
 parallel 3D FFT for charge:
    minimum data exchange during FFTs selected (reduces bandwidth)


 total amount of memory used by VASP MPI-rank0   224781. kBytes
=======================================================================

   base      :      30000. kBytes
   nonlr-proj:       1257. kBytes
   fftplans  :     123538. kBytes
   grid      :      67787. kBytes
   one-center:         15. kBytes
   wavefun   :       2184. kBytes
 
     INWAV:  cpu time      0.0000: real time      0.0000
 Broyden mixing: mesh for mixing (old mesh)
   NGX = 55   NGY = 55   NGZ = 55
  (NGX  =224   NGY  =224   NGZ  =224)
  gives a total of 166375 points

 initial charge density was supplied:
 charge density of overlapping atoms calculated
 number of electron      22.0000000 magnetization 
 keeping initial charge density in first step


--------------------------------------------------------------------------------------------------------


 Maximum index for non-local projection operator         1515
 Maximum index for augmentation-charges         2498 (set IRDMAX)


--------------------------------------------------------------------------------------------------------


 First call to EWALD:  gamma=   0.118
 Maximum number of real-space cells 3x 3x 3
 Maximum number of reciprocal cells 3x 3x 3

    FEWALD:  cpu time      0.0010: real time      0.0010


--------------------------------------- Ionic step        1  -------------------------------------------




--------------------------------------- Iteration      1(   1)  ---------------------------------------


    POTLOK:  cpu time      0.3377: real time      0.3397
    SETDIJ:  cpu time      0.1930: real time      0.1938
     EDDAV:  cpu time      0.4182: real time      0.4205
       DOS:  cpu time      0.0002: real time      0.0002
    --------------------------------------------
      LOOP:  cpu time      0.9491: real time      0.9543

 eigenvalue-minimisations  :    64
 total energy-change (2. order) : 0.9780852E+02  (-0.5289770E+03)
 number of electron      22.0000000 magnetization 
 augmentation part       22.0000000 magnetization 

 Free energy of the ion-electron system (eV)
  ---------------------------------------------------
  alpha Z        PSCENC =         0.62641250
  Ewald energy   TEWEN  =       859.75079838
  -Hartree energ DENC   =     -1289.97951843
  -exchange      EXHF   =         0.00000000
  -V(xc)+E(xc)   XCENC  =        66.85280588
  PAW double counting   =       156.01372664     -160.66969168
  entropy T*S    EENTRO =        -0.00167577
  eigenvalues    EBANDS =      -198.30173173
  atomic energy  EATOM  =       663.51739852
  Solvation  Ediel_sol  =         0.00000000
  ---------------------------------------------------
  free energy    TOTEN  =        97.80852432 eV

  energy without entropy =       97.81020009  energy(sigma->0) =       97.80936220


--------------------------------------------------------------------------------------------------------




--------------------------------------- Iteration      1(   2)  ---------------------------------------


     EDDAV:  cpu time      0.4858: real time      0.4885
       DOS:  cpu time      0.0001: real time      0.0001
    --------------------------------------------
      LOOP:  cpu time      0.4859: real time      0.4886

 eigenvalue-minimisations  :    80
 total energy-change (2. order) :-0.1209581E+03  (-0.1183759E+03)
 number of electron      22.0000000 magnetization 
 augmentation part       22.0000000 magnetization 

 Free energy of the ion-electron system (eV)
  ---------------------------------------------------
  alpha Z        PSCENC =         0.62641250
  Ewald energy   TEWEN  =       859.75079838
  -Hartree energ DENC   =     -1289.97951843
  -exchange      EXHF   =         0.00000000
  -V(xc)+E(xc)   XCENC  =        66.85280588
  PAW double counting   =       156.01372664     -160.66969168
  entropy T*S    EENTRO =        -0.00000000
  eigenvalues    EBANDS =      -319.26153262
  atomic energy  EATOM  =       663.51739852
  Solvation  Ediel_sol  =         0.00000000
  ---------------------------------------------------
  free energy    TOTEN  =       -23.14960080 eV

  energy without entropy =      -23.14960080  energy(sigma->0) =      -23.14960080


--------------------------------------------------------------------------------------------------------




--------------------------------------- Iteration      1(   3)  ---------------------------------------


     EDDAV:  cpu time      0.4451: real time      0.4476
       DOS:  cpu time      0.0001: real time      0.0001
    --------------------------------------------
      LOOP:  cpu time      0.4452: real time      0.4477

 eigenvalue-minimisations  :    72
 total energy-change (2. order) :-0.3739501E+02  (-0.3731386E+02)
 number of electron      22.0000000 magnetization 
 augmentation part       22.0000000 magnetization 

 Free energy of the ion-electron system (eV)
  ---------------------------------------------------
  alpha Z        PSCENC =         0.62641250
  Ewald energy   TEWEN  =       859.75079838
  -Hartree energ DENC   =     -1289.97951843
  -exchange      EXHF   =         0.00000000
  -V(xc)+E(xc)   XCENC  =        66.85280588
  PAW double counting   =       156.01372664     -160.66969168
  entropy T*S    EENTRO =        -0.00000000
  eigenvalues    EBANDS =      -356.65653924
  atomic energy  EATOM  =       663.51739852
  Solvation  Ediel_sol  =         0.00000000
  ---------------------------------------------------
  free energy    TOTEN  =       -60.54460742 eV

  energy without entropy =      -60.54460742  energy(sigma->0) =      -60.54460742


--------------------------------------------------------------------------------------------------------




--------------------------------------- Iteration      1(   4)  ---------------------------------------


     EDDAV:  cpu time      0.4438: real time      0.4464
       DOS:  cpu time      0.0001: real time      0.0001
    --------------------------------------------
      LOOP:  cpu time      0.4439: real time      0.4465

 eigenvalue-minimisations  :    72
 total energy-change (2. order) :-0.2083206E+01  (-0.2080533E+01)
 number of electron      22.0000000 magnetization 
 augmentation part       22.0000000 magnetization 

 Free energy of the ion-electron system (eV)
  ---------------------------------------------------
  alpha Z        PSCENC =         0.62641250
  Ewald energy   TEWEN  =       859.75079838
  -Hartree energ DENC   =     -1289.97951843
  -exchange      EXHF   =         0.00000000
  -V(xc)+E(xc)   XCENC  =        66.85280588
  PAW double counting   =       156.01372664     -160.66969168
  entropy T*S    EENTRO =        -0.00000000
  eigenvalues    EBANDS =      -358.73974558
  atomic energy  EATOM  =       663.51739852
  Solvation  Ediel_sol  =         0.00000000
  ---------------------------------------------------
  free energy    TOTEN  =       -62.62781376 eV

  energy without entropy =      -62.62781376  energy(sigma->0) =      -62.62781376


--------------------------------------------------------------------------------------------------------




--------------------------------------- Iteration      1(   5)  ---------------------------------------


     EDDAV:  cpu time      0.4059: real time      0.4082
       DOS:  cpu time      0.0001: real time      0.0001
    CHARGE:  cpu time      0.1980: real time      0.1988
    MIXING:  cpu time      0.0141: real time      0.0142
    --------------------------------------------
      LOOP:  cpu time      0.6182: real time      0.6213

 eigenvalue-minimisations  :    64
 total energy-change (2. order) :-0.1767728E-01  (-0.1766947E-01)
 number of electron      22.0000000 magnetization 
 augmentation part        0.5641669 magnetization 

 Broyden mixing:
  rms(total) = 0.11451E+01    rms(broyden)= 0.11449E+01
  rms(prec ) = 0.13751E+01
  weight for this iteration     100.00

 Free energy of the ion-electron system (eV)
  ---------------------------------------------------
  alpha Z        PSCENC =         0.62641250
  Ewald energy   TEWEN  =       859.75079838
  -Hartree energ DENC   =     -1289.97951843
  -exchange      EXHF   =         0.00000000
  -V(xc)+E(xc)   XCENC  =        66.85280588
  PAW double counting   =       156.01372664     -160.66969168
  entropy T*S    EENTRO =        -0.00000000
  eigenvalues    EBANDS =      -358.75742286
  atomic energy  EATOM  =       663.51739852
  Solvation  Ediel_sol  =         0.00000000
  ---------------------------------------------------
  free energy    TOTEN  =       -62.64549104 eV

  energy without entropy =      -62.64549104  energy(sigma->0) =      -62.64549104


--------------------------------------------------------------------------------------------------------




--------------------------------------- Iteration      1(   6)  ---------------------------------------


    POTLOK:  cpu time      0.3113: real time      0.3129
    SETDIJ:  cpu time      0.1924: real time      0.1932
     EDDAV:  cpu time      0.4507: real time      0.4532
       DOS:  cpu time      0.0002: real time      0.0002
    CHARGE:  cpu time      0.1991: real time      0.1999
    MIXING:  cpu time      0.0098: real time      0.0098
    --------------------------------------------
      LOOP:  cpu time      1.1634: real time      1.1692

 eigenvalue-minimisations  :    72
 total energy-change (2. order) : 0.4835942E+01  (-0.7181923E+00)
 number of electron      22.0000000 magnetization 
 augmentation part        0.5166501 magnetization 

 Broyden mixing:
  rms(total) = 0.55277E+00    rms(broyden)= 0.55274E+00
  rms(prec ) = 0.65521E+00
  weight for this iteration     100.00

 eigenvalues of (default mixing * dielectric matrix)
  average eigenvalue GAMMA=   1.5980
  1.5980

 Free energy of the ion-electron system (eV)
  ---------------------------------------------------
  alpha Z        PSCENC =         0.62641250
  Ewald energy   TEWEN  =       859.75079838
  -Hartree energ DENC   =     -1334.74551781
  -exchange      EXHF   =         0.00000000
  -V(xc)+E(xc)   XCENC  =        69.19767098
  PAW double counting   =       225.11360268     -230.29040927
  entropy T*S    EENTRO =        -0.00000000
  eigenvalues    EBANDS =      -310.97950503
  atomic energy  EATOM  =       663.51739852
  Solvation  Ediel_sol  =         0.00000000
  ---------------------------------------------------
  free energy    TOTEN  =       -57.80954904 eV

  energy without entropy =      -57.80954904  energy(sigma->0) =      -57.80954904


--------------------------------------------------------------------------------------------------------




--------------------------------------- Iteration      1(   7)  ---------------------------------------


    POTLOK:  cpu time      0.3117: real time      0.3134
    SETDIJ:  cpu time      0.1927: real time      0.1935
     EDDAV:  cpu time      0.4189: real time      0.4212
       DOS:  cpu time      0.0001: real time      0.0001
    CHARGE:  cpu time      0.1958: real time      0.1966
    MIXING:  cpu time      0.0130: real time      0.0131
    --------------------------------------------
      LOOP:  cpu time      1.1323: real time      1.1380

 eigenvalue-minimisations  :    64
 total energy-change (2. order) : 0.1134067E+01  (-0.3804653E+00)
 number of electron      22.0000000 magnetization 
 augmentation part        0.4867647 magnetization 

 Broyden mixing:
  rms(total) = 0.21937E+00    rms(broyden)= 0.21930E+00
  rms(prec ) = 0.25196E+00
  weight for this iteration     100.00

 eigenvalues of (default mixing * dielectric matrix)
  average eigenvalue GAMMA=   1.6825
  1.6825  1.6825

 Free energy of the ion-electron system (eV)
  ---------------------------------------------------
  alpha Z        PSCENC =         0.62641250
  Ewald energy   TEWEN  =       859.75079838
  -Hartree energ DENC   =     -1370.36922299
  -exchange      EXHF   =         0.00000000
  -V(xc)+E(xc)   XCENC  =        71.24760049
  PAW double counting   =       281.28009570     -286.68936860
  entropy T*S    EENTRO =        -0.00000000
  eigenvalues    EBANDS =      -276.03919646
  atomic energy  EATOM  =       663.51739852
  Solvation  Ediel_sol  =         0.00000000
  ---------------------------------------------------
  free energy    TOTEN  =       -56.67548246 eV

  energy without entropy =      -56.67548246  energy(sigma->0) =      -56.67548246


--------------------------------------------------------------------------------------------------------




--------------------------------------- Iteration      1(   8)  ---------------------------------------


    POTLOK:  cpu time      0.3164: real time      0.3181
    SETDIJ:  cpu time      0.1914: real time      0.1922
     EDDAV:  cpu time      0.4531: real time      0.4557
       DOS:  cpu time      0.0001: real time      0.0001
    CHARGE:  cpu time      0.1997: real time      0.2005
    MIXING:  cpu time      0.0080: real time      0.0080
    --------------------------------------------
      LOOP:  cpu time      1.1688: real time      1.1746

 eigenvalue-minimisations  :    72
 total energy-change (2. order) : 0.1428775E+00  (-0.2108528E-01)
 number of electron      22.0000000 magnetization 
 augmentation part        0.4857493 magnetization 

 Broyden mixing:
  rms(total) = 0.73294E-01    rms(broyden)= 0.73288E-01
  rms(prec ) = 0.98091E-01
  weight for this iteration     100.00

 eigenvalues of (default mixing * dielectric matrix)
  average eigenvalue GAMMA=   1.6266
  2.4162  0.8666  1.5968

 Free energy of the ion-electron system (eV)
  ---------------------------------------------------
  alpha Z        PSCENC =         0.62641250
  Ewald energy   TEWEN  =       859.75079838
  -Hartree energ DENC   =     -1376.83360657
  -exchange      EXHF   =         0.00000000
  -V(xc)+E(xc)   XCENC  =        71.73414822
  PAW double counting   =       287.37562530     -292.69142370
  entropy T*S    EENTRO =        -0.00000000
  eigenvalues    EBANDS =      -270.01195760
  atomic energy  EATOM  =       663.51739852
  Solvation  Ediel_sol  =         0.00000000
  ---------------------------------------------------
  free energy    TOTEN  =       -56.53260494 eV

  energy without entropy =      -56.53260494  energy(sigma->0) =      -56.53260494


--------------------------------------------------------------------------------------------------------




--------------------------------------- Iteration      1(   9)  ---------------------------------------


    POTLOK:  cpu time      0.3174: real time      0.3191
    SETDIJ:  cpu time      0.1940: real time      0.1948
     EDDAV:  cpu time      0.4528: real time      0.4554
       DOS:  cpu time      0.0001: real time      0.0001
    CHARGE:  cpu time      0.2000: real time      0.2008
    MIXING:  cpu time      0.0081: real time      0.0081
    --------------------------------------------
      LOOP:  cpu time      1.1724: real time      1.1783

 eigenvalue-minimisations  :    72
 total energy-change (2. order) : 0.3900570E-01  (-0.5534985E-02)
 number of electron      22.0000000 magnetization 
 augmentation part        0.4841597 magnetization 

 Broyden mixing:
  rms(total) = 0.24623E-01    rms(broyden)= 0.24619E-01
  rms(prec ) = 0.47417E-01
  weight for this iteration     100.00

 eigenvalues of (default mixing * dielectric matrix)
  average eigenvalue GAMMA=   1.4355
  2.2865  1.5979  0.9288  0.9288

 Free energy of the ion-electron system (eV)
  ---------------------------------------------------
  alpha Z        PSCENC =         0.62641250
  Ewald energy   TEWEN  =       859.75079838
  -Hartree energ DENC   =     -1382.63167840
  -exchange      EXHF   =         0.00000000
  -V(xc)+E(xc)   XCENC  =        72.07105221
  PAW double counting   =       291.46418532     -296.74289626
  entropy T*S    EENTRO =        -0.00000000
  eigenvalues    EBANDS =      -264.54887152
  atomic energy  EATOM  =       663.51739852
  Solvation  Ediel_sol  =         0.00000000
  ---------------------------------------------------
  free energy    TOTEN  =       -56.49359924 eV

  energy without entropy =      -56.49359924  energy(sigma->0) =      -56.49359924


--------------------------------------------------------------------------------------------------------




--------------------------------------- Iteration      1(  10)  ---------------------------------------


    POTLOK:  cpu time      0.3187: real time      0.3203
    SETDIJ:  cpu time      0.1923: real time      0.1932
     EDDAV:  cpu time      0.4078: real time      0.4100
       DOS:  cpu time      0.0001: real time      0.0001
    CHARGE:  cpu time      0.1938: real time      0.1946
    MIXING:  cpu time      0.0139: real time      0.0139
    --------------------------------------------
      LOOP:  cpu time      1.1265: real time      1.1321

 eigenvalue-minimisations  :    64
 total energy-change (2. order) : 0.4730067E-02  (-0.1638105E-02)
 number of electron      22.0000000 magnetization 
 augmentation part        0.4827622 magnetization 

 Broyden mixing:
  rms(total) = 0.17264E-01    rms(broyden)= 0.17260E-01
  rms(prec ) = 0.35002E-01
  weight for this iteration     100.00

 eigenvalues of (default mixing * dielectric matrix)
  average eigenvalue GAMMA=   1.6501
  2.6511  2.2970  0.9991  0.9991  1.3042

 Free energy of the ion-electron system (eV)
  ---------------------------------------------------
  alpha Z        PSCENC =         0.62641250
  Ewald energy   TEWEN  =       859.75079838
  -Hartree energ DENC   =     -1385.02414374
  -exchange      EXHF   =         0.00000000
  -V(xc)+E(xc)   XCENC  =        72.11527687
  PAW double counting   =       291.19164732     -296.48118373
  entropy T*S    EENTRO =        -0.00000000
  eigenvalues    EBANDS =      -262.18507530
  atomic energy  EATOM  =       663.51739852
  Solvation  Ediel_sol  =         0.00000000
  ---------------------------------------------------
  free energy    TOTEN  =       -56.48886917 eV

  energy without entropy =      -56.48886917  energy(sigma->0) =      -56.48886917


--------------------------------------------------------------------------------------------------------




--------------------------------------- Iteration      1(  11)  ---------------------------------------


    POTLOK:  cpu time      0.3182: real time      0.3199
    SETDIJ:  cpu time      0.1925: real time      0.1933
     EDDAV:  cpu time      0.4506: real time      0.4531
       DOS:  cpu time      0.0001: real time      0.0001
    CHARGE:  cpu time      0.1988: real time      0.1996
    MIXING:  cpu time      0.0093: real time      0.0094
    --------------------------------------------
      LOOP:  cpu time      1.1695: real time      1.1753

 eigenvalue-minimisations  :    72
 total energy-change (2. order) : 0.1088773E-01  (-0.7750454E-03)
 number of electron      22.0000000 magnetization 
 augmentation part        0.4824390 magnetization 

 Broyden mixing:
  rms(total) = 0.75929E-02    rms(broyden)= 0.75925E-02
  rms(prec ) = 0.17338E-01
  weight for this iteration     100.00

 eigenvalues of (default mixing * dielectric matrix)
  average eigenvalue GAMMA=   1.6959
  3.0981  2.5306  1.4101  1.0974  1.0196  1.0196

 Free energy of the ion-electron system (eV)
  ---------------------------------------------------
  alpha Z        PSCENC =         0.62641250
  Ewald energy   TEWEN  =       859.75079838
  -Hartree energ DENC   =     -1389.30122327
  -exchange      EXHF   =         0.00000000
  -V(xc)+E(xc)   XCENC  =        72.23234597
  PAW double counting   =       289.85758719     -295.13223203
  entropy T*S    EENTRO =        -0.00000000
  eigenvalues    EBANDS =      -258.02906872
  atomic energy  EATOM  =       663.51739852
  Solvation  Ediel_sol  =         0.00000000
  ---------------------------------------------------
  free energy    TOTEN  =       -56.47798144 eV

  energy without entropy =      -56.47798144  energy(sigma->0) =      -56.47798144


--------------------------------------------------------------------------------------------------------




--------------------------------------- Iteration      1(  12)  ---------------------------------------


    POTLOK:  cpu time      0.3158: real time      0.3175
    SETDIJ:  cpu time      0.1930: real time      0.1939
     EDDAV:  cpu time      0.4123: real time      0.4145
       DOS:  cpu time      0.0001: real time      0.0001
    CHARGE:  cpu time      0.1998: real time      0.2006
    MIXING:  cpu time      0.0105: real time      0.0106
    --------------------------------------------
      LOOP:  cpu time      1.1315: real time      1.1371

 eigenvalue-minimisations  :    64
 total energy-change (2. order) :-0.1490703E-02  (-0.1709140E-03)
 number of electron      22.0000000 magnetization 
 augmentation part        0.4821641 magnetization 

 Broyden mixing:
  rms(total) = 0.57152E-02    rms(broyden)= 0.57151E-02
  rms(prec ) = 0.11549E-01
  weight for this iteration     100.00

 eigenvalues of (default mixing * dielectric matrix)
  average eigenvalue GAMMA=   1.8541
  4.0932  2.4251  2.0904  1.4843  0.9287  0.9787  0.9787

 Free energy of the ion-electron system (eV)
  ---------------------------------------------------
  alpha Z        PSCENC =         0.62641250
  Ewald energy   TEWEN  =       859.75079838
  -Hartree energ DENC   =     -1390.97956270
  -exchange      EXHF   =         0.00000000
  -V(xc)+E(xc)   XCENC  =        72.25673237
  PAW double counting   =       289.38619486     -294.66230020
  entropy T*S    EENTRO =        -0.00000000
  eigenvalues    EBANDS =      -256.37514589
  atomic energy  EATOM  =       663.51739852
  Solvation  Ediel_sol  =         0.00000000
  ---------------------------------------------------
  free energy    TOTEN  =       -56.47947214 eV

  energy without entropy =      -56.47947214  energy(sigma->0) =      -56.47947214


--------------------------------------------------------------------------------------------------------




--------------------------------------- Iteration      1(  13)  ---------------------------------------


    POTLOK:  cpu time      0.3129: real time      0.3146
    SETDIJ:  cpu time      0.1934: real time      0.1942
     EDDAV:  cpu time      0.4582: real time      0.4607
       DOS:  cpu time      0.0002: real time      0.0002
    CHARGE:  cpu time      0.2016: real time      0.2025
    MIXING:  cpu time      0.0112: real time      0.0112
    --------------------------------------------
      LOOP:  cpu time      1.1775: real time      1.1834

 eigenvalue-minimisations  :    72
 total energy-change (2. order) :-0.8202336E-02  (-0.1277563E-03)
 number of electron      22.0000000 magnetization 
 augmentation part        0.4821206 magnetization 

 Broyden mixing:
  rms(total) = 0.29627E-02    rms(broyden)= 0.29625E-02
  rms(prec ) = 0.65717E-02
  weight for this iteration     100.00

 eigenvalues of (default mixing * dielectric matrix)
  average eigenvalue GAMMA=   1.9440
  4.9844  2.6805  2.1713  1.4196  1.4196  0.9242  0.9763  0.9763

 Free energy of the ion-electron system (eV)
  ---------------------------------------------------
  alpha Z        PSCENC =         0.62641250
  Ewald energy   TEWEN  =       859.75079838
  -Hartree energ DENC   =     -1391.78463323
  -exchange      EXHF   =         0.00000000
  -V(xc)+E(xc)   XCENC  =        72.26016691
  PAW double counting   =       289.34628785     -294.62173204
  entropy T*S    EENTRO =        -0.00000000
  eigenvalues    EBANDS =      -255.58237338
  atomic energy  EATOM  =       663.51739852
  Solvation  Ediel_sol  =         0.00000000
  ---------------------------------------------------
  free energy    TOTEN  =       -56.48767448 eV

  energy without entropy =      -56.48767448  energy(sigma->0) =      -56.48767448


--------------------------------------------------------------------------------------------------------




--------------------------------------- Iteration      1(  14)  ---------------------------------------


    POTLOK:  cpu time      0.3123: real time      0.3139
    SETDIJ:  cpu time      0.1917: real time      0.1925
     EDDAV:  cpu time      0.3696: real time      0.3717
       DOS:  cpu time      0.0001: real time      0.0001
    CHARGE:  cpu time      0.1978: real time      0.1986
    MIXING:  cpu time      0.0134: real time      0.0134
    --------------------------------------------
      LOOP:  cpu time      1.0849: real time      1.0902

 eigenvalue-minimisations  :    56
 total energy-change (2. order) :-0.5974715E-02  (-0.7048934E-04)
 number of electron      22.0000000 magnetization 
 augmentation part        0.4819828 magnetization 

 Broyden mixing:
  rms(total) = 0.19687E-02    rms(broyden)= 0.19686E-02
  rms(prec ) = 0.40211E-02
  weight for this iteration     100.00

 eigenvalues of (default mixing * dielectric matrix)
  average eigenvalue GAMMA=   2.1520
  6.2147  3.3617  2.3399  1.9839  1.3182  1.3182  0.9649  0.9649  0.9015

 Free energy of the ion-electron system (eV)
  ---------------------------------------------------
  alpha Z        PSCENC =         0.62641250
  Ewald energy   TEWEN  =       859.75079838
  -Hartree energ DENC   =     -1392.16431657
  -exchange      EXHF   =         0.00000000
  -V(xc)+E(xc)   XCENC  =        72.25450611
  PAW double counting   =       289.40568635     -294.68223885
  entropy T*S    EENTRO =        -0.00000000
  eigenvalues    EBANDS =      -255.20189564
  atomic energy  EATOM  =       663.51739852
  Solvation  Ediel_sol  =         0.00000000
  ---------------------------------------------------
  free energy    TOTEN  =       -56.49364919 eV

  energy without entropy =      -56.49364919  energy(sigma->0) =      -56.49364919


--------------------------------------------------------------------------------------------------------




--------------------------------------- Iteration      1(  15)  ---------------------------------------


    POTLOK:  cpu time      0.3081: real time      0.3097
    SETDIJ:  cpu time      0.1916: real time      0.1924
     EDDAV:  cpu time      0.4097: real time      0.4120
       DOS:  cpu time      0.0001: real time      0.0001
    CHARGE:  cpu time      0.1986: real time      0.1994
    MIXING:  cpu time      0.0106: real time      0.0106
    --------------------------------------------
      LOOP:  cpu time      1.1188: real time      1.1243

 eigenvalue-minimisations  :    64
 total energy-change (2. order) :-0.4905564E-02  (-0.8384333E-04)
 number of electron      22.0000000 magnetization 
 augmentation part        0.4820266 magnetization 

 Broyden mixing:
  rms(total) = 0.11383E-02    rms(broyden)= 0.11382E-02
  rms(prec ) = 0.19434E-02
  weight for this iteration     100.00

 eigenvalues of (default mixing * dielectric matrix)
  average eigenvalue GAMMA=   2.1468
  6.5097  3.8428  2.4026  1.8190  1.5144  1.5144  0.9733  0.9733  0.9112  1.0072

 Free energy of the ion-electron system (eV)
  ---------------------------------------------------
  alpha Z        PSCENC =         0.62641250
  Ewald energy   TEWEN  =       859.75079838
  -Hartree energ DENC   =     -1392.17454758
  -exchange      EXHF   =         0.00000000
  -V(xc)+E(xc)   XCENC  =        72.24264353
  PAW double counting   =       289.42261923     -294.69784380
  entropy T*S    EENTRO =        -0.00000000
  eigenvalues    EBANDS =      -255.18603555
  atomic energy  EATOM  =       663.51739852
  Solvation  Ediel_sol  =         0.00000000
  ---------------------------------------------------
  free energy    TOTEN  =       -56.49855476 eV

  energy without entropy =      -56.49855476  energy(sigma->0) =      -56.49855476


--------------------------------------------------------------------------------------------------------




--------------------------------------- Iteration      1(  16)  ---------------------------------------


    POTLOK:  cpu time      0.3058: real time      0.3075
    SETDIJ:  cpu time      0.1928: real time      0.1936
     EDDAV:  cpu time      0.4502: real time      0.4527
       DOS:  cpu time      0.0001: real time      0.0001
    CHARGE:  cpu time      0.1962: real time      0.1970
    MIXING:  cpu time      0.0133: real time      0.0133
    --------------------------------------------
      LOOP:  cpu time      1.1583: real time      1.1642

 eigenvalue-minimisations  :    72
 total energy-change (2. order) :-0.9893115E-03  (-0.9548766E-05)
 number of electron      22.0000000 magnetization 
 augmentation part        0.4819647 magnetization 

 Broyden mixing:
  rms(total) = 0.68980E-03    rms(broyden)= 0.68971E-03
  rms(prec ) = 0.12058E-02
  weight for this iteration     100.00

 eigenvalues of (default mixing * dielectric matrix)
  average eigenvalue GAMMA=   2.2515
  7.6620  4.2906  2.4417  2.1707  1.8232  1.5130  1.0070  1.0070  0.9704  0.9704
  0.9104

 Free energy of the ion-electron system (eV)
  ---------------------------------------------------
  alpha Z        PSCENC =         0.62641250
  Ewald energy   TEWEN  =       859.75079838
  -Hartree energ DENC   =     -1392.25204907
  -exchange      EXHF   =         0.00000000
  -V(xc)+E(xc)   XCENC  =        72.24392551
  PAW double counting   =       289.46268604     -294.73810976
  entropy T*S    EENTRO =        -0.00000000
  eigenvalues    EBANDS =      -255.11060620
  atomic energy  EATOM  =       663.51739852
  Solvation  Ediel_sol  =         0.00000000
  ---------------------------------------------------
  free energy    TOTEN  =       -56.49954407 eV

  energy without entropy =      -56.49954407  energy(sigma->0) =      -56.49954407


--------------------------------------------------------------------------------------------------------




--------------------------------------- Iteration      1(  17)  ---------------------------------------


    POTLOK:  cpu time      0.3038: real time      0.3055
    SETDIJ:  cpu time      0.1925: real time      0.1934
     EDDAV:  cpu time      0.3665: real time      0.3685
       DOS:  cpu time      0.0001: real time      0.0001
    CHARGE:  cpu time      0.1962: real time      0.1971
    MIXING:  cpu time      0.0128: real time      0.0128
    --------------------------------------------
      LOOP:  cpu time      1.0720: real time      1.0773

 eigenvalue-minimisations  :    56
 total energy-change (2. order) :-0.7920581E-03  (-0.6526451E-05)
 number of electron      22.0000000 magnetization 
 augmentation part        0.4819630 magnetization 

 Broyden mixing:
  rms(total) = 0.36988E-03    rms(broyden)= 0.36982E-03
  rms(prec ) = 0.66507E-03
  weight for this iteration     100.00

 eigenvalues of (default mixing * dielectric matrix)
  average eigenvalue GAMMA=   2.2566
  7.8490  4.6753  2.7082  2.3310  1.5512  1.5512  1.5267  0.8865  1.0291  1.0291
  0.9708  0.9708

 Free energy of the ion-electron system (eV)
  ---------------------------------------------------
  alpha Z        PSCENC =         0.62641250
  Ewald energy   TEWEN  =       859.75079838
  -Hartree energ DENC   =     -1392.24034756
  -exchange      EXHF   =         0.00000000
  -V(xc)+E(xc)   XCENC  =        72.24175385
  PAW double counting   =       289.43346589     -294.70884271
  entropy T*S    EENTRO =        -0.00000000
  eigenvalues    EBANDS =      -255.12097501
  atomic energy  EATOM  =       663.51739852
  Solvation  Ediel_sol  =         0.00000000
  ---------------------------------------------------
  free energy    TOTEN  =       -56.50033613 eV

  energy without entropy =      -56.50033613  energy(sigma->0) =      -56.50033613


--------------------------------------------------------------------------------------------------------




--------------------------------------- Iteration      1(  18)  ---------------------------------------


    POTLOK:  cpu time      0.3011: real time      0.3028
    SETDIJ:  cpu time      0.1919: real time      0.1927
     EDDAV:  cpu time      0.4485: real time      0.4510
       DOS:  cpu time      0.0001: real time      0.0001
    CHARGE:  cpu time      0.1969: real time      0.1977
    MIXING:  cpu time      0.0129: real time      0.0130
    --------------------------------------------
      LOOP:  cpu time      1.1515: real time      1.1572

 eigenvalue-minimisations  :    72
 total energy-change (2. order) :-0.2759054E-03  (-0.1688164E-05)
 number of electron      22.0000000 magnetization 
 augmentation part        0.4819356 magnetization 

 Broyden mixing:
  rms(total) = 0.25282E-03    rms(broyden)= 0.25276E-03
  rms(prec ) = 0.42435E-03
  weight for this iteration     100.00

 eigenvalues of (default mixing * dielectric matrix)
  average eigenvalue GAMMA=   2.2973
  8.4312  5.0677  2.9978  2.5077  1.7852  1.7372  1.5128  1.0653  1.0653  0.9564
  0.9564  0.9384  0.8434

 Free energy of the ion-electron system (eV)
  ---------------------------------------------------
  alpha Z        PSCENC =         0.62641250
  Ewald energy   TEWEN  =       859.75079838
  -Hartree energ DENC   =     -1392.27328067
  -exchange      EXHF   =         0.00000000
  -V(xc)+E(xc)   XCENC  =        72.24258366
  PAW double counting   =       289.43609870     -294.71160331
  entropy T*S    EENTRO =        -0.00000000
  eigenvalues    EBANDS =      -255.08901981
  atomic energy  EATOM  =       663.51739852
  Solvation  Ediel_sol  =         0.00000000
  ---------------------------------------------------
  free energy    TOTEN  =       -56.50061203 eV

  energy without entropy =      -56.50061203  energy(sigma->0) =      -56.50061203


--------------------------------------------------------------------------------------------------------




--------------------------------------- Iteration      1(  19)  ---------------------------------------


    POTLOK:  cpu time      0.3018: real time      0.3034
    SETDIJ:  cpu time      0.1926: real time      0.1935
     EDDAV:  cpu time      0.4108: real time      0.4131
       DOS:  cpu time      0.0001: real time      0.0001
    CHARGE:  cpu time      0.1957: real time      0.1965
    MIXING:  cpu time      0.0140: real time      0.0140
    --------------------------------------------
      LOOP:  cpu time      1.1150: real time      1.1206

 eigenvalue-minimisations  :    64
 total energy-change (2. order) :-0.1299583E-03  (-0.5565364E-06)
 number of electron      22.0000000 magnetization 
 augmentation part        0.4819433 magnetization 

 Broyden mixing:
  rms(total) = 0.17389E-03    rms(broyden)= 0.17384E-03
  rms(prec ) = 0.26656E-03
  weight for this iteration     100.00

 eigenvalues of (default mixing * dielectric matrix)
  average eigenvalue GAMMA=   2.2567
  8.4754  5.2533  3.1586  2.4120  2.0099  1.5839  1.5839  1.1172  1.1172  0.8779
  1.0104  1.0104  0.9917  0.9917

 Free energy of the ion-electron system (eV)
  ---------------------------------------------------
  alpha Z        PSCENC =         0.62641250
  Ewald energy   TEWEN  =       859.75079838
  -Hartree energ DENC   =     -1392.26320799
  -exchange      EXHF   =         0.00000000
  -V(xc)+E(xc)   XCENC  =        72.24178667
  PAW double counting   =       289.41800752     -294.69351095
  entropy T*S    EENTRO =        -0.00000000
  eigenvalues    EBANDS =      -255.09842665
  atomic energy  EATOM  =       663.51739852
  Solvation  Ediel_sol  =         0.00000000
  ---------------------------------------------------
  free energy    TOTEN  =       -56.50074199 eV

  energy without entropy =      -56.50074199  energy(sigma->0) =      -56.50074199


--------------------------------------------------------------------------------------------------------




--------------------------------------- Iteration      1(  20)  ---------------------------------------


    POTLOK:  cpu time      0.3013: real time      0.3030
    SETDIJ:  cpu time      0.1907: real time      0.1916
     EDDAV:  cpu time      0.4114: real time      0.4137
       DOS:  cpu time      0.0001: real time      0.0001
    CHARGE:  cpu time      0.1964: real time      0.1972
    MIXING:  cpu time      0.0137: real time      0.0137
    --------------------------------------------
      LOOP:  cpu time      1.1137: real time      1.1192

 eigenvalue-minimisations  :    64
 total energy-change (2. order) :-0.4696710E-04  (-0.9406933E-07)
 number of electron      22.0000000 magnetization 
 augmentation part        0.4819464 magnetization 

 Broyden mixing:
  rms(total) = 0.66038E-04    rms(broyden)= 0.65920E-04
  rms(prec ) = 0.13853E-03
  weight for this iteration     100.00

 eigenvalues of (default mixing * dielectric matrix)
  average eigenvalue GAMMA=   2.3293
  8.8075  5.6559  3.7575  2.6115  2.3790  1.6979  1.6945  1.3601  1.1032  1.1032
  0.9762  0.9762  0.9931  0.9621  0.8614

 Free energy of the ion-electron system (eV)
  ---------------------------------------------------
  alpha Z        PSCENC =         0.62641250
  Ewald energy   TEWEN  =       859.75079838
  -Hartree energ DENC   =     -1392.26694431
  -exchange      EXHF   =         0.00000000
  -V(xc)+E(xc)   XCENC  =        72.24187325
  PAW double counting   =       289.42135851     -294.69682151
  entropy T*S    EENTRO =        -0.00000000
  eigenvalues    EBANDS =      -255.09486431
  atomic energy  EATOM  =       663.51739852
  Solvation  Ediel_sol  =         0.00000000
  ---------------------------------------------------
  free energy    TOTEN  =       -56.50078896 eV

  energy without entropy =      -56.50078896  energy(sigma->0) =      -56.50078896


--------------------------------------------------------------------------------------------------------




--------------------------------------- Iteration      1(  21)  ---------------------------------------


    POTLOK:  cpu time      0.3093: real time      0.3109
    SETDIJ:  cpu time      0.1911: real time      0.1919
     EDDAV:  cpu time      0.4094: real time      0.4116
       DOS:  cpu time      0.0001: real time      0.0001
    CHARGE:  cpu time      0.1951: real time      0.1959
    MIXING:  cpu time      0.0165: real time      0.0165
    --------------------------------------------
      LOOP:  cpu time      1.1215: real time      1.1271

 eigenvalue-minimisations  :    64
 total energy-change (2. order) :-0.3725252E-04  (-0.8022003E-07)
 number of electron      22.0000000 magnetization 
 augmentation part        0.4819488 magnetization 

 Broyden mixing:
  rms(total) = 0.63457E-04    rms(broyden)= 0.63339E-04
  rms(prec ) = 0.92744E-04
  weight for this iteration     100.00

 eigenvalues of (default mixing * dielectric matrix)
  average eigenvalue GAMMA=   2.3326
  8.9302  5.8379  4.0881  2.7750  2.4238  1.7236  1.7236  1.5137  1.2445  1.2445
  0.9828  0.9828  1.0308  1.0308  0.8675  0.9220

 Free energy of the ion-electron system (eV)
  ---------------------------------------------------
  alpha Z        PSCENC =         0.62641250
  Ewald energy   TEWEN  =       859.75079838
  -Hartree energ DENC   =     -1392.26634452
  -exchange      EXHF   =         0.00000000
  -V(xc)+E(xc)   XCENC  =        72.24165151
  PAW double counting   =       289.42184801     -294.69731987
  entropy T*S    EENTRO =        -0.00000000
  eigenvalues    EBANDS =      -255.09527074
  atomic energy  EATOM  =       663.51739852
  Solvation  Ediel_sol  =         0.00000000
  ---------------------------------------------------
  free energy    TOTEN  =       -56.50082621 eV

  energy without entropy =      -56.50082621  energy(sigma->0) =      -56.50082621


--------------------------------------------------------------------------------------------------------




--------------------------------------- Iteration      1(  22)  ---------------------------------------


    POTLOK:  cpu time      0.3141: real time      0.3158
    SETDIJ:  cpu time      0.1907: real time      0.1916
     EDDAV:  cpu time      0.4134: real time      0.4157
       DOS:  cpu time      0.0001: real time      0.0001
    CHARGE:  cpu time      0.1971: real time      0.1979
    MIXING:  cpu time      0.0145: real time      0.0146
    --------------------------------------------
      LOOP:  cpu time      1.1301: real time      1.1357

 eigenvalue-minimisations  :    64
 total energy-change (2. order) :-0.1076136E-04  (-0.1489480E-07)
 number of electron      22.0000000 magnetization 
 augmentation part        0.4819492 magnetization 

 Broyden mixing:
  rms(total) = 0.35090E-04    rms(broyden)= 0.34891E-04
  rms(prec ) = 0.50748E-04
  weight for this iteration     100.00

 eigenvalues of (default mixing * dielectric matrix)
  average eigenvalue GAMMA=   2.3631
  8.9789  6.2067  4.4483  3.0438  2.5259  2.0295  2.0295  1.4745  1.2739  1.2739
  1.0786  1.0786  0.9713  0.9713  0.9588  0.9588  0.8704

 Free energy of the ion-electron system (eV)
  ---------------------------------------------------
  alpha Z        PSCENC =         0.62641250
  Ewald energy   TEWEN  =       859.75079838
  -Hartree energ DENC   =     -1392.26778696
  -exchange      EXHF   =         0.00000000
  -V(xc)+E(xc)   XCENC  =        72.24164662
  PAW double counting   =       289.42234479     -294.69780971
  entropy T*S    EENTRO =        -0.00000000
  eigenvalues    EBANDS =      -255.09384113
  atomic energy  EATOM  =       663.51739852
  Solvation  Ediel_sol  =         0.00000000
  ---------------------------------------------------
  free energy    TOTEN  =       -56.50083697 eV

  energy without entropy =      -56.50083697  energy(sigma->0) =      -56.50083697


--------------------------------------------------------------------------------------------------------




--------------------------------------- Iteration      1(  23)  ---------------------------------------


    POTLOK:  cpu time      0.3134: real time      0.3151
    SETDIJ:  cpu time      0.1905: real time      0.1914
     EDDAV:  cpu time      0.4099: real time      0.4121
       DOS:  cpu time      0.0001: real time      0.0001
    CHARGE:  cpu time      0.1983: real time      0.1992
    MIXING:  cpu time      0.0134: real time      0.0135
    --------------------------------------------
      LOOP:  cpu time      1.1257: real time      1.1313

 eigenvalue-minimisations  :    64
 total energy-change (2. order) :-0.4859239E-05  (-0.9900376E-08)
 number of electron      22.0000000 magnetization 
 augmentation part        0.4819484 magnetization 

 Broyden mixing:
  rms(total) = 0.23679E-04    rms(broyden)= 0.23382E-04
  rms(prec ) = 0.31865E-04
  weight for this iteration     100.00

 eigenvalues of (default mixing * dielectric matrix)
  average eigenvalue GAMMA=   2.3491
  9.0710  6.4344  4.7478  3.1865  2.4326  2.4326  1.6473  1.6473  1.2468  1.2468
  1.3738  0.9824  0.9824  1.0152  1.0152  1.0256  0.8653  0.9299

 Free energy of the ion-electron system (eV)
  ---------------------------------------------------
  alpha Z        PSCENC =         0.62641250
  Ewald energy   TEWEN  =       859.75079838
  -Hartree energ DENC   =     -1392.26956549
  -exchange      EXHF   =         0.00000000
  -V(xc)+E(xc)   XCENC  =        72.24168083
  PAW double counting   =       289.42355299     -294.69902571
  entropy T*S    EENTRO =        -0.00000000
  eigenvalues    EBANDS =      -255.09209387
  atomic energy  EATOM  =       663.51739852
  Solvation  Ediel_sol  =         0.00000000
  ---------------------------------------------------
  free energy    TOTEN  =       -56.50084183 eV

  energy without entropy =      -56.50084183  energy(sigma->0) =      -56.50084183


--------------------------------------------------------------------------------------------------------




--------------------------------------- Iteration      1(  24)  ---------------------------------------


    POTLOK:  cpu time      0.3103: real time      0.3119
    SETDIJ:  cpu time      0.1909: real time      0.1917
     EDDAV:  cpu time      0.4131: real time      0.4153
       DOS:  cpu time      0.0001: real time      0.0001
    CHARGE:  cpu time      0.1952: real time      0.1959
    MIXING:  cpu time      0.0160: real time      0.0161
    --------------------------------------------
      LOOP:  cpu time      1.1255: real time      1.1311

 eigenvalue-minimisations  :    64
 total energy-change (2. order) :-0.1378202E-05  (-0.2241670E-08)
 number of electron      22.0000000 magnetization 
 augmentation part        0.4819480 magnetization 

 Broyden mixing:
  rms(total) = 0.12035E-04    rms(broyden)= 0.11448E-04
  rms(prec ) = 0.17355E-04
  weight for this iteration     100.00

 eigenvalues of (default mixing * dielectric matrix)
  average eigenvalue GAMMA=   2.3895
  9.1057  6.7527  5.0251  3.5447  2.5819  2.4951  1.9659  1.9659  1.3207  1.3207
  1.4320  1.0570  1.0570  0.9801  0.9801  1.0095  1.0095  0.8693  0.9271

 Free energy of the ion-electron system (eV)
  ---------------------------------------------------
  alpha Z        PSCENC =         0.62641250
  Ewald energy   TEWEN  =       859.75079838
  -Hartree energ DENC   =     -1392.27016068
  -exchange      EXHF   =         0.00000000
  -V(xc)+E(xc)   XCENC  =        72.24168266
  PAW double counting   =       289.42322483     -294.69870300
  entropy T*S    EENTRO =        -0.00000000
  eigenvalues    EBANDS =      -255.09149642
  atomic energy  EATOM  =       663.51739852
  Solvation  Ediel_sol  =         0.00000000
  ---------------------------------------------------
  free energy    TOTEN  =       -56.50084321 eV

  energy without entropy =      -56.50084321  energy(sigma->0) =      -56.50084321


--------------------------------------------------------------------------------------------------------




--------------------------------------- Iteration      1(  25)  ---------------------------------------


    POTLOK:  cpu time      0.3169: real time      0.3186
    SETDIJ:  cpu time      0.1905: real time      0.1914
     EDDAV:  cpu time      0.3720: real time      0.3740
       DOS:  cpu time      0.0001: real time      0.0001
    CHARGE:  cpu time      0.1966: real time      0.1974
    MIXING:  cpu time      0.0151: real time      0.0151
    --------------------------------------------
      LOOP:  cpu time      1.0912: real time      1.0966

 eigenvalue-minimisations  :    56
 total energy-change (2. order) :-0.1181884E-05  (-0.2750580E-08)
 number of electron      22.0000000 magnetization 
 augmentation part        0.4819479 magnetization 

 Broyden mixing:
  rms(total) = 0.90251E-05    rms(broyden)= 0.82273E-05
  rms(prec ) = 0.11582E-04
  weight for this iteration     100.00

 eigenvalues of (default mixing * dielectric matrix)
  average eigenvalue GAMMA=   2.3801
  9.1383  6.9237  5.1581  3.7891  2.7643  2.5392  2.1300  1.8750  1.2849  1.2849
  1.4802  1.2685  1.0701  1.0701  0.9802  0.9802  1.1077  0.8677  0.9452  0.9452

 Free energy of the ion-electron system (eV)
  ---------------------------------------------------
  alpha Z        PSCENC =         0.62641250
  Ewald energy   TEWEN  =       859.75079838
  -Hartree energ DENC   =     -1392.27037777
  -exchange      EXHF   =         0.00000000
  -V(xc)+E(xc)   XCENC  =        72.24168951
  PAW double counting   =       289.42300755     -294.69848565
  entropy T*S    EENTRO =        -0.00000000
  eigenvalues    EBANDS =      -255.09128744
  atomic energy  EATOM  =       663.51739852
  Solvation  Ediel_sol  =         0.00000000
  ---------------------------------------------------
  free energy    TOTEN  =       -56.50084439 eV

  energy without entropy =      -56.50084439  energy(sigma->0) =      -56.50084439


--------------------------------------------------------------------------------------------------------




--------------------------------------- Iteration      1(  26)  ---------------------------------------


    POTLOK:  cpu time      0.3179: real time      0.3196
    SETDIJ:  cpu time      0.1891: real time      0.1900
     EDDAV:  cpu time      0.4143: real time      0.4166
       DOS:  cpu time      0.0001: real time      0.0001
    --------------------------------------------
      LOOP:  cpu time      0.9214: real time      0.9262

 eigenvalue-minimisations  :    64
 total energy-change (2. order) :-0.3924814E-06  (-0.6988810E-09)
 number of electron      22.0000000 magnetization 
 augmentation part        0.4819479 magnetization 

 Free energy of the ion-electron system (eV)
  ---------------------------------------------------
  alpha Z        PSCENC =         0.62641250
  Ewald energy   TEWEN  =       859.75079838
  -Hartree energ DENC   =     -1392.27033393
  -exchange      EXHF   =         0.00000000
  -V(xc)+E(xc)   XCENC  =        72.24168799
  PAW double counting   =       289.42279974     -294.69827495
  entropy T*S    EENTRO =        -0.00000000
  eigenvalues    EBANDS =      -255.09133304
  atomic energy  EATOM  =       663.51739852
  Solvation  Ediel_sol  =         0.00000000
  ---------------------------------------------------
  free energy    TOTEN  =       -56.50084478 eV

  energy without entropy =      -56.50084478  energy(sigma->0) =      -56.50084478


--------------------------------------------------------------------------------------------------------




 average (electrostatic) potential at core
  the test charge radii are     0.6991  0.5201
  (the norm of the test charge is              1.0000)
       1 -58.6442       2 -58.9024       3 -58.9154       4 -58.6392       5 -41.8987
       6 -41.4629       7 -41.7344       8 -41.8637       9 -41.6471      10 -42.5238
 
 
 
 E-fermi :  -5.5144     XC(G=0):  -0.4448     alpha+bet : -0.1681

 Fermi energy:        -5.5143994487

 k-point     1 :       0.0000    0.0000    0.0000
  band No.  band energies     occupation 
      1     -19.5847      2.00000
      2     -17.8644      2.00000
      3     -14.9576      2.00000
      4     -12.6465      2.00000
      5     -11.7612      2.00000
      6     -10.4441      2.00000
      7     -10.1533      2.00000
      8      -8.6932      2.00000
      9      -8.1379      2.00000
     10      -7.4950      2.00000
     11      -5.8079      2.00000
     12      -1.8926      0.00000
     13      -0.4279      0.00000
     14       0.0014      0.00000
     15       0.1329      0.00000
     16       0.2273      0.00000
     17       0.3971      0.00000
     18       0.4528      0.00000
     19       0.5438      0.00000
     20       0.6911      0.00000
     21       0.8762      0.00000
     22       0.9192      0.00000
     23       1.0101      0.00000
     24       1.1101      0.00000


--------------------------------------------------------------------------------------------------------


 soft charge-density along one line, spin component           1
         0         1         2         3         4         5         6         7         8         9
 total charge-density along one line
 
 pseudopotential strength for first ion, spin component:           1
 10.254   0.020  -0.002  -0.001   0.001  -0.002  -0.001   0.002
  0.020  -0.001   0.000   0.000  -0.000  -0.000  -0.000   0.000
 -0.002   0.000  -4.367  -0.005   0.009  -0.015  -0.001   0.003
 -0.001   0.000  -0.005  -4.372   0.004  -0.001  -0.016   0.001
  0.001  -0.000   0.009   0.004  -4.361   0.003   0.001  -0.013
 -0.002  -0.000  -0.015  -0.001   0.003  -0.773  -0.000   0.000
 -0.001  -0.000  -0.001  -0.016   0.001  -0.000  -0.773   0.000
  0.002   0.000   0.003   0.001  -0.013   0.000   0.000  -0.773
 total augmentation occupancy for first ion, spin component:           1
  1.480  -1.050   0.053   0.024  -0.034   0.025   0.017  -0.016
 -1.050   0.836  -0.101  -0.075   0.067  -0.040  -0.031   0.027
  0.053  -0.101   1.087   0.053  -0.140   0.163   0.018  -0.057
  0.024  -0.075   0.053   1.179  -0.047   0.018   0.200  -0.019
 -0.034   0.067  -0.140  -0.047   1.017  -0.057  -0.019   0.131
  0.025  -0.040   0.163   0.018  -0.057   0.028   0.006  -0.014
  0.017  -0.031   0.018   0.200  -0.019   0.006   0.036  -0.006
 -0.016   0.027  -0.057  -0.019   0.131  -0.014  -0.006   0.019


------------------------ aborting loop because EDIFF is reached ----------------------------------------


    CHARGE:  cpu time      0.1932: real time      0.1940
    FORLOC:  cpu time      0.0360: real time      0.0362
    FORNL :  cpu time      1.0669: real time      1.0721
    STRESS:  cpu time      3.3778: real time      3.3940
    FORHAR:  cpu time      0.1108: real time      0.1113
    MIXING:  cpu time      0.0125: real time      0.0126
    OFIELD:  cpu time      0.0001: real time      0.0001

  FORCE on cell =-STRESS in cart. coord.  units (eV):
  Direction    XX          YY          ZZ          XY          YZ          ZX
  --------------------------------------------------------------------------------------
  Alpha Z     0.62641     0.62641     0.62641
  Ewald     -97.67336   292.46042   664.96341  -138.86277   -19.95638  -133.21747
  Hartree   247.14130   431.74379   713.38535   -63.47525   -19.04168   -86.38560
  E(xc)     -76.95313   -75.48200   -75.11549    -0.54507    -0.00005    -0.20511
  Local    -366.80185  -916.67960 -1565.63607   192.46775    41.43061   216.17103
  n-local   -28.01583   -29.95278   -29.73382     0.68389    -0.01986     0.15200
  augment    -0.52269    -0.63029    -0.65779     0.04668    -0.02235     0.01720
  Kinetic   321.16715   292.42135   288.96487    10.70878    -1.16787     2.85845
  Fock        0.00000     0.00000     0.00000     0.00000     0.00000     0.00000
  -------------------------------------------------------------------------------------
  Total      -1.03201    -5.49270    -3.20312     1.02401     1.22242    -0.60950
  in kB      -0.48992    -2.60749    -1.52058     0.48612     0.58031    -0.28934
  external pressure =       -1.54 kB  Pullay stress =        0.00 kB


 VOLUME and BASIS-vectors are now :
 -----------------------------------------------------------------------------
  energy-cutoff  :      520.00
  volume of cell :     3375.00
      direct lattice vectors                 reciprocal lattice vectors
    15.000000000  0.000000000  0.000000000     0.066666667  0.000000000  0.000000000
     0.000000000 15.000000000  0.000000000     0.000000000  0.066666667  0.000000000
     0.000000000  0.000000000 15.000000000     0.000000000  0.000000000  0.066666667

  length of vectors
    15.000000000 15.000000000 15.000000000     0.066666667  0.066666667  0.066666667


 FORCES acting on ions
    electron-ion (+dipol)            ewald-force                    non-local-force                 convergence-correction
 -----------------------------------------------------------------------------------------------
   -.619E+02 0.746E+02 0.110E+03   0.631E+02 -.759E+02 -.111E+03   0.144E+00 -.241E+00 0.725E+00   0.157E-04 -.173E-04 0.626E-05
   0.458E+02 -.768E+02 0.440E+02   -.465E+02 0.774E+02 -.438E+02   0.231E+00 0.473E+00 0.714E+00   -.269E-04 0.445E-04 0.965E-04
   -.613E+01 -.860E+02 -.438E+02   0.644E+01 0.854E+02 0.443E+02   -.127E+01 -.217E+00 -.919E+00   -.713E-05 0.559E-05 0.355E-04
   0.117E+02 0.938E+02 -.105E+03   -.122E+02 -.947E+02 0.103E+03   0.790E+00 0.101E+01 -.220E+01   0.131E-05 0.671E-04 -.347E-04
   -.773E+01 0.352E+01 0.650E+02   0.779E+01 -.326E+01 -.697E+02   -.297E+00 -.195E+00 0.543E+01   0.134E-05 -.445E-06 -.117E-04
   -.385E+02 0.478E+02 -.600E+01   0.402E+02 -.500E+02 0.728E+01   -.261E+01 0.348E+01 -.202E+01   0.582E-05 -.890E-05 0.777E-05
   0.324E+02 -.518E+02 0.317E+02   -.343E+02 0.548E+02 -.335E+02   0.248E+01 -.390E+01 0.218E+01   -.484E-05 0.907E-05 0.403E-05
   0.106E+02 -.622E+02 -.291E+02   -.111E+02 0.665E+02 0.310E+02   0.100E+01 -.485E+01 -.205E+01   0.374E-05 -.222E-04 -.107E-04
   0.577E+01 0.612E+02 0.422E+01   -.582E+01 -.642E+02 -.529E+01   0.249E+00 0.447E+01 0.201E+01   0.180E-06 0.103E-04 0.350E-06
   0.677E+01 -.267E+01 -.688E+02   -.754E+01 0.396E+01 0.770E+02   0.599E+00 -.142E+01 -.639E+01   0.775E-06 0.221E-05 -.162E-04
 -----------------------------------------------------------------------------------------------
   -.134E+01 0.140E+01 0.255E+01   -.195E-13 0.844E-14 0.142E-13   0.133E+01 -.140E+01 -.254E+01   -.101E-04 0.899E-04 0.770E-04
 
 
 POSITION                                       TOTAL-FORCE (eV/Angst)
 -----------------------------------------------------------------------------------
      8.02900      7.18400      5.96100         1.304397     -1.542992      0.177941
      7.37500      8.05400      6.73300        -0.523421      1.127741      0.946569
      7.34000      8.07500      8.24900        -0.958860     -0.852624     -0.340295
      7.23200      6.98600      9.08800         0.298120      0.086288     -3.844575
      8.07900      7.22900      4.85200        -0.231357      0.062727      0.687004
      8.65500      6.34000      6.44600        -0.940923      1.249463     -0.738879
      6.82400      8.92300      6.25600         0.555564     -0.874591      0.416919
      7.14600      9.08900      8.67500         0.468362     -0.598240     -0.136657
      7.18400      5.92900      8.63600         0.200851      1.478572      0.940009
      7.13700      7.19100     10.10400        -0.172733     -0.136345      1.891965
 -----------------------------------------------------------------------------------
    total drift:                               -0.007459     -0.000565      0.010907


--------------------------------------------------------------------------------------------------------



  FREE ENERGIE OF THE ION-ELECTRON SYSTEM (eV)
  ---------------------------------------------------
  free  energy   TOTEN  =       -56.50084478 eV

  energy  without entropy=      -56.50084478  energy(sigma->0) =      -56.50084478
 


--------------------------------------------------------------------------------------------------------


    POTLOK:  cpu time      0.5087: real time      0.5113


--------------------------------------------------------------------------------------------------------


 stress matrix after NEB project (eV)
     -1.03201      1.02401     -0.60950
      1.02401     -5.49270      1.22242
     -0.60950      1.22242     -3.20312
  FORCES: max atom, RMS     3.857082    1.878783
  FORCE total and by dimension    5.941232    3.844575
  Stress total and by dimension    6.879219    5.492704
     LOOP+:  cpu time     32.0132: real time     32.1738
    4ORBIT:  cpu time      0.0000: real time      0.0000

 total amount of memory used by VASP MPI-rank0   224781. kBytes
=======================================================================

   base      :      30000. kBytes
   nonlr-proj:       1257. kBytes
   fftplans  :     123538. kBytes
   grid      :      67787. kBytes
   one-center:         15. kBytes
   wavefun   :       2184. kBytes
 
  
  
 General timing and accounting informations for this job:
 ========================================================
  
                  Total CPU time used (sec):       38.596
                            User time (sec):       35.331
                          System time (sec):        3.264
                         Elapsed time (sec):       40.130
  
                   Maximum memory used (kb):      560556.
                   Average memory used (kb):          N/A
  
                          Minor page faults:       164943
                          Major page faults:         5434
                 Voluntary context switches:         3074
