ITEM: TIMESTEP
0
ITEM: NUMBER OF ATOMS
10
ITEM: BOX BOUNDS pp pp pp
0.0000000000000000e+00 1.5000000000000000e+01
0.0000000000000000e+00 1.5000000000000000e+01
0.0000000000000000e+00 1.5000000000000000e+01
ITEM: ATOMS id type x y z
4 1 8.91717 7.23714 7.04267
7 2 6.33466 8.49794 8.75745
8 2 8.76402 7.36969 9.09762
9 2 8.53644 7.29846 6.0362
1 1 6.04472 7.44187 6.9679
3 1 8.22315 7.51463 8.12039
2 1 6.84003 7.87621 7.98563
6 2 6.31777 6.79054 6.12667
5 2 5.1082 7.87598 6.90876
10 2 9.91244 6.96831 7.26276
ITEM: TIMESTEP
100
ITEM: NUMBER OF ATOMS
10
ITEM: BOX BOUNDS pp pp pp
0.0000000000000000e+00 1.5000000000000000e+01
0.0000000000000000e+00 1.5000000000000000e+01
0.0000000000000000e+00 1.5000000000000000e+01
ITEM: ATOMS id type x y z
4 1 8.84889 7.23291 6.86606
7 2 6.63083 8.92588 8.54442
8 2 8.73142 7.10706 8.9411
9 2 8.52548 7.49232 5.87768
1 1 6.05043 7.37818 7.22671
3 1 8.23986 7.48525 8.04168
2 1 6.88713 8.03311 8.00131
6 2 6.26992 6.4304 6.77259
5 2 5.00018 7.81174 7.00221
10 2 9.80827 6.67592 6.93646
ITEM: TIMESTEP
200
ITEM: NUMBER OF ATOMS
10
ITEM: BOX BOUNDS pp pp pp
0.0000000000000000e+00 1.5000000000000000e+01
0.0000000000000000e+00 1.5000000000000000e+01
0.0000000000000000e+00 1.5000000000000000e+01
ITEM: ATOMS id type x y z
4 1 8.76597 7.06093 6.77713
7 2 6.6458 8.83833 8.76769
8 2 8.99079 7.77749 8.75826
9 2 8.04902 6.9186 5.91504
1 1 6.02827 7.45953 7.29825
3 1 8.33143 7.619 7.9236
2 1 6.92945 7.97114 8.1512
6 2 6.30085 6.5302 6.68046
5 2 5.03005 7.87254 7.21596
10 2 9.77673 6.61932 6.65047
ITEM: TIMESTEP
300
ITEM: NUMBER OF ATOMS
10
ITEM: BOX BOUNDS pp pp pp
0.0000000000000000e+00 1.5000000000000000e+01
0.0000000000000000e+00 1.5000000000000000e+01
0.0000000000000000e+00 1.5000000000000000e+01
ITEM: ATOMS id type x y z
4 1 8.69415 6.96125 6.76073
7 2 6.75816 8.67467 8.95765
8 2 9.19413 8.00516 8.55871
9 2 7.92765 6.5452 6.14543
1 1 5.98823 7.48263 7.37348
3 1 8.4064 7.72317 7.81778
2 1 6.9888 7.98837 8.13925
6 2 6.17083 6.87758 6.53593
5 2 4.95769 7.60968 7.60739
10 2 9.65006 6.57522 6.53649
ITEM: TIMESTEP
400
ITEM: NUMBER OF ATOMS
10
ITEM: BOX BOUNDS pp pp pp
0.0000000000000000e+00 1.5000000000000000e+01
0.0000000000000000e+00 1.5000000000000000e+01
0.0000000000000000e+00 1.5000000000000000e+01
ITEM: ATOMS id type x y z
4 1 8.61769 6.8974 6.71137
7 2 6.88761 8.65662 9.01249
8 2 9.27314 8.22074 8.16533
9 2 7.85573 6.15857 6.42506
1 1 6.00293 7.51687 7.48857
3 1 8.40998 7.73 7.75215
2 1 7.03307 7.98659 8.16228
6 2 6.14778 7.01151 6.49607
5 2 4.90061 7.62981 7.79135
10 2 9.67714 6.75765 6.3124
ITEM: TIMESTEP
500
ITEM: NUMBER OF ATOMS
10
ITEM: BOX BOUNDS pp pp pp
0.0000000000000000e+00 1.5000000000000000e+01
0.0000000000000000e+00 1.5000000000000000e+01
0.0000000000000000e+00 1.5000000000000000e+01
ITEM: ATOMS id type x y z
4 1 8.58584 6.77496 6.71371
7 2 7.05589 8.24971 9.29157
8 2 9.12788 8.59448 7.69807
9 2 7.99644 5.83341 6.81393
1 1 5.99015 7.57484 7.57672
3 1 8.37129 7.81842 7.51974
2 1 7.11734 7.97786 8.23699
6 2 5.96587 7.48458 6.50552
5 2 5.07174 7.57072 8.08518
10 2 9.51845 6.6106 6.21176
ITEM: TIMESTEP
600
ITEM: NUMBER OF ATOMS
10
ITEM: BOX BOUNDS pp pp pp
0.0000000000000000e+00 1.5000000000000000e+01
0.0000000000000000e+00 1.5000000000000000e+01
0.0000000000000000e+00 1.5000000000000000e+01
ITEM: ATOMS id type x y z
4 1 8.49472 6.71587 6.66325
7 2 7.29166 8.39683 9.27774
8 2 9.12896 8.63123 7.4263
9 2 7.91909 5.84759 6.78885
1 1 6.02902 7.56475 7.75497
3 1 8.34497 7.83856 7.38533
2 1 7.18715 8.00107 8.22502
6 2 5.87554 7.35744 6.70174
5 2 5.14616 7.70674 8.39928
10 2 9.4275 6.55862 6.12367
ITEM: TIMESTEP
700
ITEM: NUMBER OF ATOMS
10
ITEM: BOX BOUNDS pp pp pp
0.0000000000000000e+00 1.5000000000000000e+01
0.0000000000000000e+00 1.5000000000000000e+01
0.0000000000000000e+00 1.5000000000000000e+01
ITEM: ATOMS id type x y z
4 1 8.36621 6.73157 6.52919
7 2 7.3952 8.96233 8.77222
8 2 9.34243 8.34687 7.40333
9 2 7.50015 5.98926 6.511
1 1 6.07291 7.51201 8.03352
3 1 8.41579 7.80722 7.34511
2 1 7.25655 8.09662 8.18096
6 2 5.85867 6.68725 7.27694
5 2 5.09835 7.80932 8.53616
10 2 9.26041 6.54048 5.85666
ITEM: TIMESTEP
800
ITEM: NUMBER OF ATOMS
10
ITEM: BOX BOUNDS pp pp pp
0.0000000000000000e+00 1.5000000000000000e+01
0.0000000000000000e+00 1.5000000000000000e+01
0.0000000000000000e+00 1.5000000000000000e+01
ITEM: ATOMS id type x y z
4 1 8.21368 6.74562 6.42707
7 2 7.33255 9.26902 8.47975
8 2 9.41149 8.10553 7.48067
9 2 7.20388 6.40927 6.24925
1 1 6.20477 7.44448 8.28832
3 1 8.39201 7.76043 7.21036
2 1 7.29325 8.22139 8.08948
6 2 6.23093 6.48556 7.85495
5 2 5.35578 7.7597 8.78466
10 2 8.96711 6.15934 5.94835
ITEM: TIMESTEP
900
ITEM: NUMBER OF ATOMS
10
ITEM: BOX BOUNDS pp pp pp
0.0000000000000000e+00 1.5000000000000000e+01
0.0000000000000000e+00 1.5000000000000000e+01
0.0000000000000000e+00 1.5000000000000000e+01
ITEM: ATOMS id type x y z
4 1 8.04099 6.7401 6.30926
7 2 7.11426 9.41712 8.04795
8 2 9.42709 7.983 7.47202
9 2 6.9913 6.54316 6.18902
1 1 6.3948 7.43764 8.47089
3 1 8.40767 7.67596 7.25007
2 1 7.31758 8.3076 8.01455
6 2 6.50165 6.34413 8.38567
5 2 5.38606 7.81722 8.84704
10 2 8.73733 6.1476 5.67866
ITEM: TIMESTEP
1000
ITEM: NUMBER OF ATOMS
10
ITEM: BOX BOUNDS pp pp pp
0.0000000000000000e+00 1.5000000000000000e+01
0.0000000000000000e+00 1.5000000000000000e+01
0.0000000000000000e+00 1.5000000000000000e+01
ITEM: ATOMS id type x y z
4 1 7.97921 6.67084 6.34083
7 2 7.45697 9.29026 8.32968
8 2 9.33768 8.07906 7.00764
9 2 6.97824 6.16363 6.29402
1 1 6.45241 7.48921 8.55566
3 1 8.31257 7.71767 7.09529
2 1 7.34581 8.29923 8.03161
6 2 6.34593 6.44184 8.21627
5 2 5.72094 7.88602 9.22719
10 2 8.74425 6.29746 5.67393
ITEM: TIMESTEP
1100
ITEM: NUMBER OF ATOMS
10
ITEM: BOX BOUNDS pp pp pp
0.0000000000000000e+00 1.5000000000000000e+01
0.0000000000000000e+00 1.5000000000000000e+01
0.0000000000000000e+00 1.5000000000000000e+01
ITEM: ATOMS id type x y z
4 1 7.93332 6.61779 6.35855
7 2 7.74942 9.27518 8.48945
8 2 9.07576 8.32339 6.51313
9 2 7.22193 5.91219 6.67653
1 1 6.46946 7.52216 8.66052
3 1 8.23673 7.7633 6.94053
2 1 7.47176 8.2305 8.03928
6 2 6.01689 6.63104 8.26634
5 2 5.87886 7.93182 9.48143
10 2 8.51352 6.34391 5.46888
ITEM: TIMESTEP
1200
ITEM: NUMBER OF ATOMS
10
ITEM: BOX BOUNDS pp pp pp
0.0000000000000000e+00 1.5000000000000000e+01
0.0000000000000000e+00 1.5000000000000000e+01
0.0000000000000000e+00 1.5000000000000000e+01
ITEM: ATOMS id type x y z
4 1 7.88669 6.55735 6.39611
7 2 8.08233 8.99663 8.60872
8 2 8.52017 8.56549 6.18417
9 2 7.52886 5.78749 7.11071
1 1 6.58323 7.57282 8.67134
3 1 8.03421 7.81167 6.77836
2 1 7.60493 8.1871 8.11959
6 2 5.89839 6.86254 8.16987
5 2 6.28383 8.0266 9.64713
10 2 8.15602 6.20757 5.37599
ITEM: TIMESTEP
1300
ITEM: NUMBER OF ATOMS
10
ITEM: BOX BOUNDS pp pp pp
0.0000000000000000e+00 1.5000000000000000e+01
0.0000000000000000e+00 1.5000000000000000e+01
0.0000000000000000e+00 1.5000000000000000e+01
ITEM: ATOMS id type x y z
4 1 7.80538 6.4845 6.4022
7 2 8.48363 8.89559 8.56064
8 2 8.00541 8.66801 5.96945
9 2 7.6494 5.7892 7.24242
1 1 6.70074 7.662 8.74689
3 1 7.83409 7.83289 6.67927
2 1 7.76088 8.19038 8.11385
6 2 5.95203 7.03182 8.24673
5 2 6.55874 7.74529 9.81685
10 2 7.86827 6.07143 5.39967
ITEM: TIMESTEP
1400
ITEM: NUMBER OF ATOMS
10
ITEM: BOX BOUNDS pp pp pp
0.0000000000000000e+00 1.5000000000000000e+01
0.0000000000000000e+00 1.5000000000000000e+01
0.0000000000000000e+00 1.5000000000000000e+01
ITEM: ATOMS id type x y z
4 1 7.55052 6.50913 6.38347
7 2 8.23888 9.3206 8.17455
8 2 8.15245 8.444 5.90394
9 2 7.20102 5.84687 7.13065
1 1 6.93236 7.62867 8.89022
3 1 7.85333 7.73211 6.67819
2 1 7.74649 8.28334 8.03515
6 2 6.56013 6.75601 8.43101
5 2 6.81232 7.78937 9.9623
10 2 7.66305 6.14368 5.36435
ITEM: TIMESTEP
1500
ITEM: NUMBER OF ATOMS
10
ITEM: BOX BOUNDS pp pp pp
0.0000000000000000e+00 1.5000000000000000e+01
0.0000000000000000e+00 1.5000000000000000e+01
0.0000000000000000e+00 1.5000000000000000e+01
ITEM: ATOMS id type x y z
4 1 7.34451 6.52514 6.35715
7 2 7.99922 9.29317 8.07748
8 2 8.25126 8.41545 5.83195
9 2 6.78129 5.99609 7.16739
1 1 7.19267 7.59691 8.98193
3 1 7.85379 7.75564 6.60035
2 1 7.70049 8.311 7.96855
6 2 6.89519 6.52067 8.8949
5 2 7.13033 7.97803 10.0153
10 2 7.51798 5.8845 5.45407
ITEM: TIMESTEP
1600
ITEM: NUMBER OF ATOMS
10
ITEM: BOX BOUNDS pp pp pp
0.0000000000000000e+00 1.5000000000000000e+01
0.0000000000000000e+00 1.5000000000000000e+01
0.0000000000000000e+00 1.5000000000000000e+01
ITEM: ATOMS id type x y z
4 1 7.14136 6.55958 6.37614
7 2 7.60525 9.43861 8.04467
8 2 8.42346 8.19492 5.84226
9 2 6.44309 6.19331 7.10148
1 1 7.4418 7.5808 8.98555
3 1 7.86145 7.66509 6.64373
2 1 7.64139 8.31553 7.91108
6 2 7.51705 6.51593 9.0193
5 2 7.33929 8.10698 9.92576
10 2 7.27989 6.0443 5.45659
ITEM: TIMESTEP
1700
ITEM: NUMBER OF ATOMS
10
ITEM: BOX BOUNDS pp pp pp
0.0000000000000000e+00 1.5000000000000000e+01
0.0000000000000000e+00 1.5000000000000000e+01
0.0000000000000000e+00 1.5000000000000000e+01
ITEM: ATOMS id type x y z
4 1 7.04587 6.57052 6.43111
7 2 7.60734 9.45385 7.91465
8 2 8.42472 7.97634 5.83539
9 2 6.22624 6.16526 7.01551
1 1 7.6112 7.59233 9.00915
3 1 7.77599 7.65378 6.63474
2 1 7.64028 8.3543 7.8817
6 2 7.73577 6.50922 8.94202
5 2 7.58674 8.03835 10.0104
10 2 7.10312 6.05137 5.43078
ITEM: TIMESTEP
1800
ITEM: NUMBER OF ATOMS
10
ITEM: BOX BOUNDS pp pp pp
0.0000000000000000e+00 1.5000000000000000e+01
0.0000000000000000e+00 1.5000000000000000e+01
0.0000000000000000e+00 1.5000000000000000e+01
ITEM: ATOMS id type x y z
4 1 7.02261 6.4905 6.48175
7 2 8.03264 9.37299 7.88462
8 2 7.90288 8.22775 5.67156
9 2 6.50587 6.04634 7.38033
1 1 7.66788 7.63174 8.98059
3 1 7.58194 7.70849 6.581
2 1 7.83503 8.32288 7.87118
6 2 7.54286 6.52201 8.96624
5 2 7.66986 7.98287 10.0205
10 2 6.82514 6.14633 5.47867
ITEM: TIMESTEP
1900
ITEM: NUMBER OF ATOMS
10
ITEM: BOX BOUNDS pp pp pp
0.0000000000000000e+00 1.5000000000000000e+01
0.0000000000000000e+00 1.5000000000000000e+01
0.0000000000000000e+00 1.5000000000000000e+01
ITEM: ATOMS id type x y z
4 1 6.96691 6.48399 6.52135
7 2 8.53256 9.23694 7.79233
8 2 7.43039 8.42356 5.65736
9 2 6.84624 5.98444 7.42119
1 1 7.79818 7.61604 8.98149
3 1 7.34426 7.78703 6.56301
2 1 7.94622 8.27233 7.8272
6 2 7.25247 6.70909 9.03096
5 2 8.24613 8.05037 9.8617
10 2 6.48276 5.85923 5.76714
ITEM: TIMESTEP
2000
ITEM: NUMBER OF ATOMS
10
ITEM: BOX BOUNDS pp pp pp
0.0000000000000000e+00 1.5000000000000000e+01
0.0000000000000000e+00 1.5000000000000000e+01
0.0000000000000000e+00 1.5000000000000000e+01
ITEM: ATOMS id type x y z
4 1 6.87936 6.47425 6.59685
7 2 8.91524 8.95958 7.5569
8 2 6.7243 8.51639 6.02645
9 2 7.41128 5.84879 7.4026
1 1 7.93099 7.65426 8.91012
3 1 7.16098 7.7548 6.63957
2 1 8.11284 8.2623 7.69637
6 2 7.04739 7.01159 9.03413
5 2 8.47676 7.87158 9.84198
10 2 6.04401 6.13839 5.96952
ITEM: TIMESTEP
2100
ITEM: NUMBER OF ATOMS
10
ITEM: BOX BOUNDS pp pp pp
0.0000000000000000e+00 1.5000000000000000e+01
0.0000000000000000e+00 1.5000000000000000e+01
0.0000000000000000e+00 1.5000000000000000e+01
ITEM: ATOMS id type x y z
4 1 6.73328 6.4837 6.69934
7 2 8.8767 8.9053 7.24613
8 2 6.48306 8.45781 5.98496
9 2 7.19341 5.70424 7.28117
1 1 8.13419 7.65811 8.87494
3 1 7.0899 7.81193 6.67737
2 1 8.11447 8.224 7.67568
6 2 7.22766 7.10342 9.20039
5 2 8.92252 7.89521 9.61053
10 2 5.98956 6.08754 6.00184
ITEM: TIMESTEP
2200
ITEM: NUMBER OF ATOMS
10
ITEM: BOX BOUNDS pp pp pp
0.0000000000000000e+00 1.5000000000000000e+01
0.0000000000000000e+00 1.5000000000000000e+01
0.0000000000000000e+00 1.5000000000000000e+01
ITEM: ATOMS id type x y z
4 1 6.54756 6.52253 6.82033
7 2 8.69108 9.1092 7.4352
8 2 6.68953 8.41583 5.9378
9 2 6.94792 5.78617 7.48703
1 1 8.32902 7.62489 8.75408
3 1 7.07821 7.73153 6.69278
2 1 8.06357 8.2496 7.61731
6 2 7.7891 6.85517 9.20873
5 2 9.12516 8.00212 9.41886
10 2 5.77103 6.2802 6.09438
ITEM: TIMESTEP
2300
ITEM: NUMBER OF ATOMS
10
ITEM: BOX BOUNDS pp pp pp
0.0000000000000000e+00 1.5000000000000000e+01
0.0000000000000000e+00 1.5000000000000000e+01
0.0000000000000000e+00 1.5000000000000000e+01
ITEM: ATOMS id type x y z
4 1 6.46841 6.56957 6.91507
7 2 8.5706 9.21046 7.33783
8 2 6.68362 8.39693 5.93457
9 2 6.81177 5.76334 7.59903
1 1 8.44668 7.58719 8.68249
3 1 7.03858 7.75028 6.72922
2 1 8.08809 8.2479 7.56918
6 2 7.92329 6.66636 9.11233
5 2 9.30425 8.0277 9.1732
10 2 5.57993 6.22557 6.35632
ITEM: TIMESTEP
2400
ITEM: NUMBER OF ATOMS
10
ITEM: BOX BOUNDS pp pp pp
0.0000000000000000e+00 1.5000000000000000e+01
0.0000000000000000e+00 1.5000000000000000e+01
0.0000000000000000e+00 1.5000000000000000e+01
ITEM: ATOMS id type x y z
4 1 6.44265 6.54726 7.02225
7 2 8.64717 9.06645 7.05929
8 2 6.50996 8.48315 6.03476
9 2 6.94252 5.81318 7.62588
1 1 8.50891 7.59309 8.60556
3 1 6.93092 7.80561 6.80267
2 1 8.11888 8.21568 7.49006
6 2 7.93258 6.87608 9.1131
5 2 9.5334 7.69654 9.04133
10 2 5.55021 6.31478 6.49136
ITEM: TIMESTEP
2500
ITEM: NUMBER OF ATOMS
10
ITEM: BOX BOUNDS pp pp pp
0.0000000000000000e+00 1.5000000000000000e+01
0.0000000000000000e+00 1.5000000000000000e+01
0.0000000000000000e+00 1.5000000000000000e+01
ITEM: ATOMS id type x y z
4 1 6.39065 6.60554 7.09904
7 2 8.72894 8.82563 6.70554
8 2 6.21185 8.64886 6.61013
9 2 7.11607 5.81264 7.33173
1 1 8.59751 7.63225 8.51356
3 1 6.86002 7.82208 6.93984
2 1 8.20847 8.10232 7.32491
6 2 7.84221 6.96516 9.04024
5 2 9.59103 7.70348 8.93545
10 2 5.29406 6.29105 7.00183
ITEM: TIMESTEP
2600
ITEM: NUMBER OF ATOMS
10
ITEM: BOX BOUNDS pp pp pp
0.0000000000000000e+00 1.5000000000000000e+01
0.0000000000000000e+00 1.5000000000000000e+01
0.0000000000000000e+00 1.5000000000000000e+01
ITEM: ATOMS id type x y z
4 1 6.28188 6.65562 7.27254
7 2 8.77603 8.70064 6.56672
8 2 6.26042 8.70379 6.57208
9 2 7.01181 5.91612 7.68825
1 1 8.76758 7.56635 8.34167
3 1 6.73539 7.87687 7.03453
2 1 8.15588 8.09725 7.2643
6 2 8.22993 6.90736 8.99906
5 2 9.86073 7.63849 8.52376
10 2 5.34069 6.17712 7.06093
ITEM: TIMESTEP
2700
ITEM: NUMBER OF ATOMS
10
ITEM: BOX BOUNDS pp pp pp
0.0000000000000000e+00 1.5000000000000000e+01
0.0000000000000000e+00 1.5000000000000000e+01
0.0000000000000000e+00 1.5000000000000000e+01
ITEM: ATOMS id type x y z
4 1 6.21168 6.70715 7.55607
7 2 8.61751 8.93871 6.59577
8 2 6.08094 8.60956 6.55518
9 2 6.83335 5.98207 7.97179
1 1 8.85975 7.45209 8.10725
3 1 6.75605 7.8301 7.05319
2 1 8.19746 8.142 7.19104
6 2 8.43342 6.61566 8.63751
5 2 9.86565 7.77559 8.35988
10 2 5.1435 6.51043 7.32354
ITEM: TIMESTEP
2800
ITEM: NUMBER OF ATOMS
10
ITEM: BOX BOUNDS pp pp pp
0.0000000000000000e+00 1.5000000000000000e+01
0.0000000000000000e+00 1.5000000000000000e+01
0.0000000000000000e+00 1.5000000000000000e+01
ITEM: ATOMS id type x y z
4 1 6.19977 6.7727 7.70027
7 2 8.56371 8.92932 6.5023
8 2 5.99904 8.48442 6.53556
9 2 6.75124 5.9045 8.20651
1 1 8.96206 7.38749 7.93622
3 1 6.6902 7.88481 7.09
2 1 8.15619 8.15619 7.17777
6 2 8.52546 6.61887 8.61963
5 2 10.0743 7.52926 8.01705
10 2 5.16083 6.54642 7.58242
ITEM: TIMESTEP
2900
ITEM: NUMBER OF ATOMS
10
ITEM: BOX BOUNDS pp pp pp
0.0000000000000000e+00 1.5000000000000000e+01
0.0000000000000000e+00 1.5000000000000000e+01
0.0000000000000000e+00 1.5000000000000000e+01
ITEM: ATOMS id type x y z
4 1 6.21048 6.81599 7.78619
7 2 8.60089 8.77184 6.41237
8 2 5.98552 8.57105 6.69539
9 2 6.87334 6.03008 7.97399
1 1 8.96299 7.36632 7.83621
3 1 6.69087 7.88324 7.18245
2 1 8.11279 8.08938 7.09367
6 2 8.65716 6.72436 8.64675
5 2 10.0113 7.47156 7.7302
10 2 5.13294 6.72155 8.03918
ITEM: TIMESTEP
3000
ITEM: NUMBER OF ATOMS
10
ITEM: BOX BOUNDS pp pp pp
0.0000000000000000e+00 1.5000000000000000e+01
0.0000000000000000e+00 1.5000000000000000e+01
0.0000000000000000e+00 1.5000000000000000e+01
ITEM: ATOMS id type x y z
4 1 6.20021 6.82109 7.86577
7 2 8.42214 8.46164 6.01464
8 2 6.03967 8.85682 7.07143
9 2 6.6852 5.81029 7.79526
1 1 8.97601 7.37748 7.75734
3 1 6.71345 7.97591 7.32139
2 1 8.09423 7.98841 6.95727
6 2 8.74622 7.04781 8.75887
5 2 10.0682 7.35222 7.43596
10 2 5.25926 6.71388 8.40227
ITEM: TIMESTEP
3100
ITEM: NUMBER OF ATOMS
10
ITEM: BOX BOUNDS pp pp pp
0.0000000000000000e+00 1.5000000000000000e+01
0.0000000000000000e+00 1.5000000000000000e+01
0.0000000000000000e+00 1.5000000000000000e+01
ITEM: ATOMS id type x y z
4 1 6.27449 6.88843 8.07048
7 2 8.05132 8.35077 5.87297
8 2 6.13027 8.8222 7.23691
9 2 6.80712 5.96833 8.13773
1 1 9.00047 7.31273 7.526
3 1 6.70278 7.9859 7.45938
2 1 8.03362 7.95422 6.86932
6 2 8.85378 6.94787 8.61846
10 2 5.25102 7.05364 8.36455
5 2 9.96231 7.22949 7.10734
ITEM: TIMESTEP
3200
ITEM: NUMBER OF ATOMS
10
ITEM: BOX BOUNDS pp pp pp
0.0000000000000000e+00 1.5000000000000000e+01
0.0000000000000000e+00 1.5000000000000000e+01
0.0000000000000000e+00 1.5000000000000000e+01
ITEM: ATOMS id type x y z
4 1 6.32516 7.03541 8.34849
7 2 8.03244 8.66303 5.92383
8 2 5.97044 8.7706 7.1764
9 2 6.84439 6.14752 8.72474
1 1 8.98233 7.20107 7.2829
3 1 6.72255 7.93649 7.45747
2 1 7.98263 7.9482 6.78161
6 2 8.78892 6.56351 8.04626
10 2 5.33937 7.13817 8.84607
5 2 10.0725 7.2101 6.9489
ITEM: TIMESTEP
3300
ITEM: NUMBER OF ATOMS
10
ITEM: BOX BOUNDS pp pp pp
0.0000000000000000e+00 1.5000000000000000e+01
0.0000000000000000e+00 1.5000000000000000e+01
0.0000000000000000e+00 1.5000000000000000e+01
ITEM: ATOMS id type x y z
4 1 6.42576 7.14732 8.49876
7 2 8.12933 8.47658 5.90183
8 2 5.93946 8.68728 7.13155
9 2 7.26111 6.49197 8.6593
1 1 8.91881 7.11556 7.11899
3 1 6.65552 8.01257 7.51577
2 1 7.93368 7.91244 6.79956
6 2 8.88856 6.40593 8.01834
10 2 5.51566 6.98448 9.07778
5 2 9.78727 7.04646 6.50164
ITEM: TIMESTEP
3400
ITEM: NUMBER OF ATOMS
10
ITEM: BOX BOUNDS pp pp pp
0.0000000000000000e+00 1.5000000000000000e+01
0.0000000000000000e+00 1.5000000000000000e+01
0.0000000000000000e+00 1.5000000000000000e+01
ITEM: ATOMS id type x y z
4 1 6.56015 7.1972 8.6357
7 2 7.95235 8.55863 5.77375
8 2 5.89468 8.80858 7.40045
9 2 7.24158 6.31927 8.82047
1 1 8.86144 7.05145 7.03684
3 1 6.6562 8.0052 7.54552
2 1 7.87569 7.89371 6.64139
6 2 8.77769 6.47644 7.92794
10 2 5.74213 7.26791 9.34594
5 2 9.79469 6.90375 6.46374
ITEM: TIMESTEP
3500
ITEM: NUMBER OF ATOMS
10
ITEM: BOX BOUNDS pp pp pp
0.0000000000000000e+00 1.5000000000000000e+01
0.0000000000000000e+00 1.5000000000000000e+01
0.0000000000000000e+00 1.5000000000000000e+01
ITEM: ATOMS id type x y z
4 1 6.69086 7.22861 8.70476
7 2 7.61728 8.28977 5.59304
8 2 6.0088 8.90154 7.64161
9 2 7.1927 6.31835 8.78792
1 1 8.80015 7.0158 6.92301
3 1 6.75034 8.05984 7.66255
2 1 7.76368 7.83156 6.59621
6 2 8.91013 6.75409 7.98489
10 2 5.85005 7.47333 9.36725
5 2 9.51484 6.66812 6.19511
ITEM: TIMESTEP
3600
ITEM: NUMBER OF ATOMS
10
ITEM: BOX BOUNDS pp pp pp
0.0000000000000000e+00 1.5000000000000000e+01
0.0000000000000000e+00 1.5000000000000000e+01
0.0000000000000000e+00 1.5000000000000000e+01
ITEM: ATOMS id type x y z
4 1 6.74414 7.33608 8.80745
7 2 7.21156 7.70904 5.60642
8 2 6.53617 9.1552 7.80323
9 2 6.99113 6.20329 8.72207
1 1 8.72809 7.02415 6.74852
3 1 6.87814 8.16046 7.75042
2 1 7.56574 7.66198 6.60498
6 2 9.32952 6.9266 7.68849
10 2 6.25884 7.49183 9.72793
5 2 9.30014 6.638 5.8726
ITEM: TIMESTEP
3700
ITEM: NUMBER OF ATOMS
10
ITEM: BOX BOUNDS pp pp pp
0.0000000000000000e+00 1.5000000000000000e+01
0.0000000000000000e+00 1.5000000000000000e+01
0.0000000000000000e+00 1.5000000000000000e+01
ITEM: ATOMS id type x y z
4 1 7.03545 7.44979 8.92383
7 2 7.0543 7.8485 5.59512
8 2 6.41727 9.20267 7.71379
9 2 7.3645 6.45669 8.81995
1 1 8.54028 6.89112 6.61497
3 1 6.87065 8.13251 7.79127
2 1 7.45817 7.62057 6.61568
6 2 9.13619 6.62635 7.45635
10 2 6.76735 7.83092 9.99733
5 2 8.95709 6.69086 5.63195
ITEM: TIMESTEP
3800
ITEM: NUMBER OF ATOMS
10
ITEM: BOX BOUNDS pp pp pp
0.0000000000000000e+00 1.5000000000000000e+01
0.0000000000000000e+00 1.5000000000000000e+01
0.0000000000000000e+00 1.5000000000000000e+01
ITEM: ATOMS id type x y z
4 1 7.30913 7.57139 8.99109
7 2 6.86241 8.1598 5.74285
8 2 6.05011 8.81002 7.81387
9 2 8.11598 6.82195 9.07307
1 1 8.36068 6.73426 6.50609
3 1 6.87382 8.15157 7.85824
2 1 7.40647 7.70561 6.54795
6 2 8.87966 6.35934 7.39049
10 2 6.88185 7.81977 9.90105
5 2 8.63343 6.27207 5.54741
ITEM: TIMESTEP
3900
ITEM: NUMBER OF ATOMS
10
ITEM: BOX BOUNDS pp pp pp
0.0000000000000000e+00 1.5000000000000000e+01
0.0000000000000000e+00 1.5000000000000000e+01
0.0000000000000000e+00 1.5000000000000000e+01
ITEM: ATOMS id type x y z
4 1 7.55326 7.69933 8.9912
7 2 7.01465 8.35908 5.74052
8 2 5.9518 8.66377 7.95416
9 2 8.48041 7.08379 8.94489
1 1 8.18014 6.68196 6.43081
3 1 6.87225 8.03655 7.91226
2 1 7.28533 7.66683 6.5577
6 2 8.37519 6.11948 7.37548
10 2 7.2197 8.135 9.98121
5 2 8.73638 6.35092 5.54094
ITEM: TIMESTEP
4000
ITEM: NUMBER OF ATOMS
10
ITEM: BOX BOUNDS pp pp pp
0.0000000000000000e+00 1.5000000000000000e+01
0.0000000000000000e+00 1.5000000000000000e+01
0.0000000000000000e+00 1.5000000000000000e+01
ITEM: ATOMS id type x y z
4 1 7.71866 7.83192 8.96915
7 2 7.09823 8.35208 5.72558
8 2 5.85074 8.3635 8.15561
9 2 8.73139 7.54722 8.72174
1 1 7.99889 6.59361 6.42724
3 1 6.86029 8.01139 7.94652
2 1 7.31381 7.69953 6.58164
6 2 8.17316 5.97672 7.23417
5 2 8.37169 6.26992 5.44243
10 2 7.5489 7.89185 10.0622
ITEM: TIMESTEP
4100
ITEM: NUMBER OF ATOMS
10
ITEM: BOX BOUNDS pp pp pp
0.0000000000000000e+00 1.5000000000000000e+01
0.0000000000000000e+00 1.5000000000000000e+01
0.0000000000000000e+00 1.5000000000000000e+01
ITEM: ATOMS id type x y z
4 1 7.86128 7.8342 8.91734
7 2 6.7708 8.0866 5.75647
8 2 5.98608 8.66742 8.25278
9 2 8.81679 7.41675 8.57362
1 1 7.94064 6.55655 6.39317
3 1 6.89682 8.10598 8.01199
2 1 7.19761 7.6577 6.64875
6 2 8.44277 5.85762 7.18535
5 2 8.03387 6.25434 5.35928
10 2 7.69556 8.01071 9.93401
ITEM: TIMESTEP
4200
ITEM: NUMBER OF ATOMS
10
ITEM: BOX BOUNDS pp pp pp
0.0000000000000000e+00 1.5000000000000000e+01
0.0000000000000000e+00 1.5000000000000000e+01
0.0000000000000000e+00 1.5000000000000000e+01
ITEM: ATOMS id type x y z
4 1 7.99485 7.813 8.86686
7 2 6.17668 7.89561 6.03914
8 2 6.407 9.02495 8.3039
9 2 8.77194 7.04077 8.7772
1 1 7.86909 6.5886 6.36314
3 1 7.05986 8.16329 8.00137
2 1 6.95228 7.51131 6.70832
6 2 8.6197 6.17412 7.00491
5 2 7.85095 6.20149 5.29389
10 2 8.04126 8.42582 9.83179
ITEM: TIMESTEP
4300
ITEM: NUMBER OF ATOMS
10
ITEM: BOX BOUNDS pp pp pp
0.0000000000000000e+00 1.5000000000000000e+01
0.0000000000000000e+00 1.5000000000000000e+01
0.0000000000000000e+00 1.5000000000000000e+01
ITEM: ATOMS id type x y z
4 1 8.15972 7.80846 8.85537
7 2 5.73297 7.39577 6.56519
8 2 6.753 9.16653 8.10536
9 2 8.71374 6.87937 8.83282
1 1 7.69238 6.63457 6.29169
3 1 7.24255 8.24451 7.9284
2 1 6.79305 7.42426 6.84344
6 2 8.72341 6.78274 6.54801
5 2 7.51943 5.87585 5.62512
10 2 8.35529 8.44897 9.69904
ITEM: TIMESTEP
4400
ITEM: NUMBER OF ATOMS
10
ITEM: BOX BOUNDS pp pp pp
0.0000000000000000e+00 1.5000000000000000e+01
0.0000000000000000e+00 1.5000000000000000e+01
0.0000000000000000e+00 1.5000000000000000e+01
ITEM: ATOMS id type x y z
4 1 8.29648 7.85845 8.72873
7 2 5.62481 7.27625 6.88248
8 2 6.84244 9.29188 8.05567
9 2 8.63537 6.79685 8.63522
1 1 7.57949 6.63105 6.29548
3 1 7.28957 8.24993 7.98527
2 1 6.70693 7.37133 6.99006
6 2 8.69618 6.84775 6.38692
5 2 7.20668 5.80225 5.6052
10 2 8.88365 8.54042 9.32629
ITEM: TIMESTEP
4500
ITEM: NUMBER OF ATOMS
10
ITEM: BOX BOUNDS pp pp pp
0.0000000000000000e+00 1.5000000000000000e+01
0.0000000000000000e+00 1.5000000000000000e+01
0.0000000000000000e+00 1.5000000000000000e+01
ITEM: ATOMS id type x y z
4 1 8.47492 7.93399 8.53937
7 2 5.66212 7.53137 6.81219
8 2 6.66611 9.11403 8.44945
9 2 8.9661 7.08271 8.16829
1 1 7.45181 6.51164 6.33558
3 1 7.23837 8.28006 8.12968
2 1 6.71215 7.39379 7.05167
6 2 8.53698 6.2677 6.39362
5 2 6.9261 5.90274 5.54614
10 2 9.1031 8.60451 9.18148
ITEM: TIMESTEP
4600
ITEM: NUMBER OF ATOMS
10
ITEM: BOX BOUNDS pp pp pp
0.0000000000000000e+00 1.5000000000000000e+01
0.0000000000000000e+00 1.5000000000000000e+01
0.0000000000000000e+00 1.5000000000000000e+01
ITEM: ATOMS id type x y z
4 1 8.63673 8.02875 8.37949
7 2 5.57077 7.64839 6.86233
8 2 6.77458 8.84164 8.79683
9 2 9.35112 7.46395 7.69955
1 1 7.26269 6.46767 6.42464
3 1 7.33698 8.1623 8.10566
2 1 6.65067 7.44084 7.07319
6 2 8.28616 6.23318 6.69385
5 2 6.80831 5.90265 5.71022
10 2 9.01064 8.53285 9.22837
ITEM: TIMESTEP
4700
ITEM: NUMBER OF ATOMS
10
ITEM: BOX BOUNDS pp pp pp
0.0000000000000000e+00 1.5000000000000000e+01
0.0000000000000000e+00 1.5000000000000000e+01
0.0000000000000000e+00 1.5000000000000000e+01
ITEM: ATOMS id type x y z
4 1 8.72473 8.13223 8.13133
7 2 5.71437 7.95678 6.7829
8 2 6.90324 8.52256 9.02507
9 2 9.38686 7.88026 7.33866
1 1 7.13527 6.41998 6.55497
3 1 7.39691 8.02705 8.20991
2 1 6.58256 7.4818 7.15534
6 2 7.98092 5.85346 6.95481
5 2 6.78115 5.97325 5.53782
10 2 9.32059 8.66741 8.94043
ITEM: TIMESTEP
4800
ITEM: NUMBER OF ATOMS
10
ITEM: BOX BOUNDS pp pp pp
0.0000000000000000e+00 1.5000000000000000e+01
0.0000000000000000e+00 1.5000000000000000e+01
0.0000000000000000e+00 1.5000000000000000e+01
ITEM: ATOMS id type x y z
4 1 8.79068 8.1404 7.94715
7 2 5.5697 7.87331 7.14088
8 2 7.05274 8.49629 9.17644
9 2 9.16283 7.94798 6.92422
1 1 7.04472 6.40631 6.58104
3 1 7.46818 8.07402 8.22724
2 1 6.61044 7.46038 7.27791
6 2 8.01504 5.9628 6.87549
5 2 6.42205 5.97303 5.81563
10 2 9.41752 8.47996 8.75628
ITEM: TIMESTEP
4900
ITEM: NUMBER OF ATOMS
10
ITEM: BOX BOUNDS pp pp pp
0.0000000000000000e+00 1.5000000000000000e+01
0.0000000000000000e+00 1.5000000000000000e+01
0.0000000000000000e+00 1.5000000000000000e+01
ITEM: ATOMS id type x y z
4 1 8.82877 8.10089 7.82987
7 2 5.60496 7.47059 7.88041
8 2 7.24858 8.91482 9.03086
9 2 9.07094 7.4993 6.92081
1 1 6.91872 6.45116 6.52183
3 1 7.55929 8.21779 8.23458
2 1 6.61456 7.34137 7.51116
6 2 7.83947 6.20204 6.04766
5 2 6.13447 5.88005 6.12397
10 2 9.69758 8.58593 8.30063
ITEM: TIMESTEP
5000
ITEM: NUMBER OF ATOMS
10
ITEM: BOX BOUNDS pp pp pp
0.0000000000000000e+00 1.5000000000000000e+01
0.0000000000000000e+00 1.5000000000000000e+01
0.0000000000000000e+00 1.5000000000000000e+01
ITEM: ATOMS id type x y z
4 1 8.91123 8.04256 7.65719
7 2 5.66187 7.05672 8.27427
8 2 7.38523 9.04897 8.67519
9 2 9.2447 7.15834 7.1307
1 1 6.7417 6.61045 6.6018
3 1 7.67273 8.17295 8.1232
2 1 6.60986 7.23721 7.76363
6 2 7.57182 6.91005 5.93055
5 2 6.0009 5.78172 6.2177
10 2 9.64631 8.88515 7.78571
ITEM: TIMESTEP
5100
ITEM: NUMBER OF ATOMS
10
ITEM: BOX BOUNDS pp pp pp
0.0000000000000000e+00 1.5000000000000000e+01
0.0000000000000000e+00 1.5000000000000000e+01
0.0000000000000000e+00 1.5000000000000000e+01
ITEM: ATOMS id type x y z
4 1 8.9348 8.02047 7.54654
7 2 6.04506 6.82654 8.70649
8 2 7.58598 9.16004 8.64746
9 2 9.21544 7.08468 7.01468
1 1 6.62056 6.65632 6.6402
3 1 7.69057 8.20978 8.04498
2 1 6.63622 7.21002 7.86375
6 2 7.08266 7.15605 5.78074
5 2 6.17471 5.73215 6.4791
10 2 9.72723 8.68104 7.68766
ITEM: TIMESTEP
5200
ITEM: NUMBER OF ATOMS
10
ITEM: BOX BOUNDS pp pp pp
0.0000000000000000e+00 1.5000000000000000e+01
0.0000000000000000e+00 1.5000000000000000e+01
0.0000000000000000e+00 1.5000000000000000e+01
ITEM: ATOMS id type x y z
4 1 8.89055 8.06108 7.32578
7 2 5.94532 7.12484 8.70487
8 2 7.69918 8.93672 8.82512
9 2 9.12376 7.27904 6.62388
1 1 6.53709 6.62104 6.72982
3 1 7.83682 8.12992 8.15113
2 1 6.71126 7.23242 7.92566
6 2 7.17235 6.77748 5.88002
5 2 5.69325 5.92866 6.52699
10 2 9.6358 8.90646 7.53376
ITEM: TIMESTEP
5300
ITEM: NUMBER OF ATOMS
10
ITEM: BOX BOUNDS pp pp pp
0.0000000000000000e+00 1.5000000000000000e+01
0.0000000000000000e+00 1.5000000000000000e+01
0.0000000000000000e+00 1.5000000000000000e+01
ITEM: ATOMS id type x y z
4 1 8.82183 8.14657 7.19173
7 2 6.08166 7.28607 8.80827
8 2 8.05039 8.63431 9.10911
9 2 8.65361 7.68503 6.20736
1 1 6.48349 6.59126 6.84165
3 1 7.92833 8.06929 8.15257
2 1 6.74641 7.27594 7.92972
6 2 7.16008 6.47143 5.91761
5 2 5.48973 6.05738 6.86948
10 2 9.80814 8.5874 7.28315
ITEM: TIMESTEP
5400
ITEM: NUMBER OF ATOMS
10
ITEM: BOX BOUNDS pp pp pp
0.0000000000000000e+00 1.5000000000000000e+01
0.0000000000000000e+00 1.5000000000000000e+01
0.0000000000000000e+00 1.5000000000000000e+01
ITEM: ATOMS id type x y z
4 1 8.76188 8.23083 6.94413
7 2 6.04787 7.5518 8.82467
8 2 8.44924 8.01663 9.11451
9 2 8.22424 8.28228 5.99914
1 1 6.42299 6.57904 7.03069
3 1 8.06487 7.91533 8.08438
2 1 6.75585 7.3596 8.0725
6 2 7.13441 6.2236 6.34822
5 2 5.44861 6.19577 6.82077
10 2 9.78613 8.44112 6.99149
ITEM: TIMESTEP
5500
ITEM: NUMBER OF ATOMS
10
ITEM: BOX BOUNDS pp pp pp
0.0000000000000000e+00 1.5000000000000000e+01
0.0000000000000000e+00 1.5000000000000000e+01
0.0000000000000000e+00 1.5000000000000000e+01
ITEM: ATOMS id type x y z
4 1 8.5812 8.21096 6.80459
7 2 6.28448 7.89504 9.04312
8 2 8.98556 7.73976 8.7904
9 2 7.88868 8.35594 5.97168
1 1 6.34011 6.61783 7.19298
3 1 8.24857 7.77032 7.99707
2 1 6.83771 7.38209 8.15567
6 2 7.04827 6.16569 6.49824
5 2 5.22658 6.4705 7.05936
10 2 9.64489 8.70591 6.62432
ITEM: TIMESTEP
5600
ITEM: NUMBER OF ATOMS
10
ITEM: BOX BOUNDS pp pp pp
0.0000000000000000e+00 1.5000000000000000e+01
0.0000000000000000e+00 1.5000000000000000e+01
0.0000000000000000e+00 1.5000000000000000e+01
ITEM: ATOMS id type x y z
4 1 8.59699 8.13958 6.63434
7 2 6.6488 7.28603 9.31552
8 2 9.11864 7.90069 8.62048
9 2 7.82587 8.09341 5.80587
1 1 6.20008 6.74528 7.32954
3 1 8.29063 7.84704 7.91041
2 1 6.94263 7.35028 8.29724
6 2 6.54063 6.77218 6.2623
5 2 5.25316 6.18796 7.43385
10 2 9.55489 8.48667 6.42186
ITEM: TIMESTEP
5700
ITEM: NUMBER OF ATOMS
10
ITEM: BOX BOUNDS pp pp pp
0.0000000000000000e+00 1.5000000000000000e+01
0.0000000000000000e+00 1.5000000000000000e+01
0.0000000000000000e+00 1.5000000000000000e+01
ITEM: ATOMS id type x y z
4 1 8.53694 8.08309 6.56729
7 2 6.78418 7.08086 9.33546
8 2 9.13339 8.08119 8.62739
9 2 7.78625 7.74616 5.90387
1 1 6.14346 6.87554 7.416
3 1 8.36296 7.83042 7.86043
2 1 7.07291 7.23162 8.2751
6 2 6.2099 6.95786 6.3642
5 2 5.20476 6.51151 7.83667
10 2 9.3079 8.71842 6.10848
ITEM: TIMESTEP
5800
ITEM: NUMBER OF ATOMS
10
ITEM: BOX BOUNDS pp pp pp
0.0000000000000000e+00 1.5000000000000000e+01
0.0000000000000000e+00 1.5000000000000000e+01
0.0000000000000000e+00 1.5000000000000000e+01
ITEM: ATOMS id type x y z
4 1 8.47971 8.02127 6.46153