10
 Atoms. Timestep: 0
C 6.04472 7.44187 6.9679
C 6.84003 7.87621 7.98563
C 8.22315 7.51463 8.12039
C 8.91717 7.23714 7.04267
H 5.1082 7.87598 6.90876
H 6.31777 6.79054 6.12667
H 6.33466 8.49794 8.75745
H 8.76402 7.36969 9.09762
H 8.53644 7.29846 6.0362
H 9.91244 6.96831 7.26276
10
 Atoms. Timestep: 20
C 6.08541 7.43623 7.01364
C 6.84199 7.90264 7.97624
C 8.23093 7.49076 8.15807
C 8.89079 7.26688 7.00869
H 5.03156 7.85792 6.90734
H 6.26828 6.62115 6.27807
H 6.42582 8.67733 8.64958
H 8.69131 7.30674 9.09853
H 8.44481 7.35902 6.0049
H 9.9675 6.81879 7.01071
10
 Atoms. Timestep: 40
C 6.08913 7.42509 7.02732
C 6.85278 7.951 8.01836
C 8.23614 7.45435 8.12273
C 8.88384 7.24132 6.97795
H 5.00429 7.79609 6.89566
H 6.42201 6.52463 6.54988
H 6.52427 8.81251 8.57133
H 8.58799 7.33724 9.15061
H 8.36284 7.53763 6.08521
H 9.85137 6.78139 6.75825
10
 Atoms. Timestep: 60
C 6.06279 7.41334 7.10897
C 6.86661 8.00064 7.99789
C 8.2171 7.44224 8.10326
C 8.87 7.20936 6.91882
H 5.12423 7.69785 6.7985
H 6.47644 6.50218 6.71342
H 6.59731 8.88669 8.59743
H 8.67866 7.28249 9.13542
H 8.33089 7.69037 6.10014
H 9.81747 6.76696 6.77048
10
 Atoms. Timestep: 80
C 6.02955 7.38369 7.18639
C 6.90221 8.05539 7.99721
C 8.24207 7.44464 8.07461
C 8.8247 7.22314 6.91307
H 5.07692 7.70544 6.75993
H 6.39838 6.4004 6.70399
H 6.62207 8.92136 8.63005
H 8.74703 7.17247 8.96823
H 8.4672 7.64562 5.92737
H 9.82122 6.73358 6.87169
10
 Atoms. Timestep: 100
C 6.05043 7.37818 7.22671
C 6.88713 8.03311 8.00131
C 8.23986 7.48525 8.04168
C 8.84889 7.23291 6.86606
H 5.00018 7.81174 7.00221
H 6.26992 6.4304 6.77259
H 6.63083 8.92588 8.54442
H 8.73142 7.10706 8.9411
H 8.52548 7.49232 5.87768
H 9.80827 6.67592 6.93646
10
 Atoms. Timestep: 120
C 6.03232 7.39178 7.21313
C 6.91777 8.00896 8.02893
C 8.25153 7.51305 7.98638
C 8.85914 7.2032 6.85721
H 5.03637 7.79213 7.3218
H 6.21946 6.46499 6.78109
H 6.61466 8.97033 8.47993
H 8.65962 7.19275 8.99847
H 8.43303 7.41904 5.91009
H 9.79633 6.67883 6.88366
10
 Atoms. Timestep: 140
C 6.028 7.42361 7.25233
C 6.92814 8.02955 7.98997
C 8.28822 7.51414 8.02452
C 8.81867 7.1494 6.84629
H 4.99482 7.67944 7.34542
H 6.19795 6.43567 6.67653
H 6.66341 8.92207 8.57421
H 8.77368 7.36926 8.97094
H 8.28817 7.40401 5.87364
H 9.82771 6.70935 6.76958
10
 Atoms. Timestep: 160
C 5.99487 7.4059 7.28269
C 6.95174 8.06621 7.98581
C 8.33106 7.51742 8.02833
C 8.77118 7.10897 6.83998
H 4.8992 7.68577 7.20011
H 6.28764 6.53079 6.64426
H 6.70118 8.82522 8.71484
H 8.96019 7.538 8.91227
H 8.19992 7.31029 5.93538
H 9.78282 6.7389 6.6613
10
 Atoms. Timestep: 180
C 6.02346 7.412 7.28846
C 6.93888 8.02532 8.05436
C 8.32072 7.56325 7.98023
C 8.75373 7.07757 6.80515
H 5.01571 7.78588 7.16071
H 6.32688 6.62618 6.71844
H 6.67599 8.8176 8.77287
H 9.04291 7.68859 8.85019
H 8.09405 7.14394 5.98394
H 9.74766 6.68892 6.63364
10
 Atoms. Timestep: 200
C 6.02827 7.45953 7.29825
C 6.92945 7.97114 8.1512
C 8.33143 7.619 7.9236
C 8.76597 7.06093 6.77713
H 5.03005 7.87254 7.21596
H 6.30085 6.5302 6.68046
H 6.6458 8.83833 8.76769
H 8.99079 7.77749 8.75826
H 8.04902 6.9186 5.91504
H 9.77673 6.61932 6.65047
10
 Atoms. Timestep: 220
C 6.0055 7.4807 7.32582
C 6.93583 7.9603 8.14687
C 8.3511 7.64244 7.89712
C 8.75513 7.0363 6.76972
H 4.98152 7.8523 7.30874
H 6.17243 6.58777 6.64461
H 6.69999 8.77294 8.82268
H 9.06769 7.84252 8.67441
H 8.14311 6.76192 5.8972
H 9.77387 6.68413 6.70422
10
 Atoms. Timestep: 240
C 5.98247 7.46199 7.34138
C 6.97789 8.00007 8.08367
C 8.34293 7.63022 7.89013
C 8.72849 6.99579 6.78366
H 4.94625 7.7951 7.48281
H 6.13604 6.74971 6.62341
H 6.75506 8.67345 8.92108
H 9.16317 7.92806 8.60512
H 8.13639 6.74171 5.94903
H 9.79641 6.80349 6.71447
10
 Atoms. Timestep: 260
C 6.0032 7.47113 7.36848
C 6.976 8.03277 8.06393
C 8.35919 7.6304 7.8742
C 8.71912 6.9592 6.79709
H 4.96055 7.70887 7.65177
H 6.16116 6.79432 6.5028
H 6.73866 8.63947 8.94902
H 9.08513 7.99449 8.59545
H 8.02142 6.71571 5.9778
H 9.81195 6.80613 6.58999
10
 Atoms. Timestep: 280
C 6.00447 7.48769 7.37935
C 6.97946 8.02065 8.10654
C 8.3773 7.68176 7.85711
C 8.72818 6.94623 6.77386
H 4.96461 7.604 7.67458
H 6.1532 6.83061 6.44861
H 6.71423 8.67922 8.92525
H 9.07039 7.99917 8.61035
H 7.94851 6.62662 6.05389
H 9.7366 6.66241 6.47517
10
 Atoms. Timestep: 300
C 5.98823 7.48263 7.37348
C 6.9888 7.98837 8.13925
C 8.4064 7.72317 7.81778
C 8.69415 6.96125 6.76073
H 4.95769 7.60968 7.60739
H 6.17083 6.87758 6.53593
H 6.75816 8.67467 8.95765
H 9.19413 8.00516 8.55871
H 7.92765 6.5452 6.14543
H 9.65006 6.57522 6.53649
10
 Atoms. Timestep: 320
C 5.99112 7.48582 7.40416
C 6.99374 7.97696 8.1356
C 8.4034 7.73255 7.80006
C 8.67116 6.95012 6.75126
H 4.91655 7.72956 7.59044
H 6.19112 6.85079 6.56455
H 6.80272 8.58291 9.03216
H 9.24891 8.0956 8.39923
H 7.87834 6.51023 6.13849
H 9.72985 6.57819 6.61772
10
 Atoms. Timestep: 340
C 6.00089 7.50292 7.43731
C 7.00821 7.99699 8.15012
C 8.37875 7.70902 7.76801
C 8.68106 6.90592 6.76507
H 4.9523 7.81451 7.65532
H 6.11548 6.80052 6.53939
H 6.79701 8.53261 9.07535
H 9.14451 8.22715 8.30512
H 7.9573 6.4753 6.06592
H 9.74399 6.6808 6.52486
10
 Atoms. Timestep: 360
C 5.99397 7.52189 7.44645
C 7.00846 7.9925 8.16406
C 8.3596 7.70694 7.76113
C 8.69785 6.85737 6.74666
H 5.02372 7.76961 7.75227
H 6.06451 6.88361 6.59045
H 6.83596 8.61222 9.04244
H 9.13511 8.29746 8.30238
H 8.00725 6.3775 6.07347
H 9.69818 6.80742 6.41822
10
 Atoms. Timestep: 380
C 5.98779 7.52135 7.44991
C 7.03151 7.97968 8.17166
C 8.38656 7.70092 7.74252
C 8.6497 6.88921 6.74933
H 4.95517 7.69307 7.81695
H 6.10943 6.95489 6.55836
H 6.88157 8.70027 8.98468
H 9.21573 8.21792 8.23164
H 7.9342 6.23095 6.23388
H 9.69455 6.87588 6.38289
10
 Atoms. Timestep: 400
C 6.00293 7.51687 7.48857
C 7.03307 7.98659 8.16228
C 8.40998 7.73 7.75215
C 8.61769 6.8974 6.71137
H 4.90061 7.62981 7.79135
H 6.14778 7.01151 6.49607
H 6.88761 8.65662 9.01249
H 9.27314 8.22074 8.16533
H 7.85573 6.15857 6.42506
H 9.67714 6.75765 6.3124
10
 Atoms. Timestep: 420
C 5.98659 7.50652 7.49454
C 7.04886 8.01561 8.1878
C 8.42534 7.75311 7.69464
C 8.63269 6.85847 6.71963
H 4.98902 7.6296 7.81894
H 6.11716 7.05675 6.51324
H 6.86698 8.52646 9.14359
H 9.22143 8.38202 8.15396
H 7.83459 6.21428 6.44291
H 9.53392 6.60865 6.23667
10
 Atoms. Timestep: 440
C 6.00377 7.54101 7.5086
C 7.05623 7.98124 8.18638
C 8.4078 7.81294 7.64301
C 8.63259 6.79783 6.76003
H 5.03323 7.63102 7.93011
H 6.07027 7.09072 6.54608
H 6.93221 8.37762 9.18976
H 9.18845 8.48509 8.02834
H 7.73899 6.24171 6.37494
H 9.55847 6.5957 6.23163
10
 Atoms. Timestep: 460
C 5.99562 7.57831 7.52581
C 7.09835 7.9356 8.18503
C 8.40012 7.82375 7.57998
C 8.59373 6.80362 6.79598
H 4.96605 7.59467 8.07529
H 6.00653 7.16112 6.48094
H 7.02161 8.31505 9.20984
H 9.20074 8.47831 7.82675
H 7.78083 6.15066 6.42402
H 9.62134 6.67254 6.35136
10
 Atoms. Timestep: 480
C 5.98561 7.58827 7.55953
C 7.08998 7.93696 8.19875
C 8.38508 7.83597 7.55914
C 8.58735 6.77944 6.73887
H 5.03319 7.57016 8.07928
H 5.93411 7.35183 6.51564
H 7.07732 8.28389 9.24142
H 9.24832 8.53848 7.72599
H 7.92922 5.97077 6.61366
H 9.61371 6.661 6.37524
10
 Atoms. Timestep: 500
C 5.99015 7.57484 7.57672
C 7.11734 7.97786 8.23699
C 8.37129 7.81842 7.51974
C 8.58584 6.77496 6.71371
H 5.07174 7.57072 8.08518
H 5.96587 7.48458 6.50552
H 7.05589 8.24971 9.29157
H 9.12788 8.59448 7.69807
H 7.99644 5.83341 6.81393
H 9.51845 6.6106 6.21176
10
 Atoms. Timestep: 520
C 6.0403 7.592 7.60321
C 7.12164 7.95283 8.24554
C 8.36644 7.84058 7.50352
C 8.5735 6.74378 6.74334
H 5.00629 7.5525 8.09722
H 6.0686 7.47977 6.48038
H 7.10639 8.25046 9.28976
H 9.06617 8.6442 7.55064
H 7.88089 5.84678 6.91523
H 9.38437 6.67113 5.98203
10
 Atoms. Timestep: 540
C 6.0146 7.61811 7.60129
C 7.16023 7.90882 8.27163
C 8.39278 7.85662 7.47878
C 8.54074 6.72689 6.78573
H 5.00772 7.53855 8.06221
H 6.11898 7.35181 6.56516
H 7.19322 8.28021 9.32359
H 9.08303 8.72941 7.33671
H 7.8592 5.95346 6.85744
H 9.21172 6.70387 5.9193
10
 Atoms. Timestep: 560
C 6.01609 7.62967 7.64301
C 7.17072 7.92131 8.28243
C 8.39626 7.86046 7.46348
C 8.52948 6.7324 6.74508
H 5.06994 7.59045 8.07296
H 6.05814 7.25878 6.64524
H 7.20604 8.24197 9.31791
H 9.03556 8.74029 7.2365
H 7.81031 5.90237 6.86264
H 9.26876 6.62306 5.94978
10
 Atoms. Timestep: 580
C 6.03236 7.60773 7.70952
C 7.17556 7.98237 8.26628
C 8.36679 7.82972 7.41994
C 8.53302 6.7407 6.66969
H 5.05385 7.69599 8.27101
H 5.9898 7.25972 6.61911
H 7.19463 8.24013 9.30994
H 8.99292 8.68017 7.33101
H 7.84664 5.84362 6.91622
H 9.39971 6.53726 6.04912
10
 Atoms. Timestep: 600
C 6.02902 7.56475 7.75497
C 7.18715 8.00107 8.22502
C 8.34497 7.83856 7.38533
C 8.49472 6.71587 6.66325
H 5.14616 7.70674 8.39928
H 5.87554 7.35744 6.70174
H 7.29166 8.39683 9.27774
H 9.12896 8.63123 7.4263
H 7.91909 5.84759 6.78885
H 9.4275 6.55862 6.12367
10
 Atoms. Timestep: 620
C 6.0009 7.55444 7.80297
C 7.21701 8.01053 8.19882
C 8.36391 7.85514 7.36868
C 8.47369 6.70815 6.68984
H 5.15529 7.57541 8.45297
H 5.77899 7.32246 6.81174
H 7.37965 8.56416 9.12212
H 9.26784 8.50796 7.41903
H 7.80399 5.86259 6.65719
H 9.40516 6.61789 6.06413
10
 Atoms. Timestep: 640
C 6.02822 7.5615 7.85066
C 7.2147 8.07044 8.18973
C 8.40933 7.82257 7.36721
C 8.46747 6.71656 6.66321
H 5.1566 7.49211 8.55538
H 5.80987 7.08354 6.81922
H 7.33067 8.62604 9.09193
H 9.23877 8.47873 7.40049
H 7.58167 5.98022 6.60992
H 9.28813 6.53294 5.98727
10
 Atoms. Timestep: 660
C 6.06959 7.52818 7.87038
C 7.21467 8.13397 8.17543
C 8.41828 7.81378 7.40705
C 8.40999 6.69996 6.57507
H 5.2464 7.59999 8.57905
H 5.98744 6.85776 6.99903
H 7.26679 8.68189 9.16175
H 9.24135 8.55514 7.41232
H 7.52069 6.09367 6.64397
H 9.18624 6.37626 5.92527
10
 Atoms. Timestep: 680
C 6.05996 7.50415 7.93819
C 7.23408 8.13602 8.18052
C 8.42862 7.77736 7.36489
C 8.37748 6.75133 6.5513
H 5.20158 7.70356 8.53438
H 6.00074 6.78682 7.19363
H 7.29944 8.82305 9.04185
H 9.2879 8.48808 7.42482
H 7.56927 6.07674 6.60988
H 9.16425 6.3286 5.875
10
 Atoms. Timestep: 700
C 6.07291 7.51201 8.03352
C 7.25655 8.09662 8.18096
C 8.41579 7.80722 7.34511
C 8.36621 6.73157 6.52919
H 5.09835 7.80932 8.53616
H 5.85867 6.68725 7.27694
H 7.3952 8.96233 8.77222
H 9.34243 8.34687 7.40333
H 7.50015 5.98926 6.511
H 9.26041 6.54048 5.85666
10
 Atoms. Timestep: 720
C 6.09893 7.48656 8.07253
C 7.28401 8.11755 8.16583
C 8.38277 7.75485 7.32411
C 8.34346 6.72292 6.52405
H 5.27982 7.94864 8.61729
H 5.83702 6.62904 7.39814
H 7.37139 9.11629 8.69837
H 9.29016 8.34564 7.39265
H 7.52895 6.03484 6.34561
H 9.16161 6.65426 5.91782
10
 Atoms. Timestep: 740
C 6.13125 7.49763 8.12402
C 7.25727 8.18081 8.12635
C 8.37393 7.72732 7.36286
C 8.32947 6.69185 6.4619
H 5.36148 7.93801 8.70947
H 5.96093 6.62961 7.60144
H 7.28699 9.08019 8.76043
H 9.26453 8.41159 7.33931
H 7.47816 6.07739 6.25353
H 9.22032 6.49754 5.77396
10
 Atoms. Timestep: 760
C 6.15683 7.49052 8.15232
C 7.26825 8.24181 8.1052
C 8.41559 7.71245 7.30712
C 8.27091 6.73816 6.46795
H 5.23885 7.76313 8.78174
H 6.06156 6.47064 7.70768
H 7.36411 9.08085 8.73587
H 9.30789 8.30967 7.33851
H 7.35869 6.15366 6.29097
H 9.12341 6.34436 5.83874
10
 Atoms. Timestep: 780
C 6.16834 7.46748 8.20429
C 7.28246 8.21774 8.08983
C 8.41996 7.8008 7.27758
C 8.21506 6.7124 6.43372
H 5.24344 7.66028 8.775
H 6.20345 6.43812 7.75756
H 7.47108 9.20472 8.60852
H 9.45311 8.15671 7.39567
H 7.19345 6.29234 6.36909
H 9.04459 6.27738 5.9507
10
 Atoms. Timestep: 800
C 6.20477 7.44448 8.28832
C 7.29325 8.22139 8.08948
C 8.39201 7.76043 7.21036
C 8.21368 6.74562 6.42707
H 5.35578 7.7597 8.78466
H 6.23093 6.48556 7.85495
H 7.33255 9.26902 8.47975
H 9.41149 8.10553 7.48067
H 7.20388 6.40927 6.24925
H 8.96711 6.15934 5.94835
10
 Atoms. Timestep: 820
C 6.28563 7.43873 8.34434
C 7.28455 8.26298 8.04786
C 8.38606 7.74032 7.27203
C 8.17501 6.72121 6.36811
H 5.39866 7.91127 8.89028
H 6.15209 6.38518 8.03006
H 7.21721 9.24068 8.40526
H 9.37415 8.15045 7.47229
H 7.16447 6.44026 6.0372
H 9.02986 6.11268 5.85982
10
 Atoms. Timestep: 840
C 6.29928 7.44336 8.37481
C 7.27192 8.26282 7.98747
C 8.39752 7.67284 7.27505
C 8.13686 6.74663 6.36902
H 5.47133 7.90548 8.97706
H 6.2159 6.33787 8.2863
H 7.2674 9.3384 8.33463
H 9.38708 8.08722 7.41072
H 7.1735 6.47256 5.97534
H 8.97524 6.32455 5.86686
10
 Atoms. Timestep: 860
C 6.26874 7.46988 8.43174
C 7.27779 8.23471 7.97328
C 8.3823 7.67699 7.27287
C 8.13152 6.75216 6.33509
H 5.46799 7.83429 9.00418
H 6.42402 6.41942 8.41476
H 7.34442 9.34106 8.15527
H 9.45629 7.94875 7.41569
H 7.10058 6.48708 6.06138
H 8.96857 6.387 5.75984
10
 Atoms. Timestep: 880
C 6.33684 7.45942 8.42669
C 7.29868 8.27868 8.00723
C 8.3936 7.66464 7.24664
C 8.07795 6.7629 6.34777
H 5.43002 7.81533 8.94313
H 6.52665 6.36704 8.43098
H 7.24406 9.32051 8.04291
H 9.40809 7.94748 7.50673
H 7.04326 6.47742 6.12699
H 8.82951 6.29836 5.66828
10
 Atoms. Timestep: 900
C 6.3948 7.43764 8.47089
C 7.31758 8.3076 8.01455
C 8.40767 7.67596 7.25007
C 8.04099 6.7401 6.30926
H 5.38606 7.81722 8.84704
H 6.50165 6.34413 8.38567
H 7.11426 9.41712 8.04795
H 9.42709 7.983 7.47202
H 6.9913 6.54316 6.18902
H 8.73733 6.1476 5.67866
10
 Atoms. Timestep: 920
C 6.39873 7.45149 8.511
C 7.30276 8.27034 7.99414
C 8.40052 7.68023 7.2061
C 8.03914 6.7582 6.32652
H 5.46917 7.78761 8.86519
H 6.52111 6.41098 8.39603
H 7.16192 9.38956 8.10827
H 9.46918 7.94939 7.31358
H 6.96871 6.61124 6.19075
H 8.68702 6.10966 5.78863
10
 Atoms. Timestep: 940
C 6.36851 7.45247 8.5187
C 7.32896 8.27338 7.97254
C 8.39522 7.71533 7.17917
C 8.01003 6.73999 6.33585
H 5.49904 7.83192 9.07633
H 6.54933 6.33906 8.4604
H 7.31578 9.30386 8.13521
H 9.45492 7.97555 7.25342
H 6.93121 6.55809 6.11372
H 8.75736 6.12447 5.81241
10
 Atoms. Timestep: 960
C 6.39939 7.47834 8.49633
C 7.31935 8.2771 8.01092
C 8.36013 7.69865 7.13849
C 8.00394 6.69967 6.32177
H 5.65279 7.85705 9.23516
H 6.45595 6.37288 8.50952
H 7.37971 9.36572 8.21602
H 9.37068 8.07249 7.2816
H 6.98568 6.44998 6.09321
H 8.78234 6.17932 5.74849
10
 Atoms. Timestep: 980
C 6.41691 7.48577 8.53927
C 7.35569 8.28915 8.00684
C 8.29123 7.6908 7.12929
C 8.02475 6.67435 6.30631
H 5.73023 7.91611 9.271
H 6.39203 6.44875 8.38054
H 7.35464 9.39376 8.33699
H 9.31865 8.09019 7.19909
H 7.02252 6.31698 6.16367
H 8.77445 6.21379 5.64749
10
 Atoms. Timestep: 1000
C 6.45241 7.48921 8.55566
C 7.34581 8.29923 8.03161
C 8.31257 7.71767 7.09529
C 7.97921 6.67084 6.34083
H 5.72094 7.88602 9.22719
H 6.34593 6.44184 8.21627
H 7.45697 9.29026 8.32968
H 9.33768 8.07906 7.00764
H 6.97824 6.16363 6.29402
H 8.74425 6.29746 5.67393
10
 Atoms. Timestep: 1020
C 6.41885 7.48751 8.57945
C 7.40772 8.29366 8.04883
C 8.32937 7.74108 7.04175
C 7.95164 6.65935 6.34825
H 5.60057 7.80671 9.26663
H 6.33392 6.42925 8.18737
H 7.54998 9.33782 8.36361
H 9.30331 8.18145 6.85245
H 7.00349 6.13758 6.45194
H 8.68733 6.23763 5.6573
10
 Atoms. Timestep: 1040
C 6.43375 7.5225 8.53045
C 7.43166 8.23793 8.10421
C 8.29228 7.75879 7.01272
C 7.96509 6.63898 6.34811
H 5.68507 7.80476 9.24991
H 6.34609 6.50286 8.31901
H 7.57314 9.33238 8.43924
H 9.19734 8.34207 6.75515
H 7.03285 6.17942 6.56106
H 8.55286 6.10936 5.59173
10
 Atoms. Timestep: 1060
C 6.41272 7.50203 8.54403
C 7.48312 8.24932 8.09544
C 8.27401 7.76559 6.9858
C 7.96748 6.62219 6.35911
H 5.78081 8.0155 9.30376
H 6.32791 6.42761 8.32136
H 7.59796 9.22102 8.50472
H 9.07993 8.44197 6.68681
H 7.00626 6.13453 6.64142
H 8.50716 6.14462 5.52465
10
 Atoms. Timestep: 1080
C 6.46748 7.5294 8.60299
C 7.43878 8.21512 8.07857
C 8.28458 7.77538 6.95285
C 7.94313 6.62021 6.36951
H 5.82877 8.00973 9.32843
H 6.13697 6.49386 8.31328
H 7.6811 9.17521 8.48944
H 9.07501 8.39894 6.55807
H 7.07604 5.99373 6.65748
H 8.52224 6.30789 5.51873
10
 Atoms. Timestep: 1100
C 6.46946 7.52216 8.66052
C 7.47176 8.2305 8.03928
C 8.23673 7.7633 6.94053
C 7.93332 6.61779 6.35855
H 5.87886 7.93182 9.48143
H 6.01689 6.63104 8.26634
H 7.74942 9.27518 8.48945
H 9.07576 8.32339 6.51313
H 7.22193 5.91219 6.67653
H 8.51352 6.34391 5.46888
10
 Atoms. Timestep: 1120
C 6.51539 7.53957 8.59617
C 7.47312 8.27501 8.10868
C 8.18114 7.76709 6.9218
C 7.90645 6.58178 6.35874
H 6.11896 7.86338 9.57969
H 6.08852 6.67068 8.15464
H 7.76883 9.22487 8.47559
H 9.02206 8.39025 6.55158
H 7.22042 5.82554 6.76829
H 8.44864 6.26459 5.44686
10
 Atoms. Timestep: 1140
C 6.50377 7.56769 8.61201
C 7.53175 8.30282 8.09826
C 8.13919 7.77528 6.88964
C 7.89863 6.5559 6.36394
H 6.16771 7.72338 9.66673
H 6.21745 6.63581 8.04863
H 7.85211 9.19184 8.60372
H 8.87197 8.44025 6.47303
H 7.19417 5.8477 6.85207
H 8.38055 6.17086 5.46172
10
 Atoms. Timestep: 1160
C 6.54731 7.58786 8.65608
C 7.52129 8.26454 8.09984
C 8.13123 7.80243 6.8304
C 7.88389 6.5558 6.39933
H 6.06145 7.63455 9.57301
H 6.18374 6.71083 8.12132
H 8.04946 9.12143 8.67528
H 8.76866 8.43735 6.20561
H 7.23017 5.86771 6.88801
H 8.32817 6.18435 5.51181
10
 Atoms. Timestep: 1180
C 6.54679 7.54079 8.69127
C 7.57929 8.25574 8.10657
C 8.09821 7.8217 6.7865
C 7.88175 6.55611 6.41004
H 6.0362 7.84461 9.65983
H 6.03831 6.77804 8.13708
H 8.13545 9.03056 8.61711
H 8.66469 8.47186 6.07509
H 7.31384 5.83617 6.99785
H 8.29924 6.21274 5.4358
10
 Atoms. Timestep: 1200
C 6.58323 7.57282 8.67134
C 7.60493 8.1871 8.11959
C 8.03421 7.81167 6.77836
C 7.88669 6.55735 6.39611
H 6.28383 8.0266 9.64713
H 5.89839 6.86254 8.16987
H 8.08233 8.99663 8.60872
H 8.52017 8.56549 6.18417
H 7.52886 5.78749 7.11071
H 8.15602 6.20757 5.37599
10
 Atoms. Timestep: 1220
C 6.57088 7.63594 8.68812
C 7.65566 8.13462 8.08903
C 8.00417 7.81485 6.78116
C 7.88001 6.52533 6.37921
H 6.40262 7.94566 9.68224
H 5.8454 6.94521 8.25754
H 8.10401 9.04033 8.66107
H 8.35894 8.65086 6.17609
H 7.74272 5.76396 7.12554
H 8.00598 6.20958 5.36138
10
 Atoms. Timestep: 1240
C 6.58418 7.63522 8.69668
C 7.67348 8.17912 8.13127
C 8.01179 7.80895 6.72376
C 7.84258 6.53381 6.41948
H 6.35993 7.82057 9.76289
H 5.87601 6.97197 8.2199
H 8.31424 8.92722 8.60575
H 8.1749 8.60128 5.95287
H 7.82501 5.71949 7.14087
H 7.90176 6.23683 5.3796
10
 Atoms. Timestep: 1260
C 6.64947 7.62123 8.71428
C 7.69757 8.23654 8.11998
C 7.95401 7.83812 6.72955
C 7.82461 6.51993 6.43123
H 6.3084 7.74042 9.80172
H 6.01086 7.029 8.04577
H 8.42561 8.77893 8.65027
H 8.03207 8.46174 5.84905
H 7.75175 5.73726 7.22049
H 7.84129 6.17766 5.35149
10
 Atoms. Timestep: 1280
C 6.70294 7.6413 8.7261
C 7.71843 8.24329 8.11303
C 7.85439 7.80101 6.70643
C 7.83123 6.50775 6.42032
H 6.40367 7.698 9.73265
H 6.07889 7.07506 8.05035
H 8.51561 8.79292 8.75111
H 7.99828 8.54959 5.91547
H 7.66075 5.82651 7.21714
H 7.82492 6.11781 5.42706
10
 Atoms. Timestep: 1300
C 6.70074 7.662 8.74689
C 7.76088 8.19038 8.11385
C 7.83409 7.83289 6.67927
C 7.80538 6.4845 6.4022
H 6.55874 7.74529 9.81685
H 5.95203 7.03182 8.24673
H 8.48363 8.89559 8.56064
H 8.00541 8.66801 5.96945
H 7.6494 5.7892 7.24242
H 7.86827 6.07143 5.39967
10
 Atoms. Timestep: 1320
C 6.72539 7.64505 8.79106
C 7.73859 8.14205 8.06057
C 7.88251 7.81356 6.67753
C 7.73515 6.55625 6.40872
H 6.73598 7.88986 9.89791
H 5.88525 7.0433 8.40491
H 8.38096 8.88817 8.40159
H 8.01505 8.57295 5.93384
H 7.72645 5.77993 7.2126
H 7.89046 6.10431 5.41093
10
 Atoms. Timestep: 1340
C 6.79359 7.62877 8.8549
C 7.6713 8.17214 8.03374
C 7.90538 7.81425 6.66512
C 7.69208 6.5042 6.38116
H 6.78081 7.98638 9.88371
H 5.96473 7.05417 8.53618
H 8.38595 8.94516 8.5136
H 8.10776 8.52541 5.83838
H 7.70218 5.80626 7.18599
H 7.80849 6.18647 5.32164
10
 Atoms. Timestep: 1360
C 6.85303 7.60256 8.85734
C 7.69977 8.28417 8.03258
C 7.86374 7.78234 6.63793
C 7.67085 6.49778 6.38855
H 6.78061 7.95444 9.86969
H 6.05442 6.88198 8.57837
H 8.37441 8.99408 8.55655
H 8.2092 8.50417 5.88165
H 7.52347 5.72496 7.12539
H 7.65752 6.15926 5.37898
10
 Atoms. Timestep: 1380
C 6.90135 7.63248 8.84108
C 7.72455 8.29351 8.049
C 7.84142 7.80893 6.69069
C 7.63551 6.48287 6.37875
H 6.79628 7.84105 9.93202
H 6.33896 6.74255 8.47526
H 8.31225 9.10336 8.34074
H 8.19757 8.43856 5.88753
H 7.27317 5.71763 7.14971
H 7.58877 6.07004 5.34661
10
 Atoms. Timestep: 1400
C 6.93236 7.62867 8.89022
C 7.74649 8.28334 8.03515
C 7.85333 7.73211 6.67819
C 7.55052 6.50913 6.38347
H 6.81232 7.78937 9.9623
H 6.56013 6.75601 8.43101
H 8.23888 9.3206 8.17455
H 8.15245 8.444 5.90394
H 7.20102 5.84687 7.13065
H 7.66305 6.14368 5.36435
10
 Atoms. Timestep: 1420
C 7.03165 7.61944 8.91135
C 7.72896 8.30501 8.01637
C 7.88655 7.75805 6.68064
C 7.46192 6.47847 6.36234
H 6.80905 7.87888 9.93419
H 6.5194 6.68772 8.61087
H 8.10537 9.33156 8.20771
H 8.20678 8.44914 5.86773
H 7.168 5.75904 7.10634
H 7.66091 6.1478 5.33793
10
 Atoms. Timestep: 1440
C 7.09249 7.58386 8.9478
C 7.69663 8.33081 7.9898
C 7.8622 7.73921 6.65139
C 7.46559 6.52647 6.3448
H 6.91771 8.1184 9.90205
H 6.51669 6.6242 8.85394
H 8.0479 9.26177 8.28261
H 8.3173 8.3346 5.8857
H 7.12083 5.69129 7.02379
H 7.50211 6.10771 5.33806
10
 Atoms. Timestep: 1460
C 7.11072 7.59803 8.97054
C 7.65434 8.25621 7.97525
C 7.84521 7.76598 6.63404
C 7.46284 6.50471 6.34565
H 7.08855 8.17885 9.898
H 6.69234 6.62829 8.96317
H 8.07633 9.28794 8.21585
H 8.3859 8.3257 5.86551
H 7.00582 5.85549 7.10412
H 7.43643 6.19418 5.28947
10
 Atoms. Timestep: 1480
C 7.12532 7.59939 8.9759
C 7.68136 8.24751 7.92777
C 7.84527 7.74735 6.60975
C 7.41306 6.52942 6.39191
H 7.15922 8.02764 9.97805
H 6.8169 6.55694 8.99896
H 8.05034 9.30107 8.07543
H 8.3232 8.43785 5.88385
H 6.89874 6.00823 7.13647
H 7.48553 6.14624 5.38429
10
 Atoms. Timestep: 1500
C 7.19267 7.59691 8.98193
C 7.70049 8.311 7.96855
C 7.85379 7.75564 6.60035
C 7.34451 6.52514 6.35715
H 7.13033 7.97803 10.0153
H 6.89519 6.52067 8.8949
H 7.99922 9.29317 8.07748
H 8.25126 8.41545 5.83195
H 6.78129 5.99609 7.16739
H 7.51798 5.8845 5.45407
10
 Atoms. Timestep: 1520
C 7.27924 7.57006 8.97361
C 7.70534 8.35543 7.97501
C 7.80511 7.73597 6.61333
C 7.30342 6.52391 6.358
H 7.07511 8.0019 9.93624
H 6.99164 6.55305 8.7808
H 7.98587 9.42652 8.19152
H 8.29686 8.26357 5.8105
H 6.72553 5.97799 7.13456
H 7.49033 5.88471 5.51558
10
 Atoms. Timestep: 1540
C 7.33812 7.58599 8.97441
C 7.70385 8.35487 7.93532
C 7.76364 7.73694 6.63536
C 7.26434 6.49581 6.39297
H 7.07815 7.9748 9.96078
H 7.13426 6.53976 8.82302
H 7.94348 9.43748 8.1524
H 8.43191 8.15419 5.84051
H 6.65464 5.97586 7.07978
H 7.46188 6.09624 5.4041
10
 Atoms. Timestep: 1560
C 7.36347 7.61502 9.00081
C 7.68009 8.34768 7.94165
C 7.78158 7.69415 6.63507
C 7.23656 6.52224 6.38035
H 7.20216 8.00127 10.0299
H 7.32262 6.50393 8.95153
H 7.87195 9.37459 7.9423
H 8.44196 8.16368 5.90434
H 6.54084 5.92973 6.99346
H 7.37432 6.17223 5.32017
10
 Atoms. Timestep: 1580
C 7.38513 7.59212 9.01298
C 7.6554 8.33179 7.92113
C 7.84448 7.67465 6.66952
C 7.18784 6.55243 6.35362
H 7.34581 8.09594 9.97154
H 7.45772 6.50701 9.0187
H 7.76132 9.44126 7.89102
H 8.37202 8.20401 5.90146
H 6.46053 5.98786 6.98259
H 7.28956 6.07797 5.38015
10
 Atoms. Timestep: 1600
C 7.4418 7.5808 8.98555
C 7.64139 8.31553 7.91108
C 7.86145 7.66509 6.64373
C 7.14136 6.55958 6.37614
H 7.33929 8.10698 9.92576
H 7.51705 6.51593 9.0193
H 7.60525 9.43861 8.04467
H 8.42346 8.19492 5.84226
H 6.44309 6.19331 7.10148
H 7.27989 6.0443 5.45659
10
 Atoms. Timestep: 1620
C 7.50558 7.57318 9.01609
C 7.64358 8.33168 7.89943
C 7.82106 7.69245 6.57039
C 7.12888 6.57395 6.40752
H 7.20774 8.03145 9.99507
H 7.5783 6.46305 8.99199
H 7.54635 9.37211 8.04049
H 8.56038 8.06442 5.84344
H 6.41081 6.32478 7.18161
H 7.2258 5.93657 5.47581
10
 Atoms. Timestep: 1640
C 7.54028 7.56627 9.00315
C 7.65181 8.33094 7.91321
C 7.7998 7.73051 6.5695
C 7.11102 6.57817 6.41899
H 7.19056 7.93248 9.95179
H 7.69351 6.48866 8.95876
H 7.55294 9.42866 7.92113
H 8.59668 7.97988 5.88502
H 6.34047 6.29551 7.15702
H 7.13236 5.85951 5.58614
10
 Atoms. Timestep: 1660
C 7.55728 7.56739 8.99521
C 7.65977 8.35834 7.89126
C 7.7969 7.66637 6.6302
C 7.05704 6.56779 6.39689
H 7.28951 7.96169 9.97158
H 7.8123 6.52378 8.88851
H 7.56598 9.49413 7.93631
H 8.53508 8.05945 5.90056
H 6.30823 6.30233 7.12907
H 7.18694 5.9193 5.58163
10
 Atoms. Timestep: 1680
C 7.5779 7.60539 8.96522
C 7.64397 8.36722 7.90652
C 7.80954 7.61774 6.6582
C 7.02426 6.56395 6.40303
H 7.46185 7.98992 9.99541
H 7.83378 6.53369 8.88372
H 7.59299 9.41617 7.96886
H 8.42308 8.07881 5.8756
H 6.23463 6.27036 7.1102
H 7.24365 6.00522 5.4573
10
 Atoms. Timestep: 1700
C 7.6112 7.59233 9.00915
C 7.64028 8.3543 7.8817
C 7.77599 7.65378 6.63474
C 7.04587 6.57052 6.43111
H 7.58674 8.03835 10.0104
H 7.73577 6.50922 8.94202
H 7.60734 9.45385 7.91465
H 8.42472 7.97634 5.83539
H 6.22624 6.16526 7.01551
H 7.10312 6.05137 5.43078
10
 Atoms. Timestep: 1720
C 7.64031 7.59358 9.00404
C 7.6683 8.32542 7.91563
C 7.71585 7.69813 6.5841
C 7.03921 6.54097 6.42348
H 7.6178 8.06883 9.97039
H 7.63745 6.52664 9.00759
H 7.64773 9.45961 7.89943
H 8.48411 7.98036 5.8332
H 6.30268 6.17209 7.12831
H 7.05225 6.06386 5.48656
10
 Atoms. Timestep: 1740
C 7.64352 7.58103 8.99022
C 7.71277 8.33731 7.86417
C 7.67839 7.6876 6.5758
C 7.0158 6.55407 6.43436
H 7.59455 8.09186 9.97536
H 7.60121 6.46504 9.01047
H 7.75034 9.39128 8.03578
H 8.3633 8.12373 5.84342
H 6.43662 6.23569 7.31957
H 7.07507 5.95232 5.51715
10
 Atoms. Timestep: 1760
C 7.63058 7.58254 8.97227
C 7.74207 8.32488 7.89397
C 7.6984 7.71416 6.56135
C 6.98863 6.5621 6.46152
H 7.58168 8.04247 9.94468
H 7.63366 6.49793 8.95089
H 7.90926 9.38565 8.00932
H 8.11578 8.21355 5.68834
H 6.49554 6.1685 7.35368
H 7.0301 5.80977 5.60749
10
 Atoms. Timestep: 1780
C 7.63297 7.5802 9.03125
C 7.78866 8.33714 7.88425
C 7.66122 7.70487 6.53772
C 7.00546 6.53857 6.47202
H 7.59956 8.01013 10.0399
H 7.63041 6.51353 8.91028
H 8.02943 9.45513 7.88207
H 7.91396 8.23168 5.5977
H 6.49569 6.12312 7.30373
H 6.92511 5.9217 5.60393
10
 Atoms. Timestep: 1800
C 7.66788 7.63174 8.98059
C 7.83503 8.32288 7.87118
C 7.58194 7.70849 6.581
C 7.02261 6.4905 6.48175
H 7.66986 7.98287 10.0205
H 7.54286 6.52201 8.96624
H 8.03264 9.37299 7.88462
H 7.90288 8.22775 5.67156
H 6.50587 6.04634 7.38033
H 6.82514 6.14633 5.47867
10
 Atoms. Timestep: 1820
C 7.71445 7.62003 8.97821
C 7.85235 8.33772 7.85031
C 7.53646 7.69104 6.61668
C 6.99111 6.49395 6.48261
H 7.82842 8.15637 9.91937
H 7.41257 6.56787 8.98425
H 8.07051 9.38213 7.93235
H 7.90661 8.22493 5.76381
H 6.62733 5.83783 7.29763
H 6.71234 6.19448 5.42472
10
 Atoms. Timestep: 1840
C 7.74801 7.6185 8.98701
C 7.8382 8.32937 7.88782
C 7.54976 7.69944 6.5978
C 6.92117 6.50584 6.48635
H 7.99898 8.17516 9.89284
H 7.35847 6.64141 9.0369
H 8.18569 9.41418 7.87347
H 7.7683 8.24115 5.64836
H 6.76778 5.74414 7.17737
H 6.70195 6.08507 5.5062
10
 Atoms. Timestep: 1860
C 7.75081 7.63165 8.98974
C 7.84707 8.31594 7.82742
C 7.51787 7.71368 6.56059
C 6.92048 6.52479 6.52057
H 8.13653 7.97249 9.98433
H 7.33503 6.60398 9.1026
H 8.2946 9.31325 7.83867
H 7.57684 8.28038 5.62749
H 6.84059 5.81837 7.39389
H 6.72303 6.11517 5.55208
10
 Atoms. Timestep: 1880
C 7.75617 7.6308 8.98786
C 7.90752 8.29294 7.82472
C 7.41453 7.7463 6.53463
C 6.96849 6.49492 6.54195
H 8.21225 7.9305 9.90856
H 7.31186 6.62028 9.01681
H 8.38477 9.23335 7.8124
H 7.49401 8.3657 5.6616
H 6.83599 6.03855 7.56661
H 6.60482 6.04191 5.58797
10
 Atoms. Timestep: 1900
C 7.79818 7.61604 8.98149
C 7.94622 8.27233 7.8272
C 7.34426 7.78703 6.56301
C 6.96691 6.48399 6.52135
H 8.24613 8.05037 9.8617
H 7.25247 6.70909 9.03096
H 8.53256 9.23694 7.79233
H 7.43039 8.42356 5.65736
H 6.84624 5.98444 7.42119
H 6.48276 5.85923 5.76714
10
 Atoms. Timestep: 1920
C 7.84715 7.62047 8.95064
C 7.9542 8.27269 7.78556
C 7.33594 7.76729 6.58555
C 6.90513 6.50427 6.55068
H 8.26712 8.07279 9.89411
H 7.18032 6.77007 9.18742
H 8.61576 9.1599 7.76928
H 7.28455 8.41808 5.69716
H 7.03812 5.81448 7.41046
H 6.48356 5.99633 5.696
10
 Atoms. Timestep: 1940
C 7.86296 7.66427 8.96864
C 7.98574 8.25838 7.78259
C 7.32984 7.73158 6.58625
C 6.84009 6.48586 6.58413
H 8.4211 8.02858 9.83347
H 7.14706 6.85651 9.19624
H 8.60555 9.10251 7.66938
H 7.11465 8.38373 5.75905
H 7.28186 5.72574 7.33152
H 6.442 6.28242 5.5697
10
 Atoms. Timestep: 1960
C 7.85501 7.69002 8.97388
C 8.03152 8.24106 7.75358
C 7.29411 7.73887 6.64515
C 6.87632 6.48953 6.58692
H 8.54059 7.97413 9.73872
H 7.12992 6.91505 9.11598
H 8.68209 9.13579 7.59227
H 6.98094 8.39948 5.8252
H 7.19709 5.65627 7.12644
H 6.25156 6.18239 5.73316
10
 Atoms. Timestep: 1980
C 7.87434 7.69053 8.90521
C 8.08468 8.25426 7.74171
C 7.22687 7.78352 6.67376
C 6.90024 6.44805 6.56764
H 8.54388 7.90212 9.79962
H 7.09401 6.9512 9.09022
H 8.81915 9.07547 7.58486
H 6.87148 8.51591 5.91289
H 7.20036 5.62348 7.23119
H 6.07832 6.09364 5.94032
10
 Atoms. Timestep: 2000
C 7.93099 7.65426 8.91012
C 8.11284 8.2623 7.69637
C 7.16098 7.7548 6.63957
C 6.87936 6.47425 6.59685
H 8.47676 7.87158 9.84198
H 7.04739 7.01159 9.03413
H 8.91524 8.95958 7.5569
H 6.7243 8.51639 6.02645
H 7.41128 5.84879 7.4026
H 6.04401 6.13839 5.96952
10
 Atoms. Timestep: 2020
C 7.97416 7.67245 8.92024
C 8.09917 8.18791 7.69671
C 7.17093 7.81933 6.64116
C 6.82949 6.49103 6.64267
H 8.54147 7.86616 9.76486
H 7.08821 7.06921 9.03832
H 8.92414 8.865 7.43316
H 6.54591 8.47756 6.00541
H 7.45271 5.90752 7.26874
H 6.12904 6.01027 5.97381
10
 Atoms. Timestep: 2040
C 7.97581 7.7002 8.93374
C 8.11783 8.17732 7.67436
C 7.10512 7.79989 6.66378
C 6.8167 6.51587 6.64172
H 8.78714 7.89501 9.7045
H 7.11692 7.05085 9.21439
H 8.95862 8.84344 7.36003
H 6.62253 8.55948 6.00657
H 7.39385 5.74703 7.14016
H 6.1522 5.96452 5.98184
10
 Atoms. Timestep: 2060
C 8.0035 7.70977 8.88056
C 8.09922 8.1887 7.66839
C 7.07417 7.79213 6.7185
C 6.8123 6.46652 6.6277
H 8.88095 7.89561 9.56023
H 7.22357 7.15416 9.36929
H 8.93979 8.79835 7.39982
H 6.73429 8.5648 6.05639
H 7.41527 5.69044 7.23388
H 5.99498 6.17393 5.89853
10
 Atoms. Timestep: 2080
C 8.08308 7.67601 8.88836
C 8.06456 8.20532 7.64462
C 7.09421 7.76011 6.73664
C 6.79022 6.49478 6.64399
H 8.89145 7.91089 9.51263
H 7.20633 7.206 9.3154
H 8.92006 8.81821 7.34601
H 6.62684 8.45707 6.03452
H 7.27418 5.77236 7.23202
H 6.0127 6.23812 5.96685
10
 Atoms. Timestep: 2100
C 8.13419 7.65811 8.87494
C 8.11447 8.224 7.67568
C 7.0899 7.81193 6.67737
C 6.73328 6.4837 6.69934
H 8.92252 7.89521 9.61053
H 7.22766 7.10342 9.20039
H 8.8767 8.9053 7.24613
H 6.48306 8.45781 5.98496
H 7.19341 5.70424 7.28117
H 5.98956 6.08754 6.00184
10
 Atoms. Timestep: 2120
C 8.14246 7.6598 8.83444