LAMMPS (2 Aug 2023 - Update 2)
#13 Butadiene
units           metal
boundary        p p p
atom_style      atomic

neighbor        2.0 bin
neigh_modify    delay 0 every 1 check yes

read_data       restart.lmp
Reading data file ...
  orthogonal box = (0 0 0) to (15 15 15)
  1 by 1 by 3 MPI processor grid
  reading atoms ...
  10 atoms
  reading velocities ...
  10 velocities
  read_data CPU = 0.001 seconds
mass            1 12.0
mass            2 2

variable        sysvol          equal vol
variable        sysmass         equal mass(all)/6.0221367e+23
variable        sysdensity      equal v_sysmass/v_sysvol/1.0e-24
variable	out_freq 	equal 100

pair_style      deepmd ../files/frozen_model_1_compressed.pb ../files/frozen_model_2_compressed.pb ../files/frozen_model_3_compressed.pb ../files/frozen_model_3_compressed.pb out_file md.out out_freq 10 atomic relative 1.0
Summary of lammps deepmd module ...
  >>> Info of deepmd-kit:
  installed to:       /rs1/researchers/w/wjpfaend/rahul/MLP/DeePMD-kit/deepmd_cpu
  source:             v2.2.8-dirty
  source branch:      master
  source commit:      b875ea8
  source commit at:   2024-01-22 22:28:58 -0500
  support model ver.: 1.1 
  build variant:      cpu
  build with tf inc:  /rs1/researchers/w/wjpfaend/rahul/MLP/DeePMD-kit/tensorflow/lib/python3.11/site-packages/tensorflow/include;/rs1/researchers/w/wjpfaend/rahul/MLP/DeePMD-kit/tensorflow/lib/python3.11/site-packages/tensorflow/include
  build with tf lib:  /rs1/researchers/w/wjpfaend/rahul/MLP/DeePMD-kit/tensorflow/lib/python3.11/site-packages/tensorflow/libtensorflow_cc.so.2
  set tf intra_op_parallelism_threads: 0
  set tf inter_op_parallelism_threads: 0
  >>> Info of lammps module:
  use deepmd-kit at:  /rs1/researchers/w/wjpfaend/rahul/MLP/DeePMD-kit/deepmd_cpu
  source:             v2.2.8-dirty
  source branch:      master
  source commit:      b875ea8
  source commit at:   2024-01-22 22:28:58 -0500
  build float prec:   double
  build with tf inc:  /rs1/researchers/w/wjpfaend/rahul/MLP/DeePMD-kit/tensorflow/lib/python3.11/site-packages/tensorflow/include;/rs1/researchers/w/wjpfaend/rahul/MLP/DeePMD-kit/tensorflow/lib/python3.11/site-packages/tensorflow/include
  build with tf lib:  /rs1/researchers/w/wjpfaend/rahul/MLP/DeePMD-kit/tensorflow/lib/python3.11/site-packages/tensorflow/libtensorflow_cc.so.2
pair_coeff	* *

#
velocity        all create 300.0 2345678 rot no dist gaussian
fix             1 all nvt temp 300.0 300.0 0.05
fix             2 all plumed plumedfile plumed.dat outfile PLUMED.log

timestep        0.0005
thermo_style    custom step pe ke etotal v_sysdensity temp press vol
thermo          10

dump            10 all custom 100 btd.dump id type x y z
dump		101 all xyz 20 btd.xyz
dump_modify	101 element C H

fix		extra all print 20 "$(step), $(ke), $(pe), $(etotal), $(temp), $(press), $(vol)" file logfile screen no

restart	        20000 dump.restart

run             50000

CITE-CITE-CITE-CITE-CITE-CITE-CITE-CITE-CITE-CITE-CITE-CITE-CITE

Your simulation uses code contributions which should be cited:

- USER-DEEPMD package:

@article{Wang_ComputPhysCommun_2018_v228_p178,
  author = {Wang, Han and Zhang, Linfeng and Han, Jiequn and E, Weinan},
  doi = {10.1016/j.cpc.2018.03.016},
  url = {https://doi.org/10.1016/j.cpc.2018.03.016},
  year = 2018,
  month = {jul},
  publisher = {Elsevier {BV}},
  volume = 228,
  journal = {Comput. Phys. Commun.},
  title = {{DeePMD-kit: A deep learning package for many-body potential energy representation and molecular dynamics}},
  pages = {178--184}
}
@misc{Zeng_JChemPhys_2023_v159_p054801,
  title  = {{DeePMD-kit v2: A software package for deep potential models}},
  author =   {Jinzhe Zeng and Duo Zhang and Denghui Lu and Pinghui Mo and Zeyu Li
         and Yixiao Chen and Mari{\'a}n Rynik and Li'ang Huang and Ziyao Li and 
         Shaochen Shi and Yingze Wang and Haotian Ye and Ping Tuo and Jiabin
         Yang and Ye Ding and Yifan Li and Davide Tisi and Qiyu Zeng and Han 
         Bao and Yu Xia and Jiameng Huang and Koki Muraoka and Yibo Wang and 
         Junhan Chang and Fengbo Yuan and Sigbj{\o}rn L{\o}land Bore and Chun
         Cai and Yinnian Lin and Bo Wang and Jiayan Xu and Jia-Xin Zhu and 
         Chenxing Luo and Yuzhi Zhang and Rhys E A Goodall and Wenshuo Liang
         and Anurag Kumar Singh and Sikai Yao and Jingchao Zhang and Renata
         Wentzcovitch and Jiequn Han and Jie Liu and Weile Jia and Darrin M
         York and Weinan E and Roberto Car and Linfeng Zhang and Han Wang},
  journal =  {J. Chem. Phys.},
  volume =   159,
  issue =    5,  
  year =    2023,
  pages  =   054801,
  doi =      {10.1063/5.0155600},
}

CITE-CITE-CITE-CITE-CITE-CITE-CITE-CITE-CITE-CITE-CITE-CITE-CITE

Generated 0 of 1 mixed pair_coeff terms from geometric mixing rule
Neighbor list info ...
  update: every = 1 steps, delay = 0 steps, check = yes
  max neighbors/atom: 2000, page size: 100000
  master list distance cutoff = 8
  ghost atom cutoff = 8
  binsize = 4, bins = 4 4 4
  1 neighbor lists, perpetual/occasional/extra = 1 0 0
  (1) pair deepmd, perpetual
      attributes: full, newton on
      pair build: full/bin/atomonly
      stencil: full/bin/3d
      bin: standard
Per MPI rank memory allocation (min/avg/max) = 2.958 | 2.999 | 3.082 Mbytes
   Step         PotEng         KinEng         TotEng      v_sysdensity       Temp          Press          Volume    
         0  -56.445318      0.34900239    -56.096316      0.029520714    300           -365.11788      3375         
        10  -56.414304      0.46096734    -55.953337      0.029520714    396.24429     -769.8422       3375         
        20  -56.434866      0.46332295    -55.971543      0.029520714    398.26915     -134.14232      3375         
        30  -56.421209      0.44245564    -55.978754      0.029520714    380.33176      440.04845      3375         
        40  -56.432161      0.4446606     -55.987501      0.029520714    382.22712      248.71155      3375         
        50  -56.341803      0.34488121    -55.996922      0.029520714    296.45746     -626.78531      3375         
        60  -56.324077      0.32193617    -56.002141      0.029520714    276.73407      291.32136      3375         
        70  -56.392157      0.37502263    -56.017134      0.029520714    322.36681      1116.0239      3375         
        80  -56.333453      0.3063689     -56.027084      0.029520714    263.35255     -444.39293      3375         
        90  -56.365725      0.33310524    -56.032619      0.029520714    286.33492     -784.47475      3375         
       100  -56.434292      0.39160964    -56.042682      0.029520714    336.62489      101.91438      3375         
       110  -56.374853      0.31384617    -56.061007      0.029520714    269.77996      206.57126      3375         
       120  -56.307277      0.24398717    -56.06329       0.029520714    209.72966      298.43125      3375         
       130  -56.430897      0.35678253    -56.074114      0.029520714    306.68775     -72.011121      3375         
       140  -56.473072      0.38502319    -56.088048      0.029520714    330.96322     -191.06051      3375         
       150  -56.435454      0.33075728    -56.104697      0.029520714    284.31663      499.99928      3375         
       160  -56.48537       0.35884494    -56.126525      0.029520714    308.46059     -586.6733       3375         
       170  -56.438514      0.30237778    -56.136137      0.029520714    259.92181     -849.71072      3375         
       180  -56.49086       0.32755251    -56.163308      0.029520714    281.56183      1073.3846      3375         
       190  -56.577257      0.38737556    -56.189881      0.029520714    332.98531      726.5797       3375         
       200  -56.476456      0.26468594    -56.21177       0.029520714    227.52217     -474.4832       3375         
       210  -56.384017      0.15289679    -56.23112       0.029520714    131.42901     -89.281846      3375         
       220  -56.55149       0.30055326    -56.250937      0.029520714    258.35346     -372.72739      3375         
       230  -56.571217      0.30487188    -56.266345      0.029520714    262.06573     -250.38634      3375         
       240  -56.493549      0.20470598    -56.288843      0.029520714    175.96382      357.44603      3375         
       250  -56.500302      0.20270951    -56.297593      0.029520714    174.24767     -176.33984      3375         
       260  -56.544765      0.23742128    -56.307344      0.029520714    204.08566      214.24739      3375         
       270  -56.49289       0.17275514    -56.320135      0.029520714    148.4991       558.52916      3375         
       280  -56.516707      0.19783631    -56.31887       0.029520714    170.0587      -573.85274      3375         
       290  -56.542561      0.21788856    -56.324672      0.029520714    187.29547     -338.75665      3375         
       300  -56.510685      0.18230579    -56.328379      0.029520714    156.70878      364.25083      3375         
       310  -56.498674      0.17393086    -56.324743      0.029520714    149.50974     -101.4248       3375         
       320  -56.53611       0.21050952    -56.3256        0.029520714    180.9525       13.769216      3375         
       330  -56.52417       0.19986355    -56.324306      0.029520714    171.8013       174.94092      3375         
       340  -56.528167      0.2179574     -56.310209      0.029520714    187.35465     -13.299925      3375         
       350  -56.531839      0.21905472    -56.312784      0.029520714    188.2979       106.96025      3375         
       360  -56.460932      0.15651092    -56.304421      0.029520714    134.53568     -276.09201      3375         
       370  -56.50854       0.22489482    -56.283645      0.029520714    193.318       -430.15659      3375         
       380  -56.571854      0.28885474    -56.282999      0.029520714    248.2975       317.94176      3375         
       390  -56.462837      0.19696608    -56.265871      0.029520714    169.31065      439.07408      3375         
       400  -56.420894      0.1631715     -56.257723      0.029520714    140.26108     -17.644257      3375         
       410  -56.584814      0.33413792    -56.250676      0.029520714    287.2226      -169.38905      3375         
       420  -56.51626       0.28474661    -56.231513      0.029520714    244.76618     -170.68626      3375         
       430  -56.453089      0.23021732    -56.222872      0.029520714    197.89319     -322.26031      3375         
       440  -56.558078      0.33818495    -56.219893      0.029520714    290.7014      -86.472519      3375         
       450  -56.547481      0.34749848    -56.199982      0.029520714    298.70725      399.23908      3375         
       460  -56.422063      0.22542574    -56.196637      0.029520714    193.77438      365.77078      3375         
       470  -56.533014      0.33383926    -56.199175      0.029520714    286.96587      162.79442      3375         
       480  -56.53807       0.36282775    -56.175242      0.029520714    311.88418     -26.823439      3375         
       490  -56.435608      0.25900688    -56.176601      0.029520714    222.64049     -653.67439      3375         
       500  -56.458284      0.28583314    -56.172451      0.029520714    245.70016     -354.22432      3375         
       510  -56.474686      0.31453633    -56.16015       0.029520714    270.37322      264.10011      3375         
       520  -56.439368      0.28298615    -56.156382      0.029520714    243.25291     -9.9803128      3375         
       530  -56.487992      0.33897147    -56.149021      0.029520714    291.37749      246.79226      3375         
       540  -56.381022      0.2391434     -56.141879      0.029520714    205.56598      359.01105      3375         
       550  -56.270904      0.13555366    -56.135351      0.029520714    116.52097     -229.40679      3375         
       560  -56.455132      0.32736401    -56.127768      0.029520714    281.3998       237.36645      3375         
       570  -56.480284      0.36457635    -56.115707      0.029520714    313.38727      222.15209      3375         
       580  -56.390811      0.28615364    -56.104657      0.029520714    245.97565     -601.15767      3375         
       590  -56.440181      0.35554212    -56.084639      0.029520714    305.62151      82.717842      3375         
       600  -56.514406      0.43976116    -56.074644      0.029520714    378.0156       309.87107      3375         
       610  -56.346997      0.28560367    -56.061393      0.029520714    245.50291     -283.2238       3375         
       620  -56.42174       0.37277537    -56.048965      0.029520714    320.43509      126.63272      3375         
       630  -56.452651      0.41400713    -56.038644      0.029520714    355.87761     -125.4967       3375         
       640  -56.430385      0.41146465    -56.01892       0.029520714    353.69212     -361.65237      3375         
       650  -56.486512      0.47824063    -56.008272      0.029520714    411.09228      380.32966      3375         
       660  -56.419282      0.41700688    -56.002275      0.029520714    358.45618     -4.4053165      3375         
       670  -56.27619       0.28038768    -55.995802      0.029520714    241.01928      39.089297      3375         
       680  -56.416536      0.428006      -55.98853       0.029520714    367.91094      770.07728      3375         
       690  -56.540903      0.55088336    -55.99002       0.029520714    473.53546     -660.14817      3375         
       700  -56.341903      0.37081031    -55.971093      0.029520714    318.74594     -1107.0678      3375         
       710  -56.333833      0.35836592    -55.975467      0.029520714    308.04883      586.94928      3375         
       720  -56.331874      0.35707761    -55.974796      0.029520714    306.9414       753.66093      3375         
       730  -56.383648      0.40761762    -55.97603       0.029520714    350.38524      153.05075      3375         
       740  -56.320278      0.33254491    -55.987733      0.029520714    285.85327     -395.43001      3375         
       750  -56.392984      0.43208499    -55.960899      0.029520714    371.41722     -674.2612       3375         
       760  -56.408495      0.4323384     -55.976156      0.029520714    371.63504      350.87498      3375         
       770  -56.468999      0.48256076    -55.986439      0.029520714    414.80583      113.94164      3375         
       780  -56.339042      0.34703851    -55.992004      0.029520714    298.31186     -653.90069      3375         
       790  -56.36001       0.35810099    -56.001909      0.029520714    307.82109      558.43307      3375         
       800  -56.401323      0.38044584    -56.020878      0.029520714    327.02856      904.64068      3375         
       810  -56.527156      0.49679783    -56.030358      0.029520714    427.04392     -452.04284      3375         
       820  -56.391108      0.33678281    -56.054325      0.029520714    289.49614     -654.88627      3375         
       830  -56.419164      0.34076       -56.078404      0.029520714    292.9149      -109.9041       3375         
       840  -56.492249      0.38772668    -56.104522      0.029520714    333.28713      535.48588      3375         
       850  -56.462326      0.32229804    -56.140028      0.029520714    277.04513      144.31406      3375         
       860  -56.377214      0.21318064    -56.164033      0.029520714    183.24858     -874.90423      3375         
       870  -56.462673      0.29891598    -56.163757      0.029520714    256.94607      143.01565      3375         
       880  -56.516411      0.31566779    -56.200743      0.029520714    271.34581      926.44686      3375         
       890  -56.442134      0.22037525    -56.221759      0.029520714    189.43301     -72.959197      3375         
       900  -56.440212      0.20576467    -56.234447      0.029520714    176.87386     -785.45153      3375         
       910  -56.438987      0.19444819    -56.244538      0.029520714    167.14629     -159.78895      3375         
       920  -56.459385      0.20957482    -56.249811      0.029520714    180.14904      771.00904      3375         
       930  -56.502623      0.24538921    -56.257234      0.029520714    210.93484      424.51749      3375         
       940  -56.494273      0.23152064    -56.262752      0.029520714    199.01352     -426.7854       3375         
       950  -56.506923      0.24523105    -56.261692      0.029520714    210.79888     -146.59324      3375         
       960  -56.561766      0.2958514     -56.265915      0.029520714    254.31178      255.61538      3375         
       970  -56.509379      0.23487747    -56.274501      0.029520714    201.89902     -302.16975      3375         
       980  -56.465744      0.20824891    -56.257495      0.029520714    179.00929     -540.27777      3375         
       990  -56.579119      0.32332389    -56.255796      0.029520714    277.92694      266.31835      3375         
      1000  -56.534051      0.27884953    -56.255201      0.029520714    239.6971       872.54317      3375         
      1010  -56.473747      0.22341706    -56.25033       0.029520714    192.04773      136.07778      3375         
      1020  -56.546221      0.29824339    -56.247978      0.029520714    256.36792     -1007.4309      3375         
      1030  -56.573872      0.33933263    -56.23454       0.029520714    291.68794     -386.5192       3375         
      1040  -56.432018      0.20499019    -56.227028      0.029520714    176.20812      790.86944      3375         
      1050  -56.512374      0.29115182    -56.221223      0.029520714    250.27206      139.72546      3375         
      1060  -56.429805      0.21871997    -56.211085      0.029520714    188.01015     -410.81807      3375         
      1070  -56.479524      0.2796335     -56.199891      0.029520714    240.37099      129.97963      3375         
      1080  -56.517786      0.33188123    -56.185904      0.029520714    285.28277      481.19912      3375         
      1090  -56.496641      0.32019284    -56.176448      0.029520714    275.23552     -67.06945       3375         
      1100  -56.350432      0.18784126    -56.162591      0.029520714    161.46703     -835.94429      3375         
      1110  -56.531099      0.39922429    -56.131875      0.029520714    343.17039     -301.928        3375         
      1120  -56.482046      0.35663246    -56.125413      0.029520714    306.55875      845.20693      3375         
      1130  -56.389104      0.27427677    -56.114827      0.029520714    235.76638      68.062219      3375         
      1140  -56.421138      0.32624655    -56.094891      0.029520714    280.43924     -600.2876       3375         
      1150  -56.48421       0.39840152    -56.085809      0.029520714    342.46315      411.71931      3375         
      1160  -56.361829      0.28800419    -56.073824      0.029520714    247.56637      622.30875      3375         
      1170  -56.420334      0.35660704    -56.063727      0.029520714    306.5369      -269.39772      3375         
      1180  -56.475874      0.41707242    -56.058801      0.029520714    358.51251     -866.34726      3375         
      1190  -56.449534      0.40160958    -56.047924      0.029520714    345.22077     -549.30114      3375         
      1200  -56.541942      0.49816718    -56.043775      0.029520714    428.22101      808.51192      3375         
      1210  -56.434714      0.38277319    -56.051941      0.029520714    329.02914      850.89373      3375         
      1220  -56.309142      0.26509601    -56.044046      0.029520714    227.87467     -341.67453      3375         
      1230  -56.406856      0.37144276    -56.035413      0.029520714    319.28958     -189.99554      3375         
      1240  -56.527624      0.48250684    -56.045117      0.029520714    414.75948     -120.13425      3375         
      1250  -56.372202      0.33177142    -56.040431      0.029520714    285.18838     -586.15314      3375         
      1260  -56.372356      0.3269626     -56.045394      0.029520714    281.05475     -169.95626      3375         
      1270  -56.394576      0.34797609    -56.0466        0.029520714    299.1178       606.67989      3375         
      1280  -56.308012      0.26254381    -56.045468      0.029520714    225.68081      891.82736      3375         
      1290  -56.344143      0.29931397    -56.044829      0.029520714    257.28818     -105.30151      3375         
      1300  -56.478409      0.42973341    -56.048675      0.029520714    369.39581     -1140.3403      3375         
      1310  -56.420874      0.38498947    -56.035884      0.029520714    330.93424     -154.27924      3375         
      1320  -56.345921      0.30449993    -56.041421      0.029520714    261.74599      1140.6213      3375         
      1330  -56.4356        0.38516116    -56.050439      0.029520714    331.08182      526.76833      3375         
      1340  -56.363586      0.32667951    -56.036907      0.029520714    280.81141     -504.56976      3375         
      1350  -56.388618      0.35202146    -56.036597      0.029520714    302.59517     -653.06558      3375         
      1360  -56.474094      0.43572542    -56.038368      0.029520714    374.5465      -221.64415      3375         
      1370  -56.491317      0.45059115    -56.040726      0.029520714    387.32498      12.821259      3375         
      1380  -56.442841      0.39672141    -56.046119      0.029520714    341.01893     -128.58491      3375         
      1390  -56.50846       0.45743641    -56.051024      0.029520714    393.20912      258.08772      3375         
      1400  -56.305879      0.25043638    -56.055442      0.029520714    215.27335      787.39817      3375         
      1410  -56.369658      0.3072625     -56.062396      0.029520714    264.12068      56.996523      3375         
      1420  -56.496366      0.43085665    -56.06551       0.029520714    370.36135     -350.41484      3375         
      1430  -56.488147      0.41404675    -56.074101      0.029520714    355.91167     -5.5043779      3375         
      1440  -56.361352      0.27418688    -56.087165      0.029520714    235.68911     -135.61632      3375         
      1450  -56.436385      0.34003821    -56.096347      0.029520714    292.29445     -595.30863      3375         
      1460  -56.421272      0.32509506    -56.096177      0.029520714    279.44942     -415.35771      3375         
      1470  -56.37283       0.27045206    -56.102378      0.029520714    232.47868      623.29049      3375         
      1480  -56.414085      0.29623063    -56.117855      0.029520714    254.63776      996.27307      3375         
      1490  -56.473537      0.34391356    -56.129623      0.029520714    295.62568     -73.944311      3375         
      1500  -56.442118      0.3049311     -56.137187      0.029520714    262.11663     -745.96142      3375         
      1510  -56.421886      0.27253547    -56.149351      0.029520714    234.26957     -271.94901      3375         
      1520  -56.47938       0.31882444    -56.160555      0.029520714    274.05925     -0.94035739     3375         
      1530  -56.428314      0.25464188    -56.173673      0.029520714    218.88837      211.37358      3375         
      1540  -56.498137      0.31019985    -56.187937      0.029520714    266.64561      327.17315      3375         
      1550  -56.512471      0.30835796    -56.204113      0.029520714    265.06233      171.11156      3375         
      1560  -56.513862      0.29451494    -56.219347      0.029520714    253.16297     -58.806405      3375         
      1570  -56.49388       0.25378457    -56.240096      0.029520714    218.15143     -580.34345      3375         
      1580  -56.510884      0.27310673    -56.237777      0.029520714    234.76062     -512.57229      3375         
      1590  -56.485757      0.22868808    -56.257069      0.029520714    196.57867      541.44073      3375         
      1600  -56.549583      0.27473703    -56.274845      0.029520714    236.16202      670.33713      3375         
      1610  -56.5924        0.30608186    -56.286318      0.029520714    263.10581     -130.9288       3375         
      1620  -56.520186      0.22237247    -56.297814      0.029520714    191.14981     -407.81122      3375         
      1630  -56.477618      0.16942416    -56.308193      0.029520714    145.63582     -180.97138      3375         
      1640  -56.484466      0.1711337     -56.313332      0.029520714    147.10533      197.26554      3375         
      1650  -56.507293      0.19104245    -56.316251      0.029520714    164.21874      120.82606      3375         
      1660  -56.556982      0.23347315    -56.323509      0.029520714    200.69188     -206.10616      3375         
      1670  -56.548585      0.22652082    -56.322064      0.029520714    194.7157       86.660698      3375         
      1680  -56.461885      0.13656766    -56.325317      0.029520714    117.3926       398.98653      3375         
      1690  -56.519935      0.19618868    -56.323747      0.029520714    168.64241      126.39397      3375         
      1700  -56.542286      0.22549766    -56.316789      0.029520714    193.8362      -132.13081      3375         
      1710  -56.517536      0.20095436    -56.316581      0.029520714    172.73896     -342.83371      3375         
      1720  -56.482832      0.1783653     -56.304467      0.029520714    153.32156     -204.41841      3375         
      1730  -56.582623      0.29307489    -56.289549      0.029520714    251.92512     -57.677221      3375         
      1740  -56.543384      0.26727899    -56.276105      0.029520714    229.75114     -58.623258      3375         
      1750  -56.52266       0.26925423    -56.253406      0.029520714    231.44904      597.82351      3375         
      1760  -56.515531      0.2848855     -56.230645      0.029520714    244.88557      755.7704       3375         
      1770  -56.487109      0.27748231    -56.209626      0.029520714    238.52184     -490.03296      3375         
      1780  -56.429004      0.24752565    -56.181478      0.029520714    212.77131     -889.84709      3375         
      1790  -56.502824      0.34762987    -56.155194      0.029520714    298.82019     -365.07542      3375         
      1800  -56.505153      0.3784568     -56.126696      0.029520714    325.31881      250.55323      3375         
      1810  -56.403789      0.3018882     -56.101901      0.029520714    259.50098      1063.1541      3375         
      1820  -56.464311      0.37936548    -56.084946      0.029520714    326.0999       337.59904      3375         
      1830  -56.401684      0.32965131    -56.072033      0.029520714    283.36595     -785.92412      3375         
      1840  -56.32246       0.27408221    -56.048378      0.029520714    235.59914     -274.63913      3375         
      1850  -56.405237      0.36538403    -56.039853      0.029520714    314.08154     -194.81851      3375         
      1860  -56.492379      0.46279143    -56.029588      0.029520714    397.81225     -265.26296      3375         
      1870  -56.367376      0.34613822    -56.021237      0.029520714    297.53798      543.76581      3375         
      1880  -56.408381      0.39211975    -56.016261      0.029520714    337.06338      332.96051      3375         
      1890  -56.39524       0.38251388    -56.012726      0.029520714    328.80624      55.099798      3375         
      1900  -56.316574      0.30543631    -56.011138      0.029520714    262.5509      -131.62554      3375         
      1910  -56.314173      0.31268912    -56.001484      0.029520714    268.78537     -610.48606      3375         
      1920  -56.567826      0.56771674    -56.000109      0.029520714    488.00531      96.083584      3375         
      1930  -56.428238      0.42668635    -56.001551      0.029520714    366.77658      733.11297      3375         
      1940  -56.324424      0.31910797    -56.005316      0.029520714    274.30296     -392.09136      3375         
      1950  -56.401547      0.39967794    -56.001869      0.029520714    343.56034     -548.01371      3375         
      1960  -56.48109       0.47593991    -56.00515       0.029520714    409.1146       477.11558      3375         
      1970  -56.375835      0.36747773    -56.008357      0.029520714    315.88127      393.5606       3375         
      1980  -56.441801      0.42388412    -56.017917      0.029520714    364.36781     -409.91459      3375         
      1990  -56.445912      0.42064878    -56.025263      0.029520714    361.58674     -583.9995       3375         
      2000  -56.343483      0.31083557    -56.032647      0.029520714    267.19207     -47.804553      3375         
      2010  -56.403795      0.36294254    -56.040852      0.029520714    311.98285      801.52007      3375         
      2020  -56.363371      0.31372567    -56.049645      0.029520714    269.67638      715.80994      3375         
      2030  -56.370336      0.31381754    -56.056518      0.029520714    269.75535     -396.48236      3375         
      2040  -56.442053      0.37441226    -56.06764       0.029520714    321.84215     -623.4728       3375         
      2050  -56.446872      0.37267835    -56.074193      0.029520714    320.35169     -59.741791      3375         
      2060  -56.322825      0.24165321    -56.081172      0.029520714    207.7234      -282.38587      3375         
      2070  -56.389712      0.29612573    -56.093587      0.029520714    254.54759      50.130691      3375         
      2080  -56.400029      0.30916242    -56.090866      0.029520714    265.75384      1241.6075      3375         
      2090  -56.431961      0.32965627    -56.102305      0.029520714    283.37021      566.14455      3375         
      2100  -56.45236       0.3343321     -56.118028      0.029520714    287.38952     -1121.1775      3375         
      2110  -56.478746      0.36689651    -56.11185       0.029520714    315.38166     -1108.6271      3375         
      2120  -56.473654      0.34199651    -56.131658      0.029520714    293.97779     -185.28883      3375         
      2130  -56.449952      0.30990519    -56.140047      0.029520714    266.39232      845.52402      3375         
      2140  -56.460867      0.31028678    -56.15058       0.029520714    266.72034      878.65419      3375         
      2150  -56.444087      0.28378532    -56.160302      0.029520714    243.93986     -222.50392      3375         
      2160  -56.551553      0.3787667     -56.172787      0.029520714    325.58519     -115.76263      3375         
      2170  -56.473689      0.28993616    -56.183752      0.029520714    249.22708      594.03886      3375         
      2180  -56.470839      0.27003669    -56.200802      0.029520714    232.12164     -755.58202      3375         
      2190  -56.416811      0.20237765    -56.214433      0.029520714    173.96241     -1111.1526      3375         
      2200  -56.509832      0.30066627    -56.209165      0.029520714    258.45061      447.13445      3375         
      2210  -56.494486      0.26451463    -56.229971      0.029520714    227.37492      619.96918      3375         
      2220  -56.543216      0.30137976    -56.241836      0.029520714    259.06392      24.473022      3375         
      2230  -56.441707      0.19104439    -56.250663      0.029520714    164.22042      83.848529      3375         
      2240  -56.493099      0.23141668    -56.261682      0.029520714    198.92415     -137.17122      3375         
      2250  -56.463461      0.19277392    -56.270687      0.029520714    165.7071       314.91493      3375         
      2260  -56.476         0.19923761    -56.276762      0.029520714    171.26324     -248.51474      3375         
      2270  -56.499594      0.22100429    -56.27859       0.029520714    189.97373     -1086.0465      3375         
      2280  -56.565935      0.28126664    -56.284668      0.029520714    241.77483      614.98455      3375         
      2290  -56.491458      0.20222829    -56.28923       0.029520714    173.83402      1314.6112      3375         
      2300  -56.514768      0.21405074    -56.300717      0.029520714    183.99651     -344.16583      3375         
      2310  -56.509416      0.21231288    -56.297103      0.029520714    182.50266     -890.65282      3375         
      2320  -56.465855      0.1793793     -56.286476      0.029520714    154.19318     -419.48822      3375         
      2330  -56.482847      0.19837314    -56.284474      0.029520714    170.52016      275.8404       3375         
      2340  -56.564825      0.28203782    -56.282787      0.029520714    242.43772      651.41181      3375         
      2350  -56.503068      0.22773249    -56.275335      0.029520714    195.75725     -225.54508      3375         
      2360  -56.458706      0.19316637    -56.26554       0.029520714    166.04445      104.9131       3375         
      2370  -56.457827      0.20370867    -56.254118      0.029520714    175.10654      795.63599      3375         
      2380  -56.530966      0.2922159     -56.23875       0.029520714    251.18673     -1001.9308      3375         
      2390  -56.510524      0.30447875    -56.206045      0.029520714    261.72779     -1325.3765      3375         
      2400  -56.51308       0.33188875    -56.181191      0.029520714    285.28923      650.70768      3375         
      2410  -56.431974      0.27716798    -56.154806      0.029520714    238.25165      1354.2212      3375         
      2420  -56.399687      0.26058194    -56.139105      0.029520714    223.9944       482.11171      3375         
      2430  -56.433181      0.31366421    -56.119517      0.029520714    269.62355     -750.47661      3375         
      2440  -56.521968      0.45746819    -56.0645        0.029520714    393.23644     -696.86912      3375         
      2450  -56.381973      0.3240277     -56.057945      0.029520714    278.53193      367.17311      3375         
      2460  -56.420282      0.37881312    -56.041469      0.029520714    325.62509     -281.26297      3375         
      2470  -56.445131      0.4253781     -56.019753      0.029520714    365.65202     -1234.7573      3375         
      2480  -56.405581      0.39671343    -56.008867      0.029520714    341.01207      551.17525      3375         
      2490  -56.218763      0.21763914    -56.001124      0.029520714    187.08107      1945.4975      3375         
      2500  -56.437933      0.44791018    -55.990023      0.029520714    385.02043      388.06082      3375         
      2510  -56.427248      0.44360338    -55.983645      0.029520714    381.31835     -779.25866      3375         
      2520  -56.282234      0.30911516    -55.973118      0.029520714    265.71322     -745.62885      3375         
      2530  -56.280229      0.31105527    -55.969174      0.029520714    267.38092     -205.37207      3375         
      2540  -56.441948      0.46890925    -55.973039      0.029520714    403.07109     -11.429167      3375         
      2550  -56.257934      0.30163586    -55.956298      0.029520714    259.28406     -355.18457      3375         
      2560  -56.403518      0.45182812    -55.95169       0.029520714    388.38827      523.11815      3375         
      2570  -56.497945      0.54501055    -55.952934      0.029520714    468.48723      1084.961       3375         
      2580  -56.323276      0.3667579     -55.956518      0.029520714    315.26251     -168.84042      3375         
      2590  -56.227791      0.27037159    -55.95742       0.029520714    232.40952     -1354.5073      3375         
      2600  -56.422265      0.46179378    -55.960471      0.029520714    396.95469     -350.57285      3375         
      2610  -56.398621      0.44552154    -55.953099      0.029520714    382.96718      1481.0938      3375         
      2620  -56.401909      0.43699627    -55.964912      0.029520714    375.63892      672.54518      3375         
      2630  -56.414913      0.43937639    -55.975536      0.029520714    377.68485     -719.13828      3375         
      2640  -56.398558      0.41722895    -55.981329      0.029520714    358.64707     -515.72007      3375         
      2650  -56.359751      0.36447794    -55.995273      0.029520714    313.30268     -160.21029      3375         
      2660  -56.407305      0.38916691    -56.018138      0.029520714    334.52513     -163.75251      3375         
      2670  -56.384972      0.37458581    -56.010386      0.029520714    321.99133     -260.46968      3375         
      2680  -56.404923      0.37109729    -56.033826      0.029520714    318.99262      178.79602      3375         
      2690  -56.371319      0.32126131    -56.050058      0.029520714    276.15396      1300.0218      3375         
      2700  -56.434774      0.36717867    -56.067596      0.029520714    315.6242       509.7014       3375         
      2710  -56.411593      0.31735447    -56.094239      0.029520714    272.79567     -1412.5641      3375         
      2720  -56.366833      0.27398026    -56.092852      0.029520714    235.5115      -641.84384      3375         
      2730  -56.419299      0.30715856    -56.11214       0.029520714    264.03134      657.44144      3375         
      2740  -56.528741      0.3919231     -56.136818      0.029520714    336.89434     -68.616474      3375         
      2750  -56.446096      0.29299984    -56.153096      0.029520714    251.8606      -367.16114      3375         
      2760  -56.393648      0.230428      -56.16322       0.029520714    198.07429      205.82783      3375         
      2770  -56.37964       0.20225429    -56.177386      0.029520714    173.85637      831.05157      3375         
      2780  -56.50996       0.31967784    -56.190282      0.029520714    274.79282      736.9866       3375         
      2790  -56.497115      0.2933808     -56.203734      0.029520714    252.18808     -986.77175      3375         
      2800  -56.449067      0.24205359    -56.207013      0.029520714    208.06757     -1318.9535      3375         
      2810  -56.45813       0.23733251    -56.220798      0.029520714    204.00936      441.62037      3375         
      2820  -56.51116       0.28152741    -56.229633      0.029520714    241.99898      481.90015      3375         
      2830  -56.459408      0.22384632    -56.235561      0.029520714    192.41672      11.673071      3375         
      2840  -56.454605      0.21468048    -56.239925      0.029520714    184.53783      615.26172      3375         
      2850  -56.504437      0.25959603    -56.244841      0.029520714    223.14692      120.32507      3375         
      2860  -56.502745      0.25723659    -56.245508      0.029520714    221.11876     -473.78011      3375         
      2870  -56.49354       0.24238332    -56.251157      0.029520714    208.35099     -728.57131      3375         
      2880  -56.490128      0.24351881    -56.246609      0.029520714    209.32705     -614.65018      3375         
      2890  -56.472748      0.2225687     -56.250179      0.029520714    191.31849      1233.8808      3375         
      2900  -56.490817      0.24245451    -56.248362      0.029520714    208.41219      1249.8441      3375         
      2910  -56.50612       0.26268835    -56.243432      0.029520714    225.80506     -1022.8541      3375         
      2920  -56.501176      0.27109144    -56.230084      0.029520714    233.02829     -952.09664      3375         
      2930  -56.52729       0.30654905    -56.220741      0.029520714    263.50741      43.766365      3375         
      2940  -56.495043      0.29345248    -56.20159       0.029520714    252.24968      207.86168      3375         
      2950  -56.426405      0.24519835    -56.181206      0.029520714    210.77078      493.33416      3375         
      2960  -56.449677      0.28814063    -56.161536      0.029520714    247.68366      329.67279      3375         
      2970  -56.469036      0.3474847     -56.121551      0.029520714    298.6954       317.99532      3375         
      2980  -56.447247      0.35635703    -56.09089       0.029520714    306.322       -50.414957      3375         
      2990  -56.453317      0.39319365    -56.060123      0.029520714    337.9865      -1407.8907      3375         
      3000  -56.407534      0.39174703    -56.015787      0.029520714    336.74299     -932.3046       3375         
      3010  -56.313384      0.31763066    -55.995753      0.029520714    273.03308      1377.2246      3375         
      3020  -56.309271      0.33352883    -55.975742      0.029520714    286.69904      1245.0672      3375         
      3030  -56.339999      0.38826754    -55.951732      0.029520714    333.75204     -470.4084       3375         
      3040  -56.301288      0.36685722    -55.93443       0.029520714    315.34788     -720.19205      3375         
      3050  -56.386623      0.47150482    -55.915118      0.029520714    405.30223      154.35835      3375         
      3060  -56.340021      0.44127677    -55.898745      0.029520714    379.31841      494.34863      3375         
      3070  -56.228355      0.32149484    -55.906861      0.029520714    276.3547      -365.13575      3375         
      3080  -56.29934       0.43235196    -55.866988      0.029520714    371.64671     -884.86784      3375         
      3090  -56.437864      0.56973052    -55.868133      0.029520714    489.73634      454.12754      3375         
      3100  -56.256701      0.38962865    -55.867073      0.029520714    334.92205      1204.6043      3375         
      3110  -56.338138      0.47256228    -55.865576      0.029520714    406.21121      168.97322      3375         
      3120  -56.448354      0.57489325    -55.873461      0.029520714    494.17419     -845.6188       3375         
      3130  -56.280526      0.40381945    -55.876707      0.029520714    347.12036     -282.10621      3375         
      3140  -56.235531      0.36223357    -55.873297      0.029520714    311.37342      18.646016      3375         
      3150  -56.427074      0.53204285    -55.895031      0.029520714    457.34029     -381.80229      3375         
      3160  -56.293093      0.38601086    -55.907082      0.029520714    331.81222      19.992731      3375         
      3170  -56.335124      0.41215198    -55.922972      0.029520714    354.28294      687.59678      3375         
      3180  -56.50648       0.55264297    -55.953837      0.029520714    475.04801      560.72969      3375         
      3190  -56.347571      0.37434194    -55.973229      0.029520714    321.7817      -217.13388      3375         
      3200  -56.278836      0.29881926    -55.980017      0.029520714    256.86293     -811.37037      3375         
      3210  -56.430786      0.42367033    -56.007116      0.029520714    364.18403     -513.6378       3375         
      3220  -56.32598       0.29799864    -56.027981      0.029520714    256.15753      872.86151      3375         
      3230  -56.26949       0.227731      -56.041759      0.029520714    195.75596      659.78246      3375         
      3240  -56.435762      0.36503908    -56.070723      0.029520714    313.78503     -672.16512      3375         
      3250  -56.527292      0.46364825    -56.063644      0.029520714    398.54877     -337.52256      3375         
      3260  -56.47814       0.38589744    -56.092242      0.029520714    331.71472      83.282454      3375         
      3270  -56.364786      0.25543211    -56.109353      0.029520714    219.56765      45.486099      3375         
      3280  -56.379565      0.25980886    -56.119756      0.029520714    223.32987      79.913384      3375         
      3290  -56.43775       0.30423084    -56.13352       0.029520714    261.51469     -218.05754      3375         
      3300  -56.397545      0.26420481    -56.13334       0.029520714    227.1086       370.89467      3375         
      3310  -56.445564      0.30462128    -56.140943      0.029520714    261.85031      628.6117       3375         
      3320  -56.494633      0.34550411    -56.149129      0.029520714    296.9929      -494.14322      3375         
      3330  -56.418927      0.27074955    -56.148177      0.029520714    232.73441     -429.8383       3375         
      3340  -56.433876      0.27807126    -56.155805      0.029520714    239.02809     -27.137306      3375         
      3350  -56.48785       0.31792529    -56.169924      0.029520714    273.28634     -390.93204      3375         
      3360  -56.402287      0.25472596    -56.147561      0.029520714    218.96064      200.77142      3375         
      3370  -56.404367      0.24939118    -56.154975      0.029520714    214.37491      548.59256      3375         
      3380  -56.408368      0.25670563    -56.151663      0.029520714    220.66235      348.1749       3375         
      3390  -56.412422      0.25699168    -56.15543       0.029520714    220.90824      387.15427      3375         
      3400  -56.496766      0.34726232    -56.149503      0.029520714    298.50425     -744.18291      3375         
      3410  -56.407782      0.26425262    -56.14353       0.029520714    227.14969     -1122.8381      3375         
      3420  -56.380575      0.24810655    -56.132468      0.029520714    213.27064      288.31807      3375         
      3430  -56.556928      0.42761707    -56.129311      0.029520714    367.57663      538.86508      3375         
      3440  -56.435769      0.32075386    -56.115015      0.029520714    275.71776      534.20237      3375         
      3450  -56.292068      0.18302994    -56.109039      0.029520714    157.33125      340.63824      3375         
      3460  -56.437419      0.3265755     -56.110844      0.029520714    280.722       -496.63546      3375         
      3470  -56.431079      0.35476134    -56.076318      0.029520714    304.95035     -379.75974      3375         
      3480  -56.365335      0.30736194    -56.057973      0.029520714    264.20616     -238.37379      3375         
      3490  -56.528305      0.49986764    -56.028438      0.029520714    429.68271     -266.96063      3375         
      3500  -56.423451      0.41279047    -56.01066       0.029520714    354.83178      746.4695       3375         
      3510  -56.258344      0.28756407    -55.97078       0.029520714    247.18805      428.78835      3375         
      3520  -56.406618      0.45895252    -55.947666      0.029520714    394.51236     -843.72308      3375         
      3530  -56.344824      0.44377488    -55.901049      0.029520714    381.46577     -88.973976      3375         
      3540  -56.281207      0.41904446    -55.862162      0.029520714    360.20767      538.16136      3375         
      3550  -56.456636      0.64298135    -55.813654      0.029520714    552.70224      218.1474       3375         
      3560  -56.355767      0.58525969    -55.770507      0.029520714    503.08511     -225.25827      3375         
      3570  -56.093883      0.34495903    -55.748924      0.029520714    296.52435     -790.12334      3375         
      3580  -56.216876      0.49889542    -55.71798       0.029520714    428.847        427.41856      3375         
      3590  -56.277817      0.56891147    -55.708906      0.029520714    489.0323       1379.2145      3375         
      3600  -56.282499      0.58776236    -55.694737      0.029520714    505.23638     -586.86308      3375         
      3610  -56.252453      0.57971605    -55.672737      0.029520714    498.31983     -1329.2987      3375         
      3620  -56.299586      0.61198805    -55.687598      0.029520714    526.06062     -298.84681      3375         
      3630  -56.129754      0.43754033    -55.692213      0.029520714    376.10659      395.83937      3375         
      3640  -56.101401      0.39904486    -55.702356      0.029520714    343.01616      920.14603      3375         
      3650  -56.26813       0.54879808    -55.719332      0.029520714    471.74296      758.55532      3375         
      3660  -56.38019       0.65924348    -55.720947      0.029520714    566.68105      235.70774      3375         
      3670  -56.271484      0.52521188    -55.746272      0.029520714    451.46844     -377.22137      3375         
      3680  -56.295092      0.51609602    -55.778996      0.029520714    443.63251     -1382.6612      3375         
      3690  -56.376806      0.5934892     -55.783317      0.029520714    510.15914     -1162.9285      3375         
      3700  -56.278396      0.46596473    -55.812431      0.029520714    400.54         816.62927      3375         
      3710  -56.250757      0.41201917    -55.838738      0.029520714    354.16878      1800.7403      3375         
      3720  -56.404042      0.55492084    -55.849121      0.029520714    477.00605      641.60336      3375         
      3730  -56.367802      0.48965912    -55.878143      0.029520714    420.90753     -1108.6479      3375         
      3740  -56.274695      0.39084417    -55.883851      0.029520714    335.9669      -1092.7507      3375         
      3750  -56.439864      0.52595955    -55.913904      0.029520714    452.11113     -87.151684      3375         
      3760  -56.400733      0.46692963    -55.933803      0.029520714    401.36942      464.68997      3375         
      3770  -56.246672      0.29861767    -55.948054      0.029520714    256.68965      456.82654      3375         
      3780  -56.314817      0.35298262    -55.961834      0.029520714    303.42137      99.183524      3375         
      3790  -56.46996       0.48696811    -55.982992      0.029520714    418.59436     -223.92411      3375         
      3800  -56.427915      0.43551499    -55.9924        0.029520714    374.36562      127.06773      3375         
      3810  -56.295643      0.2845429     -56.0111        0.029520714    244.59107     -243.43007      3375         
      3820  -56.401877      0.36289979    -56.038977      0.029520714    311.9461      -514.01674      3375         
      3830  -56.438629      0.414444      -56.024185      0.029520714    356.25314      647.16796      3375         
      3840  -56.383021      0.33281177    -56.05021       0.029520714    286.08266      239.45903      3375         
      3850  -56.332561      0.27100589    -56.061556      0.029520714    232.95476     -611.84266      3375         
      3860  -56.492039      0.42012621    -56.071913      0.029520714    361.13753      325.7847       3375         
      3870  -56.494998      0.41286148    -56.082136      0.029520714    354.89282      44.431153      3375         
      3880  -56.390726      0.2852933     -56.105433      0.029520714    245.23612     -352.6287       3375         
      3890  -56.374853      0.27655544    -56.098297      0.029520714    237.72511      21.524335      3375         
      3900  -56.486259      0.37046871    -56.11579       0.029520714    318.4523      -401.56242      3375         
      3910  -56.398914      0.27767988    -56.121234      0.029520714    238.69167      602.26866      3375         
      3920  -56.41071       0.27950443    -56.131205      0.029520714    240.26004      981.39852      3375         
      3930  -56.548363      0.39879654    -56.149567      0.029520714    342.8027      -675.67642      3375         
      3940  -56.50359       0.35607299    -56.147517      0.029520714    306.07783     -467.03867      3375         
      3950  -56.446836      0.29306574    -56.15377       0.029520714    251.91725      52.745772      3375         
      3960  -56.462486      0.29661346    -56.165872      0.029520714    254.96684     -777.34611      3375         
      3970  -56.427955      0.2587623     -56.169193      0.029520714    222.43025      381.52066      3375         
      3980  -56.390434      0.21690107    -56.173533      0.029520714    186.44663      912.49702      3375         
      3990  -56.492086      0.30994907    -56.182137      0.029520714    266.43004     -4.1046791      3375         
      4000  -56.513957      0.33297227    -56.180984      0.029520714    286.22062      182.48318      3375         
      4010  -56.465617      0.28135326    -56.184264      0.029520714    241.84928     -695.77096      3375         
      4020  -56.412934      0.23388005    -56.179054      0.029520714    201.04164     -860.24044      3375         
      4030  -56.431332      0.24486577    -56.186467      0.029520714    210.48489      915.11782      3375         
      4040  -56.468028      0.28601998    -56.182008      0.029520714    245.86076      484.55921      3375         
      4050  -56.476979      0.29713296    -56.179846      0.029520714    255.4134      -394.14397      3375         
      4060  -56.461648      0.28813915    -56.173509      0.029520714    247.68239      567.96247      3375         
      4070  -56.50156       0.33845306    -56.163107      0.029520714    290.93187     -165.60456      3375         
      4080  -56.48451       0.33588017    -56.14863       0.029520714    288.72023     -668.85436      3375         
      4090  -56.436239      0.2947031     -56.141536      0.029520714    253.32471      101.22455      3375         
      4100  -56.453733      0.32676457    -56.126968      0.029520714    280.88453     -409.5678       3375         
      4110  -56.471119      0.36540525    -56.105714      0.029520714    314.09978      203.25437      3375         
      4120  -56.443696      0.35390308    -56.089793      0.029520714    304.2126       1008.7345      3375         
      4130  -56.420331      0.36772712    -56.052604      0.029520714    316.09564     -400.64484      3375         
      4140  -56.426776      0.39729233    -56.029484      0.029520714    341.50969     -209.17815      3375         
      4150  -56.377979      0.37634893    -56.00163       0.029520714    323.50689      365.23199      3375         
      4160  -56.433256      0.46667695    -55.966579      0.029520714    401.15222     -750.13583      3375         
      4170  -56.308002      0.36629282    -55.94171       0.029520714    314.86273     -335.29588      3375         
      4180  -56.249204      0.33086166    -55.918343      0.029520714    284.40635      498.89389      3375         
      4190  -56.324611      0.44035995    -55.884251      0.029520714    378.53031      548.86493      3375         
      4200  -56.463381      0.59792049    -55.86546       0.029520714    513.96825      368.15309      3375         
      4210  -56.307811      0.45291083    -55.8549        0.029520714    389.31896     -534.91217      3375         
      4220  -56.270673      0.44653153    -55.824141      0.029520714    383.83536     -1302.3393      3375         
      4230  -56.329915      0.49989231    -55.830023      0.029520714    429.70392      84.791513      3375         
      4240  -56.224161      0.41006369    -55.814098      0.029520714    352.48787      1018.1761      3375         
      4250  -56.213044      0.38879828    -55.824246      0.029520714    334.20826      532.67455      3375         
      4260  -56.479799      0.66122109    -55.818578      0.029520714    568.381        213.85562      3375         
      4270  -56.4037        0.57493729    -55.828763      0.029520714    494.21205     -96.570433      3375         
      4280  -56.215793      0.37344929    -55.842344      0.029520714    321.01439     -1032.9764      3375         
      4290  -56.513882      0.63853069    -55.875351      0.029520714    548.87648     -1054.5416      3375         
      4300  -56.380391      0.52110194    -55.859289      0.029520714    447.93556      430.2021       3375         
      4310  -56.180118      0.27830645    -55.901811      0.029520714    239.23027      1035.1847      3375         
      4320  -56.345324      0.42210522    -55.923218      0.029520714    362.83867      688.67321      3375         
      4330  -56.499795      0.56845841    -55.931337      0.029520714    488.64285     -9.5223793      3375         
      4340  -56.365973      0.40461709    -55.961356      0.029520714    347.806       -901.36741      3375         
      4350  -56.398765      0.41044748    -55.988318      0.029520714    352.81777     -445.07703      3375         
      4360  -56.333404      0.34014981    -55.993254      0.029520714    292.39038      365.63716      3375         
      4370  -56.305191      0.2940669     -56.011124      0.029520714    252.77784     -245.14644      3375         
      4380  -56.30348       0.28049947    -56.022981      0.029520714    241.11537      179.08579      3375         
      4390  -56.376855      0.34700818    -56.029846      0.029520714    298.28579      665.5148       3375         
      4400  -56.498203      0.45476378    -56.043439      0.029520714    390.91175     -184.32784      3375         
      4410  -56.480696      0.43091799    -56.049778      0.029520714    370.41407      166.79587      3375         
      4420  -56.310117      0.25239816    -56.057718      0.029520714    216.95968      177.60294      3375         
      4430  -56.383514      0.31451       -56.069004      0.029520714    270.35058     -806.74299      3375         
      4440  -56.444447      0.37874725    -56.065699      0.029520714    325.56848     -106.96281      3375         
      4450  -56.374349      0.30171186    -56.072637      0.029520714    259.34939      318.24841      3375         
      4460  -56.503412      0.42073974    -56.082672      0.029520714    361.66492     -252.74144      3375         
      4470  -56.527795      0.44863684    -56.079158      0.029520714    385.64507      718.39039      3375         
      4480  -56.422557      0.33158995    -56.090967      0.029520714    285.03239      390.86056      3375         
      4490  -56.364355      0.27312821    -56.091227      0.029520714    234.77909     -748.86249      3375         
      4500  -56.440894      0.34721239    -56.093681      0.029520714    298.46133     -343.20822      3375         
      4510  -56.413937      0.31301458    -56.100923      0.029520714    269.06513     -429.49082      3375         
      4520  -56.404588      0.30900607    -56.095582      0.029520714    265.61944      126.46239      3375         
      4530  -56.425394      0.32495063    -56.100443      0.029520714    279.32528      1364.6627      3375         
      4540  -56.48555       0.37578182    -56.109769      0.029520714    323.0194       48.093836      3375         
      4550  -56.48024       0.38549738    -56.094743      0.029520714    331.37083     -771.60226      3375         
      4560  -56.411052      0.30779243    -56.10326       0.029520714    264.57621     -155.12272      3375         
      4570  -56.364092      0.25472078    -56.109372      0.029520714    218.95619     -650.60227      3375         
      4580  -56.390625      0.29461599    -56.096009      0.029520714    253.24983      35.34095       3375         
      4590  -56.408375      0.30613349    -56.102241      0.029520714    263.15019      1056.5024      3375         
      4600  -56.425221      0.32812419    -56.097097      0.029520714    282.05325      215.47302      3375         
      4610  -56.49788       0.40795494    -56.089925      0.029520714    350.6752      -11.187358      3375         
      4620  -56.472922      0.37727898    -56.095643      0.029520714    324.30635     -703.82859      3375         
      4630  -56.35596       0.2744059     -56.081554      0.029520714    235.87738     -935.98253      3375         
      4640  -56.372293      0.28737795    -56.084915      0.029520714    247.02807      724.68647      3375         
      4650  -56.491322      0.40457272    -56.086749      0.029520714    347.76786      623.41091      3375         
      4660  -56.442216      0.37197984    -56.070236      0.029520714    319.75126     -75.71188       3375         
      4670  -56.422381      0.35090234    -56.071479      0.029520714    301.63318      336.91766      3375         
      4680  -56.482988      0.40887158    -56.074117      0.029520714    351.46313     -456.96459      3375         
      4690  -56.458657      0.39979962    -56.058858      0.029520714    343.66494     -536.48688      3375         
      4700  -56.348356      0.28589596    -56.06246       0.029520714    245.75416      215.4833       3375         
      4710  -56.375233      0.31272046    -56.062513      0.029520714    268.8123      -190.75603      3375         
      4720  -56.369249      0.32635884    -56.04289       0.029520714    280.53576      195.64839      3375         
      4730  -56.4094        0.36562075    -56.043779      0.029520714    314.28503      425.213        3375         
      4740  -56.462447      0.43108674    -56.03136       0.029520714    370.55913     -143.5432       3375         
      4750  -56.355739      0.33715385    -56.018585      0.029520714    289.81507      403.37839      3375         
      4760  -56.374554      0.36422903    -56.010325      0.029520714    313.08871      93.785141      3375         
      4770  -56.321145      0.32839582    -55.99275       0.029520714    282.28673     -748.11695      3375         
      4780  -56.229029      0.25222603    -55.976803      0.029520714    216.81172     -168.90714      3375         
      4790  -56.426791      0.47056782    -55.956224      0.029520714    404.49679     -96.986862      3375         
      4800  -56.561898      0.6391451     -55.922753      0.029520714    549.40463      234.94443      3375         
      4810  -56.361643      0.46418656    -55.897456      0.029520714    399.0115       1182.0358      3375         
      4820  -56.232542      0.34714582    -55.885396      0.029520714    298.40411      208.115        3375         
      4830  -56.379896      0.53125442    -55.848641      0.029520714    456.66256     -1070.6109      3375         
      4840  -56.312174      0.47041561    -55.841759      0.029520714    404.36595     -763.01676      3375         
      4850  -56.190629      0.36874175    -55.821887      0.029520714    316.96781     -122.63802      3375         
      4860  -56.419955      0.60607244    -55.813883      0.029520714    520.9756       598.79845      3375         
      4870  -56.477866      0.66933296    -55.808533      0.029520714    575.3539       622.17557      3375         
      4880  -56.237956      0.43965348    -55.798302      0.029520714    377.92304      47.138954      3375         
      4890  -56.237428      0.43225918    -55.805169      0.029520714    371.56695      197.0239       3375         
      4900  -56.401148      0.57746911    -55.823679      0.029520714    496.38838     -423.1334       3375         
      4910  -56.262992      0.44325531    -55.819737      0.029520714    381.01915     -909.79232      3375         
      4920  -56.211925      0.36923299    -55.842692      0.029520714    317.39008      6.9997727      3375         
      4930  -56.369347      0.49750841    -55.871839      0.029520714    427.65473      583.99606      3375         
      4940  -56.409086      0.52932377    -55.879762      0.029520714    455.00299      318.8577       3375         
      4950  -56.368197      0.4504022     -55.917794      0.029520714    387.16257     -87.97328       3375         
      4960  -56.382016      0.43432019    -55.947696      0.029520714    373.33858     -124.36167      3375         
      4970  -56.3631        0.38097726    -55.982123      0.029520714    327.48537      54.358832      3375         
      4980  -56.392169      0.38400943    -56.008159      0.029520714    330.0918      -248.617        3375         
      4990  -56.428349      0.39603679    -56.032312      0.029520714    340.43044     -258.27532      3375         
      5000  -56.456883      0.39388478    -56.062999      0.029520714    338.58058      120.3381       3375         
      5010  -56.513634      0.42222912    -56.091405      0.029520714    362.94518      244.95867      3375         
      5020  -56.471743      0.36478341    -56.10696       0.029520714    313.56525      400.36033      3375         
      5030  -56.404096      0.27666605    -56.12743       0.029520714    237.82019     -179.87466      3375         
      5040  -56.429597      0.27616893    -56.153428      0.029520714    237.39287     -686.19601      3375         
      5050  -56.449404      0.31211852    -56.137286      0.029520714    268.29489      207.04462      3375         
      5060  -56.438835      0.28301278    -56.155822      0.029520714    243.2758       286.17486      3375         
      5070  -56.498541      0.33089957    -56.167641      0.029520714    284.43894     -274.02524      3375         
      5080  -56.476972      0.31491635    -56.162056      0.029520714    270.69988      452.30918      3375         
      5090  -56.38078       0.21251272    -56.168267      0.029520714    182.67444      282.24032      3375         
      5100  -56.376271      0.20119344    -56.175078      0.029520714    172.94446     -165.70014      3375         
      5110  -56.412961      0.2451573     -56.167804      0.029520714    210.73549     -177.12696      3375         
      5120  -56.462125      0.29161171    -56.170514      0.029520714    250.66738     -876.72883      3375         
      5130  -56.49988       0.34040828    -56.159472      0.029520714    292.61256      75.080625      3375         
      5140  -56.481323      0.32014984    -56.161173      0.029520714    275.19855      1125.7326      3375         
      5150  -56.483666      0.32369401    -56.159972      0.029520714    278.24509     -202.39797      3375         
      5160  -56.518216      0.37016746    -56.148048      0.029520714    318.19334      9.5540247      3375         
      5170  -56.415696      0.26857846    -56.147118      0.029520714    230.86815      704.55656      3375         
      5180  -56.403623      0.25536441    -56.148258      0.029520714    219.50945     -817.12848      3375         
      5190  -56.533345      0.40460578    -56.128739      0.029520714    347.79629     -775.45447      3375         
      5200  -56.517285      0.38972057    -56.127565      0.029520714    335.00106     -89.649416      3375         
      5210  -56.387591      0.2693644     -56.118227      0.029520714    231.54374      130.38124      3375         
      5220  -56.498835      0.39017187    -56.108663      0.029520714    335.389        1289.3177      3375         
      5230  -56.509764      0.40181178    -56.107953      0.029520714    345.39458      120.28959      3375         
      5240  -56.3575        0.27131336    -56.086187      0.029520714    233.21906     -1162.2909      3375         
      5250  -56.377533      0.29401688    -56.083516      0.029520714    252.73484      509.51819      3375         
      5260  -56.460131      0.38594278    -56.074188      0.029520714    331.7537      -31.839147      3375         
      5270  -56.40263       0.34394617    -56.058684      0.029520714    295.65371     -1155.5443      3375         
      5280  -56.32766       0.282381      -56.045279      0.029520714    242.73272      639.63917      3375         
      5290  -56.385668      0.35207261    -56.033595      0.029520714    302.63914      799.26458      3375         
      5300  -56.421773      0.4089012     -56.012872      0.029520714    351.4886       109.3644       3375         
      5310  -56.359135      0.35689572    -56.00224       0.029520714    306.78505     -7.5458517      3375         
      5320  -56.310588      0.337824      -55.972764      0.029520714    290.39113     -1038.5664      3375         
      5330  -56.38704       0.43408462    -55.952955      0.029520714    373.13609     -174.65874      3375         
      5340  -56.429404      0.49045871    -55.938946      0.029520714    421.59486      893.94755      3375         
      5350  -56.255459      0.35284198    -55.902617      0.029520714    303.30048     -559.0759       3375         
      5360  -56.286278      0.39520018    -55.891078      0.029520714    339.71129      90.733164      3375         
      5370  -56.430721      0.56552889    -55.865192      0.029520714    486.12466      1035.2083      3375         
      5380  -56.401945      0.56816009    -55.833785      0.029520714    488.38642     -605.30541      3375         
      5390  -56.299766      0.48827046    -55.811496      0.029520714    419.71385     -873.65623      3375         
      5400  -56.391405      0.60008448    -55.791321      0.029520714    515.8284       160.1643       3375         
      5410  -56.432246      0.67425054    -55.757995      0.029520714    579.58102      590.47131      3375         
      5420  -56.211545      0.46533823    -55.746207      0.029520714    400.00146      653.41076      3375         
      5430  -56.153022      0.40141049    -55.751611      0.029520714    345.04963     -348.73132      3375         
      5440  -56.258475      0.53608117    -55.722394      0.029520714    460.8116      -1027.1743      3375         
      5450  -56.263091      0.54028815    -55.722803      0.029520714    464.42789      203.66681      3375         
      5460  -56.229008      0.50551011    -55.723497      0.029520714    434.53294      478.42114      3375         
      5470  -56.247367      0.53512233    -55.712245      0.029520714    459.98739     -402.3771       3375         
      5480  -56.265905      0.53919752    -55.726708      0.029520714    463.49039      2.1985401      3375         
      5490  -56.162627      0.43479153    -55.727835      0.029520714    373.74374      964.14108      3375         
      5500  -56.236481      0.48063069    -55.75585       0.029520714    413.14676      392.84935      3375         
      5510  -56.394995      0.60455702    -55.790438      0.029520714    519.67296     -647.60794      3375         
      5520  -56.23109       0.42721312    -55.803877      0.029520714    367.22939     -425.44215      3375         
      5530  -56.233607      0.38463882    -55.848968      0.029520714    330.63282     -174.57559      3375         
      5540  -56.448397      0.54763612    -55.900761      0.029520714    470.74415     -22.175983      3375         
      5550  -56.36832       0.43837547    -55.929945      0.029520714    376.82447      92.047622      3375         
      5560  -56.300636      0.32735674    -55.973279      0.029520714    281.39355     -178.22361      3375         
      5570  -56.496691      0.48200722    -56.014684      0.029520714    414.33002      576.55269      3375         
      5580  -56.512805      0.46152007    -56.051285      0.029520714    396.71941      993.70743      3375         
      5590  -56.379691      0.29406272    -56.085628      0.029520714    252.77425     -886.28252      3375         
      5600  -56.406306      0.30697997    -56.099326      0.029520714    263.87782     -1087.985       3375         
      5610  -56.445848      0.32772828    -56.11812       0.029520714    281.71292      635.38285      3375         
      5620  -56.399586      0.26750346    -56.132082      0.029520714    229.9441       335.26219      3375         
      5630  -56.464697      0.31525443    -56.149443      0.029520714    270.99049     -125.3877       3375         
      5640  -56.458175      0.30496044    -56.153215      0.029520714    262.14185      95.391372      3375         
      5650  -56.428039      0.26106086    -56.166979      0.029520714    224.40608     -299.27571      3375         
      5660  -56.488026      0.32283418    -56.165191      0.029520714    277.50599      367.18374      3375         
      5670  -56.481874      0.30579251    -56.176082      0.029520714    262.85709      47.079207      3375         
      5680  -56.399583      0.21800291    -56.18158       0.029520714    187.39377     -960.12274      3375         
      5690  -56.497573      0.3161236     -56.181449      0.029520714    271.73763      687.18087      3375         
      5700  -56.46733       0.28072541    -56.186605      0.029520714    241.30959      729.07064      3375         
      5710  -56.333758      0.14847596    -56.185282      0.029520714    127.62889     -941.10072      3375         
      5720  -56.460771      0.28178772    -56.178983      0.029520714    242.22274      22.290412      3375         
      5730  -56.579706      0.39865182    -56.181054      0.029520714    342.6783       179.98784      3375         
      5740  -56.42218       0.24939252    -56.172787      0.029520714    214.37605     -209.21094      3375         
      5750  -56.424201      0.25602752    -56.168174      0.029520714    220.07945      518.30017      3375         
      5760  -56.530161      0.36365983    -56.166502      0.029520714    312.59943     -315.09771      3375         
      5770  -56.409324      0.26446387    -56.14486       0.029520714    227.33128     -97.674262      3375         
      5780  -56.278757      0.13481861    -56.143939      0.029520714    115.88913      765.80096      3375         
      5790  -56.409519      0.27075385    -56.138766      0.029520714    232.73811     -780.95074      3375         
      5800  -56.520213      0.40288014    -56.117333      0.029520714    346.31293     -657.6924       3375         
      5810  -56.471357      0.3695158     -56.101842      0.029520714    317.63318      768.97551      3375         
      5820  -56.388222      0.3075774     -56.080645      0.029520714    264.39137     -83.058151      3375         
      5830  -56.402462      0.33555532    -56.066906      0.029520714    288.44099      220.43894      3375         
      5840  -56.412973      0.36038221    -56.052591      0.029520714    309.78202      572.18315      3375         
      5850  -56.392537      0.36156751    -56.03097       0.029520714    310.80089     -521.2634       3375         
      5860  -56.352825      0.3378448     -56.01498       0.029520714    290.40901     -146.04949      3375         
      5870  -56.478461      0.46727303    -56.011188      0.029520714    401.66461     -293.46217      3375         
      5880  -56.477593      0.51407283    -55.96352       0.029520714    441.89339     -799.33423      3375         
      5890  -56.346693      0.38574293    -55.96095       0.029520714    331.58191      782.33344      3375         
      5900  -56.416706      0.46019032    -55.956516      0.029520714    395.57636      938.54484      3375         
      5910  -56.356938      0.4224303     -55.934508      0.029520714    363.11811     -232.78416      3375         
      5920  -56.250132      0.31864022    -55.931492      0.029520714    273.90089     -243.65675      3375         
      5930  -56.454916      0.52913354    -55.925782      0.029520714    454.83947     -451.79583      3375         
      5940  -56.417367      0.50831912    -55.909048      0.029520714    436.94754     -27.586041      3375         
      5950  -56.297367      0.3896047     -55.907763      0.029520714    334.90146      552.76024      3375         
      5960  -56.332832      0.42235465    -55.910478      0.029520714    363.05308     -316.9808       3375         
      5970  -56.232314      0.32899916    -55.903315      0.029520714    282.80536     -261.77067      3375         
      5980  -56.214836      0.31188886    -55.902947      0.029520714    268.09747      570.02242      3375         
      5990  -56.460582      0.55746299    -55.903119      0.029520714    479.19126      142.41731      3375         
      6000  -56.441744      0.54146269    -55.900282      0.029520714    465.43752     -369.07662      3375         
      6010  -56.378232      0.4651841     -55.913048      0.029520714    399.86898     -113.17611      3375         
      6020  -56.377411      0.45959835    -55.917813      0.029520714    395.06751      288.24986      3375         
      6030  -56.308624      0.37452794    -55.934096      0.029520714    321.94158      169.13352      3375         
      6040  -56.306096      0.35093001    -55.955166      0.029520714    301.65697     -297.67204      3375         
      6050  -56.45343       0.47915021    -55.97428       0.029520714    411.87415     -170.27017      3375         
      6060  -56.433345      0.42476374    -56.008582      0.029520714    365.12392      209.13538      3375         
      6070  -56.400632      0.3533193     -56.047313      0.029520714    303.71079      54.924721      3375         
      6080  -56.48677       0.3993454     -56.087424      0.029520714    343.2745      -445.90303      3375         
      6090  -56.438199      0.31063088    -56.127568      0.029520714    267.01612     -151.09655      3375         
      6100  -56.370937      0.21669507    -56.154242      0.029520714    186.26955      588.33867      3375         
      6110  -56.42492       0.24657444    -56.178345      0.029520714    211.95366      573.64146      3375         
      6120  -56.517655      0.31192643    -56.205729      0.029520714    268.12977     -225.04759      3375         
      6130  -56.454278      0.2414811     -56.212797      0.029520714    207.57545     -686.20662      3375         
      6140  -56.506097      0.28061577    -56.225481      0.029520714    241.21534     -415.20109      3375         
      6150  -56.520391      0.28241873    -56.237972      0.029520714    242.76515      317.56791      3375         
      6160  -56.480269      0.23808916    -56.24218       0.029520714    204.65977      537.67448      3375         
      6170  -56.458608      0.20873424    -56.249873      0.029520714    179.42648     -33.633851      3375         
      6180  -56.489041      0.24185516    -56.247186      0.029520714    207.89699     -10.827125      3375         
      6190  -56.434299      0.18941562    -56.244884      0.029520714    162.82033      196.07466      3375         
      6200  -56.475157      0.22737179    -56.247785      0.029520714    195.44719     -661.97702      3375         
      6210  -56.533644      0.29339658    -56.240247      0.029520714    252.20163     -439.35575      3375         
      6220  -56.498113      0.26178687    -56.236326      0.029520714    225.03015      615.26155      3375         
      6230  -56.516293      0.28265931    -56.233633      0.029520714    242.97195      482.65423      3375         
      6240  -56.527836      0.30311345    -56.224722      0.029520714    260.55419     -95.649709      3375         
      6250  -56.378029      0.16338164    -56.214647      0.029520714    140.44171     -442.11021      3375         
      6260  -56.376913      0.16789326    -56.20902       0.029520714    144.31986     -113.89267      3375         
      6270  -56.577012      0.37897287    -56.198039      0.029520714    325.76241      638.42717      3375         
      6280  -56.53134       0.34457755    -56.186762      0.029520714    296.19644     -161.57194      3375         
      6290  -56.45976       0.28857148    -56.171189      0.029520714    248.05402     -893.77731      3375         
      6300  -56.557509      0.41331841    -56.144191      0.029520714    355.2856       362.72221      3375         
      6310  -56.505356      0.36734774    -56.138009      0.029520714    315.76954      344.08063      3375         
      6320  -56.330524      0.20702938    -56.123495      0.029520714    177.961       -268.1274       3375         
      6330  -56.423121      0.31181015    -56.111311      0.029520714    268.02981      416.10597      3375         
      6340  -56.507194      0.40623625    -56.100958      0.029520714    349.19782      16.995906      3375         
      6350  -56.426364      0.34575531    -56.080609      0.029520714    297.20883     -174.66414      3375         
      6360  -56.439024      0.37674317    -56.062281      0.029520714    323.84578      150.75495      3375         
[...]
     48420  -56.396692      0.24744734    -56.149244      0.029520714    212.704        511.73948      3375         
     48430  -56.42335       0.27557525    -56.147775      0.029520714    236.88254      727.72305      3375         
     48440  -56.491619      0.34415466    -56.147465      0.029520714    295.83292      204.66996      3375         
     48450  -56.465288      0.324961      -56.140327      0.029520714    279.33419     -185.0537       3375         
     48460  -56.371084      0.22980871    -56.141275      0.029520714    197.54195      232.71128      3375         
     48470  -56.440218      0.29996553    -56.140253      0.029520714    257.84826     -182.02886      3375         
     48480  -56.434093      0.30057594    -56.133517      0.029520714    258.37297     -1188.3906      3375         
     48490  -56.448411      0.32480435    -56.123606      0.029520714    279.19953     -391.20964      3375         
     48500  -56.550454      0.42919131    -56.121263      0.029520714    368.92983      1090.311       3375         
     48510  -56.446002      0.32995671    -56.116046      0.029520714    283.62847      992.477        3375         
     48520  -56.354633      0.23921272    -56.11542       0.029520714    205.62557     -266.74859      3375         
     48530  -56.501704      0.39309869    -56.108605      0.029520714    337.90487     -622.38734      3375         
     48540  -56.484145      0.3904777     -56.093667      0.029520714    335.65188      222.01554      3375         
     48550  -56.38127       0.28601548    -56.095255      0.029520714    245.85689      122.95934      3375         
     48560  -56.459132      0.36910494    -56.090028      0.029520714    317.28001     -581.39638      3375         
     48570  -56.447434      0.36269122    -56.084743      0.029520714    311.76682     -456.4877       3375         
     48580  -56.422582      0.34262362    -56.079959      0.029520714    294.51685      265.43162      3375         
     48590  -56.466548      0.38924306    -56.077304      0.029520714    334.5906       662.34364      3375         
     48600  -56.398458      0.32494988    -56.073508      0.029520714    279.32463      101.90606      3375         
     48610  -56.313351      0.24110189    -56.072249      0.029520714    207.24949     -309.21018      3375         
     48620  -56.469962      0.40872239    -56.06124       0.029520714    351.33489      354.75966      3375         
     48630  -56.46378       0.40147289    -56.062307      0.029520714    345.10327      118.68051      3375         
     48640  -56.32332       0.25727269    -56.066048      0.029520714    221.14979     -907.46282      3375         
     48650  -56.354313      0.30396733    -56.050346      0.029520714    261.28818     -210.99811      3375         
     48660  -56.470414      0.4170121     -56.053402      0.029520714    358.46067      716.03278      3375         
     48670  -56.447663      0.39249593    -56.055167      0.029520714    337.38674      289.57601      3375         
     48680  -56.338152      0.29009983    -56.048052      0.029520714    249.36777     -363.57557      3375         
     48690  -56.351619      0.30464505    -56.046974      0.029520714    261.87074     -799.73103      3375         
     48700  -56.442343      0.39790869    -56.044434      0.029520714    342.03951      296.1629       3375         
     48710  -56.429263      0.38417836    -56.045085      0.029520714    330.23701      1293.6401      3375         
     48720  -56.378459      0.33081278    -56.047646      0.029520714    284.36434     -53.250136      3375         
     48730  -56.402978      0.36002359    -56.042955      0.029520714    309.47374     -701.68842      3375         
     48740  -56.4196        0.37644109    -56.043159      0.029520714    323.58612     -31.333657      3375         
     48750  -56.422315      0.37565226    -56.046662      0.029520714    322.90804     -560.67273      3375         
     48760  -56.489627      0.44306065    -56.046567      0.029520714    380.85181     -584.12123      3375         
     48770  -56.387631      0.34209698    -56.045534      0.029520714    294.06416      621.36124      3375         
     48780  -56.306312      0.2585349     -56.047777      0.029520714    222.23479      1079.4694      3375         
     48790  -56.542542      0.49543819    -56.047104      0.029520714    425.87519      632.09233      3375         
     48800  -56.501913      0.45074663    -56.051167      0.029520714    387.45864     -856.24541      3375         
     48810  -56.291083      0.24135618    -56.049727      0.029520714    207.46808     -1422.7126      3375         
     48820  -56.369755      0.31332394    -56.056431      0.029520714    269.33105      624.18959      3375         
     48830  -56.515037      0.46123662    -56.0538        0.029520714    396.47575      892.49874      3375         
     48840  -56.37534       0.31258579    -56.062754      0.029520714    268.69655     -1013.6761      3375         
     48850  -56.395612      0.344044      -56.051568      0.029520714    295.7378      -313.06052      3375         
     48860  -56.474546      0.41539681    -56.059149      0.029520714    357.07217      1031.5395      3375         
     48870  -56.360671      0.29956666    -56.061104      0.029520714    257.50539      558.77664      3375         
     48880  -56.335935      0.27070151    -56.065234      0.029520714    232.69311      22.083319      3375         
     48890  -56.493584      0.42678559    -56.066798      0.029520714    366.86189     -558.00882      3375         
     48900  -56.397227      0.33999676    -56.05723       0.029520714    292.25882     -333.21434      3375         
     48910  -56.330787      0.26620911    -56.064578      0.029520714    228.83147      18.293395      3375         
     48920  -56.446138      0.38328654    -56.062851      0.029520714    329.47042     -717.36952      3375         
     48930  -56.497585      0.43125668    -56.066329      0.029520714    370.70521     -196.20475      3375         
     48940  -56.409034      0.3420453     -56.066989      0.029520714    294.01973      1517.8397      3375         
     48950  -56.325836      0.25005577    -56.07578       0.029520714    214.94618      732.31261      3375         
     48960  -56.417514      0.3510536     -56.066461      0.029520714    301.76321     -938.06032      3375         
     48970  -56.494697      0.42684417    -56.067853      0.029520714    366.91224     -615.22867      3375         
     48980  -56.403214      0.32970698    -56.073507      0.029520714    283.4138       155.02964      3375         
     48990  -56.386815      0.315347      -56.071468      0.029520714    271.07006      358.71475      3375         
     49000  -56.499066      0.41104218    -56.088024      0.029520714    353.32896      137.40709      3375         
     49010  -56.382495      0.30667632    -56.075819      0.029520714    263.61681     -598.03441      3375         
     49020  -56.451331      0.37656047    -56.074771      0.029520714    323.68873     -249.77947      3375         
     49030  -56.451039      0.36693109    -56.084108      0.029520714    315.41139      606.06353      3375         
     49040  -56.333169      0.24751857    -56.085651      0.029520714    212.76522      238.32225      3375         
     49050  -56.416868      0.32814774    -56.088721      0.029520714    282.07349     -291.03494      3375         
     49060  -56.57256       0.47462824    -56.097932      0.029520714    407.9871       141.46293      3375         
     49070  -56.380133      0.29014905    -56.089984      0.029520714    249.41008      146.50858      3375         
     49080  -56.307479      0.20985649    -56.097622      0.029520714    180.39116     -359.76925      3375         
     49090  -56.444711      0.3444189     -56.100292      0.029520714    296.06007     -123.64734      3375         
     49100  -56.521989      0.41602616    -56.105963      0.029520714    357.61316     -130.56107      3375         
     49110  -56.419312      0.30554837    -56.113763      0.029520714    262.64723     -147.70644      3375         
     49120  -56.351665      0.23100234    -56.120662      0.029520714    198.56798      283.65249      3375         
     49130  -56.457103      0.34678558    -56.110317      0.029520714    298.09444      186.88547      3375         
     49140  -56.502526      0.38413935    -56.118387      0.029520714    330.20349      295.67087      3375         
     49150  -56.409958      0.28343127    -56.126526      0.029520714    243.63553      661.81256      3375         
     49160  -56.413457      0.28230517    -56.131151      0.029520714    242.66754     -427.43234      3375         
     49170  -56.485703      0.3418516     -56.143852      0.029520714    293.85323     -1240.5938      3375         
     49180  -56.416986      0.27981515    -56.137171      0.029520714    240.52714     -372.86563      3375         
     49190  -56.53421       0.39385126    -56.140358      0.029520714    338.55177      205.1305       3375         
     49200  -56.502113      0.35387856    -56.148235      0.029520714    304.19152      667.33043      3375         
     49210  -56.342152      0.18817334    -56.153979      0.029520714    161.75248      991.31824      3375         
     49220  -56.422572      0.2679177     -56.154654      0.029520714    230.30017     -34.965189      3375         
     49230  -56.589731      0.42897239    -56.160758      0.029520714    368.74165     -634.00817      3375         
     49240  -56.427066      0.26814465    -56.158921      0.029520714    230.49526     -163.39452      3375         
     49250  -56.400304      0.2424754     -56.157829      0.029520714    208.43015     -427.60926      3375         
     49260  -56.49694       0.33777591    -56.159164      0.029520714    290.3498      -23.397743      3375         
     49270  -56.467682      0.30834364    -56.159339      0.029520714    265.05002      440.78533      3375         
     49280  -56.443191      0.28247216    -56.160719      0.029520714    242.81108     -163.57568      3375         
     49290  -56.438383      0.28097084    -56.157413      0.029520714    241.52055      124.50127      3375         
     49300  -56.412466      0.25612012    -56.156346      0.029520714    220.15905      354.36667      3375         
     49310  -56.421746      0.28447124    -56.137275      0.029520714    244.52948     -78.020508      3375         
     49320  -56.491693      0.35250374    -56.139189      0.029520714    303.00974      276.41693      3375         
     49330  -56.451998      0.32210131    -56.129896      0.029520714    276.87602     -250.52877      3375         
     49340  -56.422962      0.30142348    -56.121538      0.029520714    259.10151     -897.54432      3375         
     49350  -56.411732      0.30043854    -56.111293      0.029520714    258.25485      303.38233      3375         
     49360  -56.459946      0.35643492    -56.103511      0.029520714    306.38895      612.822        3375         
     49370  -56.483695      0.404328      -56.079367      0.029520714    347.5575      -119.83042      3375         
     49380  -56.431646      0.36311283    -56.068534      0.029520714    312.12924     -59.89277       3375         
     49390  -56.296774      0.24076111    -56.056013      0.029520714    206.95656     -64.6529        3375         
     49400  -56.483162      0.44501749    -56.038144      0.029520714    382.5339       3.248808       3375         
     49410  -56.516426      0.49134174    -56.025084      0.029520714    422.3539       65.463852      3375         
     49420  -56.248495      0.24806899    -56.000426      0.029520714    213.23835      22.144721      3375         
     49430  -56.324297      0.33635923    -55.987938      0.029520714    289.13203      518.6195       3375         
     49440  -56.550374      0.57703976    -55.973334      0.029520714    496.01932     -236.18706      3375         
     49450  -56.368635      0.41418426    -55.954451      0.029520714    356.02988     -1262.5541      3375         
     49460  -56.273922      0.3344595     -55.939463      0.029520714    287.49903     -548.46822      3375         
     49470  -56.369596      0.43679659    -55.9328        0.029520714    375.46728      998.77011      3375         
     49480  -56.320811      0.40347949    -55.917332      0.029520714    346.82813      1678.7771      3375         
     49490  -56.360921      0.45434838    -55.906573      0.029520714    390.55467      352.95168      3375         
     49500  -56.377081      0.47605709    -55.901024      0.029520714    409.21532     -1310.5263      3375         
     49510  -56.291288      0.40327812    -55.88801       0.029520714    346.65504     -999.93525      3375         
     49520  -56.213735      0.32690157    -55.886833      0.029520714    281.00229      36.158953      3375         
     49530  -56.443899      0.54985712    -55.894042      0.029520714    472.65331      72.307133      3375         
     49540  -56.412839      0.53800471    -55.874834      0.029520714    462.46506      101.93517      3375         
     49550  -56.28509       0.40282865    -55.882261      0.029520714    346.26867      655.71078      3375         
     49560  -56.178781      0.29079378    -55.887987      0.029520714    249.96429      647.68551      3375         
     49570  -56.45429       0.55897237    -55.895318      0.029520714    480.48871     -221.34843      3375         
     49580  -56.398839      0.48858814    -55.910251      0.029520714    419.98693     -834.66713      3375         
     49590  -56.294745      0.37198183    -55.922764      0.029520714    319.75297     -229.92723      3375         
     49600  -56.314474      0.37495594    -55.939518      0.029520714    322.30949      711.14324      3375         
     49610  -56.450264      0.48257109    -55.967693      0.029520714    414.81472     -185.4348       3375         
     49620  -56.391676      0.39764781    -55.994029      0.029520714    341.81526     -857.72167      3375         
     49630  -56.415217      0.39116965    -56.024047      0.029520714    336.24668      251.28481      3375         
     49640  -56.431455      0.36426766    -56.067187      0.029520714    313.12192      936.51282      3375         
     49650  -56.427833      0.32604699    -56.101786      0.029520714    280.2677       338.94596      3375         
     49660  -56.377456      0.258012      -56.119444      0.029520714    221.7853      -637.73178      3375         
     49670  -56.470481      0.33277357    -56.137708      0.029520714    286.04982     -744.64209      3375         
     49680  -56.560714      0.38533882    -56.175375      0.029520714    331.23453      428.94912      3375         
     49690  -56.433847      0.24523666    -56.18861       0.029520714    210.80371      530.46362      3375         
     49700  -56.461181      0.2541223     -56.207058      0.029520714    218.44175     -401.6382       3375         
     49710  -56.547602      0.3288453     -56.218756      0.029520714    282.6731      -201.53726      3375         
     49720  -56.454871      0.22992824    -56.224943      0.029520714    197.6447       198.63743      3375         
     49730  -56.398552      0.17200286    -56.226549      0.029520714    147.85245     -40.081553      3375         
     49740  -56.526534      0.29364535    -56.232889      0.029520714    252.41547     -121.02273      3375         
     49750  -56.527121      0.29274435    -56.234377      0.029520714    251.64098      120.1981       3375         
     49760  -56.490631      0.25621501    -56.234416      0.029520714    220.24062      740.53709      3375         
     49770  -56.489779      0.24965582    -56.240123      0.029520714    214.60239      363.22691      3375         
     49780  -56.470006      0.23716098    -56.232846      0.029520714    203.86191     -1065.6535      3375         
     49790  -56.446915      0.2252785     -56.221636      0.029520714    193.64781     -837.08401      3375         
     49800  -56.554436      0.33075277    -56.223683      0.029520714    284.31275      251.95111      3375         
     49810  -56.544704      0.3267916     -56.217913      0.029520714    280.90776      553.11009      3375         
     49820  -56.398815      0.18770677    -56.211108      0.029520714    161.35142      347.35597      3375         
     49830  -56.487592      0.2801558     -56.207437      0.029520714    240.81996      131.13204      3375         
     49840  -56.548453      0.36258639    -56.185867      0.029520714    311.67671      376.72361      3375         
     49850  -56.44979       0.26832194    -56.181468      0.029520714    230.64765     -79.383354      3375         
     49860  -56.407171      0.23486923    -56.172302      0.029520714    201.89194     -1024.4159      3375         
     49870  -56.504136      0.3438161     -56.16032       0.029520714    295.5419      -714.80605      3375         
     49880  -56.508091      0.36377931    -56.144312      0.029520714    312.70213      476.2078       3375         
     49890  -56.493807      0.35810316    -56.135704      0.029520714    307.82296      687.09847      3375         
     49900  -56.381297      0.27198616    -56.109311      0.029520714    233.79739      361.89434      3375         
     49910  -56.347985      0.24492879    -56.103056      0.029520714    210.53907     -56.766403      3375         
     49920  -56.46111       0.37107359    -56.090036      0.029520714    318.97225      144.3597       3375         
     49930  -56.46634       0.39244524    -56.073895      0.029520714    337.34316     -2.0740328      3375         
     49940  -56.366965      0.30145132    -56.065513      0.029520714    259.12544     -1214.4826      3375         
     49950  -56.439786      0.40542885    -56.034357      0.029520714    348.50379     -617.62007      3375         
     49960  -56.409857      0.3764674     -56.03339       0.029520714    323.60872      1204.6343      3375         
     49970  -56.336685      0.32084413    -56.015841      0.029520714    275.79536      719.30784      3375         
     49980  -56.452597      0.44157479    -56.011022      0.029520714    379.57459     -380.81189      3375         
     49990  -56.337933      0.33490697    -56.003026      0.029520714    287.88367     -472.42767      3375         
     50000  -56.26638       0.27435868    -55.992021      0.029520714    235.83679     -86.667579      3375         
Loop time of 85.8519 on 3 procs for 50000 steps with 10 atoms

Performance: 25.160 ns/day, 0.954 hours/ns, 582.398 timesteps/s, 5.824 katom-step/s
166.9% CPU use with 3 MPI tasks x no OpenMP threads

MPI task timing breakdown:
Section |  min time  |  avg time  |  max time  |%varavg| %total
---------------------------------------------------------------
Pair    | 31.555     | 48.364     | 81.405     | 336.0 | 56.33
Neigh   | 0.0011978  | 0.0015554  | 0.0022572  |   1.3 |  0.00
Comm    | 1.8304     | 34.792     | 51.53      | 395.2 | 40.53
Output  | 0.48122    | 0.48785    | 0.49909    |   1.1 |  0.57
Modify  | 1.9313     | 2.005      | 2.082      |   4.3 |  2.34
Other   |            | 0.2011     |            |       |  0.23

Nlocal:        3.33333 ave          10 max           0 min
Histogram: 2 0 0 0 0 0 0 0 0 1
Nghost:        70.6667 ave          88 max          40 min
Histogram: 1 0 0 0 0 0 0 0 0 2
Neighs:              0 ave           0 max           0 min
Histogram: 3 0 0 0 0 0 0 0 0 0
FullNghs:           30 ave          90 max           0 min
Histogram: 2 0 0 0 0 0 0 0 0 1

Total # of neighbors = 90
Ave neighs/atom = 9
Neighbor list builds = 245
Dangerous builds = 0

write_data	restart.data
System init for write_data ...
Generated 0 of 1 mixed pair_coeff terms from geometric mixing rule
#
Total wall time: 0:01:27
