LAMMPS data file via write_data, version 2 Aug 2023, timestep = 50000, units = metal

10 atoms
2 atom types

0 15 xlo xhi
0 15 ylo yhi
0 15 zlo zhi

Masses

1 12
2 2

Atoms # atomic

4 1 8.91717450460495 7.237135839220452 7.042674253718753 0 0 0
7 2 6.3346605224487575 8.49794193501719 8.757445459559387 0 0 0
8 2 8.764017017970618 7.369692840863388 9.097617658562804 0 0 0
9 2 8.536442407945907 7.298458137990977 6.036201182250766 0 0 0
1 1 6.0447244349736495 7.441870280485262 6.967897273677185 0 0 0
3 1 8.223152389487781 7.514625492229264 8.120387040236125 0 0 0
2 1 6.840026621545122 7.876214277670433 7.985632608123474 0 0 0
6 2 6.3177741040977615 6.790541440382448 6.126667808017929 0 0 0
5 2 5.1081961674820775 7.875976627487836 6.9087587149400065 0 0 0
10 2 9.912442077083202 6.968313682079289 7.262762120616988 0 0 0

Velocities

4 0.8022337949077727 -0.47841750013707396 1.231481498751355
7 3.332263259552226 -0.13844215522247147 12.257685434813816
8 11.954672531247768 15.435061354569235 -2.62324864113451
9 -3.390557585746549 7.877640243557483 -29.280703588159533
1 -6.166830493457025 1.7744184798577265 7.508675438139465
3 -4.525941718139068 3.866724480384742 -1.2619933419809102
2 3.06797128096253 -3.6117037356309645 -9.78340773027132
6 3.2102297144837086 -7.271264712129223 11.781304637916026
5 26.553538923961376 -11.379291777431598 21.83513168856973
10 -0.7247440291457394 -13.829833300187788 -0.13870471983934216
