ITEM: TIMESTEP
0
ITEM: NUMBER OF ATOMS
10
ITEM: BOX BOUNDS pp pp pp
0.0000000000000000e+00 1.5000000000000000e+01
0.0000000000000000e+00 1.5000000000000000e+01
0.0000000000000000e+00 1.5000000000000000e+01
ITEM: ATOMS id type x y z
1 1 6.45127 7.11882 6.05078
2 1 7.27645 7.80725 6.87589
3 1 7.78741 7.19219 8.09004
4 1 8.5381 7.89289 8.97088
6 2 6.12131 6.07811 6.24936
7 2 7.47625 8.87586 6.65396
8 2 7.51128 6.1329 8.20652
9 2 8.79587 8.92123 8.79233
10 2 8.84066 7.55016 9.94501
5 2 6.05928 7.59482 5.11633
ITEM: TIMESTEP
100
ITEM: NUMBER OF ATOMS
10
ITEM: BOX BOUNDS pp pp pp
0.0000000000000000e+00 1.5000000000000000e+01
0.0000000000000000e+00 1.5000000000000000e+01
0.0000000000000000e+00 1.5000000000000000e+01
ITEM: ATOMS id type x y z
1 1 6.27707 7.10246 6.24012
2 1 7.31087 7.67906 6.79658
3 1 7.86027 7.26574 8.07839
4 1 8.63009 7.96216 8.83484
6 2 5.82388 6.22466 6.75631
7 2 7.72668 8.60554 6.37719
8 2 7.60787 6.23221 8.39471
9 2 8.8237 8.96608 8.47569
10 2 8.82508 7.61584 9.85154
5 2 5.84702 7.51918 5.33395
ITEM: TIMESTEP
200
ITEM: NUMBER OF ATOMS
10
ITEM: BOX BOUNDS pp pp pp
0.0000000000000000e+00 1.5000000000000000e+01
0.0000000000000000e+00 1.5000000000000000e+01
0.0000000000000000e+00 1.5000000000000000e+01
ITEM: ATOMS id type x y z
1 1 6.12803 7.03304 6.39536
2 1 7.26691 7.60047 6.80758
3 1 7.79691 7.26977 8.14648
4 1 8.82619 8.08721 8.59934
6 2 5.52665 6.46253 7.03196
7 2 7.92393 8.23372 6.22062
8 2 7.45963 6.37723 8.62225
9 2 9.17815 9.07976 8.26668
10 2 9.27438 7.87182 9.59598
5 2 5.653 7.25198 5.45897
ITEM: TIMESTEP
300
ITEM: NUMBER OF ATOMS
10
ITEM: BOX BOUNDS pp pp pp
0.0000000000000000e+00 1.5000000000000000e+01
0.0000000000000000e+00 1.5000000000000000e+01
0.0000000000000000e+00 1.5000000000000000e+01
ITEM: ATOMS id type x y z
1 1 6.01067 6.93797 6.60404
2 1 7.20679 7.49279 6.85548
3 1 7.82645 7.4753 8.14386
4 1 8.99451 8.06471 8.34143
6 2 5.52633 6.34408 7.47825
7 2 7.79741 8.05119 6.09184
8 2 7.28558 7.16458 9.09236
9 2 9.52468 8.49055 7.48475
10 2 9.39851 8.18713 9.3612
5 2 5.36096 7.15787 5.71176
ITEM: TIMESTEP
400
ITEM: NUMBER OF ATOMS
10
ITEM: BOX BOUNDS pp pp pp
0.0000000000000000e+00 1.5000000000000000e+01
0.0000000000000000e+00 1.5000000000000000e+01
0.0000000000000000e+00 1.5000000000000000e+01
ITEM: ATOMS id type x y z
1 1 5.93766 6.83964 6.86114
2 1 7.09089 7.48743 6.90094
3 1 7.84542 7.73928 8.11182
4 1 9.11436 8.01701 8.10898
6 2 5.47281 6.68064 7.80513
7 2 7.60371 7.66746 5.99085
8 2 7.29792 7.70681 9.0388
9 2 9.65994 8.16702 7.20671
10 2 9.697 8.02401 8.99067
5 2 5.46261 6.47386 5.95953
ITEM: TIMESTEP
500
ITEM: NUMBER OF ATOMS
10
ITEM: BOX BOUNDS pp pp pp
0.0000000000000000e+00 1.5000000000000000e+01
0.0000000000000000e+00 1.5000000000000000e+01
0.0000000000000000e+00 1.5000000000000000e+01
ITEM: ATOMS id type x y z
1 1 5.86102 6.86419 7.12969
2 1 7.10171 7.32685 6.91609
3 1 7.84511 7.83033 8.04277
4 1 9.18763 8.02606 7.89848
6 2 5.30807 6.79479 8.06009
7 2 7.55276 7.41332 5.89372
8 2 7.30873 8.18189 8.94824
9 2 9.8181 7.76398 6.9942
10 2 9.82457 8.43345 8.7345
5 2 5.33891 6.34794 6.33603
ITEM: TIMESTEP
600
ITEM: NUMBER OF ATOMS
10
ITEM: BOX BOUNDS pp pp pp
0.0000000000000000e+00 1.5000000000000000e+01
0.0000000000000000e+00 1.5000000000000000e+01
0.0000000000000000e+00 1.5000000000000000e+01
ITEM: ATOMS id type x y z
1 1 5.80837 6.92188 7.31642
2 1 7.10454 7.14008 7.04299
3 1 7.91633 7.86864 7.89934
4 1 9.22225 8.0851 7.7386
6 2 5.39448 7.2209 8.2951
7 2 7.40357 6.89286 6.0219
8 2 7.41398 8.31296 8.76035
9 2 9.61841 7.66403 6.83144
10 2 9.78288 8.7313 8.38833
5 2 5.20171 6.30369 6.60777
ITEM: TIMESTEP
700
ITEM: NUMBER OF ATOMS
10
ITEM: BOX BOUNDS pp pp pp
0.0000000000000000e+00 1.5000000000000000e+01
0.0000000000000000e+00 1.5000000000000000e+01
0.0000000000000000e+00 1.5000000000000000e+01
ITEM: ATOMS id type x y z
1 1 5.79103 6.94918 7.47044
2 1 7.08103 7.01017 7.17385
3 1 7.95372 7.93769 7.83556
4 1 9.2056 8.12328 7.51508
6 2 5.29672 7.6206 8.18176
7 2 7.40602 6.33565 6.4179
8 2 7.50702 8.40122 8.72145
9 2 9.63049 7.76874 6.58454
10 2 9.98178 8.73901 7.97639
5 2 5.11361 6.23281 7.03739
ITEM: TIMESTEP
800
ITEM: NUMBER OF ATOMS
10
ITEM: BOX BOUNDS pp pp pp
0.0000000000000000e+00 1.5000000000000000e+01
0.0000000000000000e+00 1.5000000000000000e+01
0.0000000000000000e+00 1.5000000000000000e+01
ITEM: ATOMS id type x y z
1 1 5.79908 6.98374 7.64019
2 1 7.11506 6.9281 7.3592
3 1 7.95654 7.97345 7.82671
4 1 9.18071 8.11051 7.2423
6 2 5.29048 7.71056 8.26051
7 2 7.53596 6.05725 6.72931
8 2 7.59336 8.74803 8.50925
9 2 9.49121 7.37344 6.44457
10 2 9.81495 8.98718 7.43839
5 2 5.08968 6.36876 7.09658
ITEM: TIMESTEP
900
ITEM: NUMBER OF ATOMS
10
ITEM: BOX BOUNDS pp pp pp
0.0000000000000000e+00 1.5000000000000000e+01
0.0000000000000000e+00 1.5000000000000000e+01
0.0000000000000000e+00 1.5000000000000000e+01
ITEM: ATOMS id type x y z
1 1 5.81529 6.95858 7.9095
2 1 7.08692 6.95781 7.45315
3 1 7.94609 8.0251 7.59131
4 1 9.1583 8.06221 7.03709
6 2 5.51424 7.9761 8.1628
7 2 7.55758 6.03734 7.26568
8 2 7.56734 8.89035 8.15136
9 2 9.4826 7.26807 6.41165
10 2 9.83609 8.91114 7.15903
5 2 5.12662 6.1148 7.7921
ITEM: TIMESTEP
1000
ITEM: NUMBER OF ATOMS
10
ITEM: BOX BOUNDS pp pp pp
0.0000000000000000e+00 1.5000000000000000e+01
0.0000000000000000e+00 1.5000000000000000e+01
0.0000000000000000e+00 1.5000000000000000e+01
ITEM: ATOMS id type x y z
1 1 5.92246 6.99367 8.19906
2 1 7.08948 6.92327 7.59769
3 1 7.89924 8.12177 7.34124
4 1 9.10579 7.99032 6.84116
6 2 5.39046 7.94071 8.4651
7 2 7.57701 5.96108 7.37388
8 2 7.55348 9.1394 7.55511
9 2 9.59834 7.00156 6.61695
10 2 9.70935 8.81046 6.50195
5 2 5.19346 6.19256 8.50111
ITEM: TIMESTEP
1100
ITEM: NUMBER OF ATOMS
10
ITEM: BOX BOUNDS pp pp pp
0.0000000000000000e+00 1.5000000000000000e+01
0.0000000000000000e+00 1.5000000000000000e+01
0.0000000000000000e+00 1.5000000000000000e+01
ITEM: ATOMS id type x y z
1 1 5.99404 7.09443 8.43805
2 1 7.15841 6.96269 7.76913
3 1 7.77966 8.07102 7.11265
4 1 9.05207 7.9043 6.67012
6 2 5.59448 8.06945 8.59114
7 2 7.54852 5.91967 7.58937
8 2 7.35679 9.07115 7.0461
9 2 9.62093 6.99278 6.7343
10 2 9.48517 8.73532 6.066
5 2 5.61297 6.23695 8.92239
ITEM: TIMESTEP
1200
ITEM: NUMBER OF ATOMS
10
ITEM: BOX BOUNDS pp pp pp
0.0000000000000000e+00 1.5000000000000000e+01
0.0000000000000000e+00 1.5000000000000000e+01
0.0000000000000000e+00 1.5000000000000000e+01
ITEM: ATOMS id type x y z
1 1 6.09352 7.19381 8.59141
2 1 7.19181 6.98342 7.86581
3 1 7.75168 7.92078 6.99519
4 1 8.9641 7.89261 6.4655
6 2 5.54865 8.17203 8.56212
7 2 7.71921 6.06089 7.89665
8 2 7.11608 8.81968 6.93021
9 2 9.57405 6.96333 6.58308
10 2 9.41547 8.75957 5.99211
5 2 5.74394 6.5008 9.41728
ITEM: TIMESTEP
1300
ITEM: NUMBER OF ATOMS
10
ITEM: BOX BOUNDS pp pp pp
0.0000000000000000e+00 1.5000000000000000e+01
0.0000000000000000e+00 1.5000000000000000e+01
0.0000000000000000e+00 1.5000000000000000e+01
ITEM: ATOMS id type x y z
1 1 6.19229 7.25752 8.70013
2 1 7.31457 7.04227 8.04745
3 1 7.70083 7.98021 6.96548
4 1 8.81192 7.76034 6.27281
6 2 5.58706 8.18319 8.63991
7 2 7.89047 6.11197 8.2529
8 2 6.96491 8.68891 6.61706
9 2 9.52838 7.04534 6.57528
10 2 9.20066 8.42881 5.5107
5 2 5.83489 6.5198 9.3779
ITEM: TIMESTEP
1400
ITEM: NUMBER OF ATOMS
10
ITEM: BOX BOUNDS pp pp pp
0.0000000000000000e+00 1.5000000000000000e+01
0.0000000000000000e+00 1.5000000000000000e+01
0.0000000000000000e+00 1.5000000000000000e+01
ITEM: ATOMS id type x y z
1 1 6.28054 7.31754 8.82125
2 1 7.43582 7.16767 8.13513
3 1 7.64309 7.92513 6.90943
4 1 8.6538 7.62007 6.08311
6 2 5.49442 7.91353 8.44395
7 2 8.24702 6.55752 8.61993
8 2 6.86672 8.68128 6.65462
9 2 9.34757 6.7908 6.42839
10 2 8.96984 8.29139 5.27487
5 2 6.11893 6.80304 9.77373
ITEM: TIMESTEP
1500
ITEM: NUMBER OF ATOMS
10
ITEM: BOX BOUNDS pp pp pp
0.0000000000000000e+00 1.5000000000000000e+01
0.0000000000000000e+00 1.5000000000000000e+01
0.0000000000000000e+00 1.5000000000000000e+01
ITEM: ATOMS id type x y z
1 1 6.42576 7.40779 8.95007
2 1 7.51899 7.32661 8.21424
3 1 7.58453 7.81548 6.86957
4 1 8.51106 7.49638 5.96314
6 2 5.4545 7.80107 8.489
7 2 8.44574 6.94839 8.53515
8 2 6.74506 8.48392 6.69641
9 2 9.34855 6.8754 6.29009
10 2 8.51549 7.77891 4.88847
5 2 6.37257 7.05481 10.0079
ITEM: TIMESTEP
1600
ITEM: NUMBER OF ATOMS
10
ITEM: BOX BOUNDS pp pp pp
0.0000000000000000e+00 1.5000000000000000e+01
0.0000000000000000e+00 1.5000000000000000e+01
0.0000000000000000e+00 1.5000000000000000e+01
ITEM: ATOMS id type x y z
10 2 8.17315 7.29698 4.9194
1 1 6.62422 7.52622 9.07351
2 1 7.62359 7.47238 8.20425
3 1 7.37339 7.70566 6.74251
4 1 8.39406 7.38353 5.94012
6 2 5.62767 7.83339 8.8359
7 2 8.62738 7.11444 8.55197
8 2 6.44639 8.157 6.37843
9 2 9.33656 7.06523 6.34009
5 2 6.82129 7.22621 10.1008
ITEM: TIMESTEP
1700
ITEM: NUMBER OF ATOMS
10
ITEM: BOX BOUNDS pp pp pp
0.0000000000000000e+00 1.5000000000000000e+01
0.0000000000000000e+00 1.5000000000000000e+01
0.0000000000000000e+00 1.5000000000000000e+01
ITEM: ATOMS id type x y z
10 2 7.95797 7.37172 4.7321
1 1 6.79798 7.72687 9.19412
2 1 7.68439 7.51459 8.196
3 1 7.30869 7.41367 6.79308
4 1 8.21024 7.32651 5.84509
6 2 5.73676 7.75251 8.91902
7 2 8.7871 7.49523 8.36258
8 2 6.27802 7.78624 6.47142
9 2 9.29251 7.03672 6.00861
5 2 7.06385 7.88771 10.2255
ITEM: TIMESTEP
1800
ITEM: NUMBER OF ATOMS
10
ITEM: BOX BOUNDS pp pp pp
0.0000000000000000e+00 1.5000000000000000e+01
0.0000000000000000e+00 1.5000000000000000e+01
0.0000000000000000e+00 1.5000000000000000e+01
ITEM: ATOMS id type x y z
10 2 7.53261 6.95469 4.8591
1 1 6.96982 7.91385 9.18122
2 1 7.76368 7.61203 8.17112
3 1 7.27414 7.26482 6.88047
4 1 8.03963 7.22274 5.76799
6 2 5.88404 8.03659 8.97362
7 2 8.82891 7.60275 8.1886
8 2 6.26002 7.05456 6.82889
9 2 9.07143 7.52421 5.76219
5 2 7.26339 7.96655 10.2719
ITEM: TIMESTEP
1900
ITEM: NUMBER OF ATOMS
10
ITEM: BOX BOUNDS pp pp pp
0.0000000000000000e+00 1.5000000000000000e+01
0.0000000000000000e+00 1.5000000000000000e+01
0.0000000000000000e+00 1.5000000000000000e+01
ITEM: ATOMS id type x y z
10 2 7.35122 6.86093 4.86184
1 1 7.14236 8.04337 9.17666
2 1 7.84581 7.69278 8.12071
3 1 7.17594 7.10794 6.93853
4 1 7.86455 7.11648 5.79225
6 2 6.07602 7.8332 9.29363
7 2 8.90119 8.01893 8.00707
8 2 6.13208 6.64169 6.94096
9 2 8.83974 7.59361 5.63274
5 2 7.65177 8.50816 9.98384
ITEM: TIMESTEP
2000
ITEM: NUMBER OF ATOMS
10
ITEM: BOX BOUNDS pp pp pp
0.0000000000000000e+00 1.5000000000000000e+01
0.0000000000000000e+00 1.5000000000000000e+01
0.0000000000000000e+00 1.5000000000000000e+01
ITEM: ATOMS id type x y z
1 1 7.32769 8.06887 9.22995
2 1 7.87099 7.8916 7.98584
3 1 7.20898 7.11565 6.9959
4 1 7.64441 6.9053 5.7739
6 2 6.41891 7.57841 9.47275
7 2 8.80129 8.449 7.76872
8 2 6.293 6.61615 7.35116
9 2 8.49918 7.51481 5.41433
10 2 7.10302 6.39809 4.97432
5 2 7.6962 8.77506 9.99411
ITEM: TIMESTEP
2100
ITEM: NUMBER OF ATOMS
10
ITEM: BOX BOUNDS pp pp pp
0.0000000000000000e+00 1.5000000000000000e+01
0.0000000000000000e+00 1.5000000000000000e+01
0.0000000000000000e+00 1.5000000000000000e+01
ITEM: ATOMS id type x y z
1 1 7.5792 8.09193 9.17508
2 1 7.77938 8.07066 7.86603
3 1 7.13793 7.09352 7.09219
4 1 7.50955 6.78667 5.82999
6 2 6.73491 7.49287 9.68022
7 2 8.58198 8.62919 7.4179
8 2 6.39718 6.55489 7.62507
9 2 8.15631 7.50204 5.35603
10 2 7.13205 5.9223 5.26878
5 2 8.08518 8.862 9.76129
ITEM: TIMESTEP
2200
ITEM: NUMBER OF ATOMS
10
ITEM: BOX BOUNDS pp pp pp
0.0000000000000000e+00 1.5000000000000000e+01
0.0000000000000000e+00 1.5000000000000000e+01
0.0000000000000000e+00 1.5000000000000000e+01
ITEM: ATOMS id type x y z
1 1 7.81903 8.23534 9.11672
2 1 7.72326 8.10337 7.79595
3 1 7.12186 6.92157 7.19423
4 1 7.35652 6.72194 5.88502
6 2 7.46424 7.55603 9.85138
7 2 8.15632 8.90673 7.18539
8 2 6.30055 6.3544 7.78785
9 2 8.07004 7.33643 5.29225
10 2 6.86774 5.99199 5.26969
5 2 8.14106 9.18113 9.55088
ITEM: TIMESTEP
2300
ITEM: NUMBER OF ATOMS
10
ITEM: BOX BOUNDS pp pp pp
0.0000000000000000e+00 1.5000000000000000e+01
0.0000000000000000e+00 1.5000000000000000e+01
0.0000000000000000e+00 1.5000000000000000e+01
ITEM: ATOMS id type x y z
1 1 7.96916 8.35233 9.05632
2 1 7.69319 8.166 7.73489
3 1 7.19451 6.94418 7.23121
4 1 7.1292 6.60449 5.96618
6 2 7.6073 7.57286 9.74517
7 2 7.95501 8.9519 6.98459
8 2 6.89121 6.20014 7.91198
9 2 7.39329 7.33858 5.22999
10 2 6.84387 5.59776 5.57076
5 2 8.51695 9.15675 9.51487
ITEM: TIMESTEP
2400
ITEM: NUMBER OF ATOMS
10
ITEM: BOX BOUNDS pp pp pp
0.0000000000000000e+00 1.5000000000000000e+01
0.0000000000000000e+00 1.5000000000000000e+01
0.0000000000000000e+00 1.5000000000000000e+01
ITEM: ATOMS id type x y z
1 1 8.04833 8.46028 8.91126
2 1 7.77786 8.13242 7.6727
3 1 7.32791 6.83887 7.33186
4 1 6.90093 6.61198 6.0679
6 2 8.00026 7.62751 9.66275
7 2 7.6749 8.86912 6.90455
8 2 7.35133 6.02978 8.07824
9 2 6.83016 7.34877 5.23509
10 2 6.50045 5.62423 5.907
5 2 8.43672 9.45935 9.19909
ITEM: TIMESTEP
2500
ITEM: NUMBER OF ATOMS
10
ITEM: BOX BOUNDS pp pp pp
0.0000000000000000e+00 1.5000000000000000e+01
0.0000000000000000e+00 1.5000000000000000e+01
0.0000000000000000e+00 1.5000000000000000e+01
ITEM: ATOMS id type x y z
1 1 8.20476 8.57626 8.79748
2 1 7.8078 8.15578 7.58318
3 1 7.4304 6.78366 7.32619
4 1 6.6391 6.52308 6.25585
6 2 8.4403 7.93525 9.61295
7 2 7.49921 8.84393 6.77924
8 2 7.73824 5.88946 7.96066
9 2 6.23873 7.23524 5.57058
10 2 6.29379 5.50384 6.09027
5 2 8.42137 9.57959 9.09908
ITEM: TIMESTEP
2600
ITEM: NUMBER OF ATOMS
10
ITEM: BOX BOUNDS pp pp pp
0.0000000000000000e+00 1.5000000000000000e+01
0.0000000000000000e+00 1.5000000000000000e+01
0.0000000000000000e+00 1.5000000000000000e+01
ITEM: ATOMS id type x y z
1 1 8.456 8.64504 8.57476
2 1 7.698 8.2073 7.56114
3 1 7.3955 6.83669 7.3186
4 1 6.47768 6.35807 6.54627
6 2 8.71054 7.81659 9.27302
7 2 7.35149 9.0173 6.79951
8 2 7.96879 6.11312 7.79791
9 2 5.75985 7.00684 5.99982
10 2 6.41014 5.28384 6.29616
5 2 8.76009 9.69966 8.718
ITEM: TIMESTEP
2700
ITEM: NUMBER OF ATOMS
10
ITEM: BOX BOUNDS pp pp pp
0.0000000000000000e+00 1.5000000000000000e+01
0.0000000000000000e+00 1.5000000000000000e+01
0.0000000000000000e+00 1.5000000000000000e+01
ITEM: ATOMS id type x y z
1 1 8.64317 8.66493 8.25771
2 1 7.59996 8.22414 7.53967
3 1 7.44097 6.79211 7.37556
4 1 6.32469 6.33396 6.7717
6 2 9.47707 8.1157 8.70697
7 2 6.87376 8.85019 7.15622
8 2 8.18126 6.18801 7.96907
9 2 5.68213 6.99671 6.19401
10 2 6.15847 5.2599 6.70118
5 2 8.69861 9.71861 8.49368
ITEM: TIMESTEP
2800
ITEM: NUMBER OF ATOMS
10
ITEM: BOX BOUNDS pp pp pp
0.0000000000000000e+00 1.5000000000000000e+01
0.0000000000000000e+00 1.5000000000000000e+01
0.0000000000000000e+00 1.5000000000000000e+01
ITEM: ATOMS id type x y z
1 1 8.74633 8.71809 7.98031
2 1 7.57346 8.21444 7.64629
3 1 7.4111 6.77942 7.4765
4 1 6.28471 6.27183 6.93152
6 2 9.64105 8.15683 8.26205
7 2 6.70799 8.92016 7.4082
8 2 8.27615 6.19545 7.78714
9 2 5.51561 6.97234 6.60936
10 2 6.05743 5.2503 6.63289
5 2 8.83221 9.82223 7.98171
ITEM: TIMESTEP
2900
ITEM: NUMBER OF ATOMS
10
ITEM: BOX BOUNDS pp pp pp
0.0000000000000000e+00 1.5000000000000000e+01
0.0000000000000000e+00 1.5000000000000000e+01
0.0000000000000000e+00 1.5000000000000000e+01
ITEM: ATOMS id type x y z
1 1 8.79582 8.75392 7.77291
2 1 7.56732 8.23125 7.63143
3 1 7.3548 6.80423 7.49606
4 1 6.26208 6.21814 7.11776
6 2 9.62724 8.06005 7.71776
7 2 6.74839 8.99295 7.71982
8 2 8.29419 6.25718 7.58775
9 2 5.44553 6.9318 6.93517
10 2 6.15772 5.13 6.97481
5 2 8.97088 9.80275 7.84471
ITEM: TIMESTEP
3000
ITEM: NUMBER OF ATOMS
10
ITEM: BOX BOUNDS pp pp pp
0.0000000000000000e+00 1.5000000000000000e+01
0.0000000000000000e+00 1.5000000000000000e+01
0.0000000000000000e+00 1.5000000000000000e+01
ITEM: ATOMS id type x y z
1 1 8.80728 8.74097 7.54458
2 1 7.58054 8.25041 7.57766
3 1 7.45107 6.76403 7.47868
4 1 6.18654 6.26046 7.39547
6 2 9.75765 8.24715 7.30682
7 2 6.68105 8.74086 7.79805
8 2 8.39296 6.19004 7.32538
9 2 5.30553 6.89103 7.40655
10 2 5.93697 5.20566 7.34577
5 2 8.89725 9.85002 7.72806
ITEM: TIMESTEP
3100
ITEM: NUMBER OF ATOMS
10
ITEM: BOX BOUNDS pp pp pp
0.0000000000000000e+00 1.5000000000000000e+01
0.0000000000000000e+00 1.5000000000000000e+01
0.0000000000000000e+00 1.5000000000000000e+01
ITEM: ATOMS id type x y z
1 1 8.79445 8.79267 7.26768
2 1 7.64224 8.1819 7.56631
3 1 7.39321 6.7587 7.4245
4 1 6.20108 6.27742 7.76591
6 2 9.68644 8.13443 7.02434
7 2 6.69819 8.8098 7.75746
8 2 8.17911 6.23168 6.89302
9 2 5.42602 6.88848 8.22089
10 2 6.01043 5.23731 7.49937
5 2 8.9379 9.85415 7.34757
ITEM: TIMESTEP
3200
ITEM: NUMBER OF ATOMS
10
ITEM: BOX BOUNDS pp pp pp
0.0000000000000000e+00 1.5000000000000000e+01
0.0000000000000000e+00 1.5000000000000000e+01
0.0000000000000000e+00 1.5000000000000000e+01
ITEM: ATOMS id type x y z
1 1 8.78548 8.73349 6.99573
2 1 7.63354 8.25945 7.50451
3 1 7.25052 6.84491 7.3781
4 1 6.3302 6.24609 8.0604
6 2 9.35544 8.02128 6.49511
7 2 6.90395 8.88214 8.00749
8 2 7.87872 6.12839 6.79542
9 2 5.56115 6.83104 8.61434
10 2 6.24705 5.13344 8.07431
5 2 9.17922 9.72005 7.26988
ITEM: TIMESTEP
3300
ITEM: NUMBER OF ATOMS
10
ITEM: BOX BOUNDS pp pp pp
0.0000000000000000e+00 1.5000000000000000e+01
0.0000000000000000e+00 1.5000000000000000e+01
0.0000000000000000e+00 1.5000000000000000e+01
ITEM: ATOMS id type x y z
1 1 8.66106 8.68759 6.76853
2 1 7.70366 8.20529 7.51524
3 1 7.26739 6.78809 7.38021
4 1 6.38611 6.35106 8.33541
6 2 9.3184 8.10521 6.04411
7 2 7.07335 8.78105 8.20169
8 2 7.60877 6.1925 6.51865
9 2 5.93 6.89205 9.13804
10 2 6.07946 5.3274 8.23043
5 2 9.0047 9.72962 6.75967
ITEM: TIMESTEP
3400
ITEM: NUMBER OF ATOMS
10
ITEM: BOX BOUNDS pp pp pp
0.0000000000000000e+00 1.5000000000000000e+01
0.0000000000000000e+00 1.5000000000000000e+01
0.0000000000000000e+00 1.5000000000000000e+01
ITEM: ATOMS id type x y z
1 1 8.55972 8.6273 6.51127
2 1 7.76842 8.17428 7.49697
3 1 7.24435 6.84442 7.50773
4 1 6.48136 6.38626 8.46971
6 2 8.69043 7.92374 5.67394
7 2 7.51569 8.75234 8.41218
8 2 7.40313 6.2593 6.6163
9 2 6.23953 7.03114 9.32599
10 2 6.05998 5.37586 8.4259
5 2 8.89217 9.68407 6.52058
ITEM: TIMESTEP
3500
ITEM: NUMBER OF ATOMS
10
ITEM: BOX BOUNDS pp pp pp
0.0000000000000000e+00 1.5000000000000000e+01
0.0000000000000000e+00 1.5000000000000000e+01
0.0000000000000000e+00 1.5000000000000000e+01
ITEM: ATOMS id type x y z
1 1 8.41157 8.5745 6.32366
2 1 7.8364 8.16818 7.48179
3 1 7.21149 6.86222 7.57404
4 1 6.56938 6.42316 8.6332
6 2 8.17929 8.04445 5.43794
7 2 8.04854 8.7642 8.35846
8 2 7.28617 6.22526 6.65759
9 2 6.43867 7.08049 9.51206
10 2 6.05921 5.43535 8.67661
5 2 8.93909 9.50182 6.17017
ITEM: TIMESTEP
3600
ITEM: NUMBER OF ATOMS
10
ITEM: BOX BOUNDS pp pp pp
0.0000000000000000e+00 1.5000000000000000e+01
0.0000000000000000e+00 1.5000000000000000e+01
0.0000000000000000e+00 1.5000000000000000e+01
ITEM: ATOMS id type x y z
1 1 8.24644 8.51972 6.22802
2 1 7.94271 8.07605 7.41288
3 1 7.18214 6.83579 7.54611
4 1 6.69443 6.53587 8.79251
6 2 8.04914 8.06445 5.19608
7 2 8.14994 8.6608 8.33749
8 2 6.98175 6.22517 6.68462
9 2 6.90768 7.15982 9.64633
10 2 5.94975 5.78359 8.96192
5 2 8.69147 9.52157 6.18545
ITEM: TIMESTEP
3700
ITEM: NUMBER OF ATOMS
10
ITEM: BOX BOUNDS pp pp pp
0.0000000000000000e+00 1.5000000000000000e+01
0.0000000000000000e+00 1.5000000000000000e+01
0.0000000000000000e+00 1.5000000000000000e+01
ITEM: ATOMS id type x y z
1 1 8.15726 8.45606 6.07805
2 1 7.93564 8.02939 7.35296
3 1 7.084 6.96558 7.68331
4 1 6.83077 6.5639 8.88557
6 2 7.63144 8.00239 5.2806
7 2 8.41114 8.56711 8.14261
8 2 6.82275 6.40925 6.74692
9 2 7.13297 7.20175 9.71647
10 2 6.22523 5.67546 9.08836
5 2 8.85446 9.27451 5.9147
ITEM: TIMESTEP
3800
ITEM: NUMBER OF ATOMS
10
ITEM: BOX BOUNDS pp pp pp
0.0000000000000000e+00 1.5000000000000000e+01
0.0000000000000000e+00 1.5000000000000000e+01
0.0000000000000000e+00 1.5000000000000000e+01
ITEM: ATOMS id type x y z
1 1 8.04141 8.32544 5.96273
2 1 7.98404 8.02712 7.26004
3 1 7.00483 7.07102 7.74683
4 1 6.98761 6.60817 9.00859
6 2 7.40055 7.82008 5.20716
7 2 8.63397 8.61838 7.98071
8 2 6.26196 6.6574 7.07968
9 2 7.7163 7.00088 9.78455
10 2 6.32396 5.82912 9.4306
5 2 8.67996 9.10366 5.5371
ITEM: TIMESTEP
3900
ITEM: NUMBER OF ATOMS
10
ITEM: BOX BOUNDS pp pp pp
0.0000000000000000e+00 1.5000000000000000e+01
0.0000000000000000e+00 1.5000000000000000e+01
0.0000000000000000e+00 1.5000000000000000e+01
ITEM: ATOMS id type x y z
1 1 7.8829 8.18303 5.86866
2 1 7.94593 7.92647 7.15697
3 1 6.91209 7.16368 7.84139
4 1 7.26525 6.7615 9.11301
6 2 7.05005 7.84425 5.22338
7 2 8.74422 8.31119 7.74433
8 2 5.8865 6.99146 7.47621
9 2 8.22147 6.91624 9.53751
10 2 6.561 6.14022 9.65103
5 2 8.62377 8.80861 5.37639
ITEM: TIMESTEP
4000
ITEM: NUMBER OF ATOMS
10
ITEM: BOX BOUNDS pp pp pp
0.0000000000000000e+00 1.5000000000000000e+01
0.0000000000000000e+00 1.5000000000000000e+01
0.0000000000000000e+00 1.5000000000000000e+01
ITEM: ATOMS id type x y z
1 1 7.63247 8.04813 5.75951
2 1 7.96283 7.86428 7.07006
3 1 7.07468 7.30724 8.00089
4 1 7.35631 6.87146 9.16566
6 2 6.58482 7.93977 5.56955
7 2 8.97668 7.97121 7.48923
8 2 6.03323 7.28564 7.60639
9 2 8.40679 6.86518 9.5498
10 2 6.64918 6.29537 9.75214
5 2 8.31559 8.31615 4.9451
ITEM: TIMESTEP
4100
ITEM: NUMBER OF ATOMS
10
ITEM: BOX BOUNDS pp pp pp
0.0000000000000000e+00 1.5000000000000000e+01
0.0000000000000000e+00 1.5000000000000000e+01
0.0000000000000000e+00 1.5000000000000000e+01
ITEM: ATOMS id type x y z
1 1 7.48618 7.99307 5.74672
2 1 7.9652 7.6837 6.95209
3 1 7.04261 7.34952 8.01874
4 1 7.53455 6.99961 9.24653
6 2 6.39613 7.93021 5.54096
7 2 9.07405 7.78235 7.19104
8 2 5.98835 7.4829 7.93025
9 2 8.57028 6.74567 9.43379
10 2 6.84147 6.8281 10.1003
5 2 8.08245 8.29535 4.90824
ITEM: TIMESTEP
4200
ITEM: NUMBER OF ATOMS
10
ITEM: BOX BOUNDS pp pp pp
0.0000000000000000e+00 1.5000000000000000e+01
0.0000000000000000e+00 1.5000000000000000e+01
0.0000000000000000e+00 1.5000000000000000e+01
ITEM: ATOMS id type x y z
5 2 8.03186 7.96971 4.83442
1 1 7.38388 7.9521 5.74753
2 1 7.88485 7.55239 6.90626
3 1 7.0739 7.4302 8.09574
4 1 7.66943 7.11339 9.25201
6 2 6.32901 8.21902 5.59424
7 2 8.91185 7.34121 6.97072
8 2 5.94979 7.46699 8.0101
9 2 8.76046 7.00248 9.32488
10 2 7.06872 6.93209 10.1454
ITEM: TIMESTEP
4300
ITEM: NUMBER OF ATOMS
10
ITEM: BOX BOUNDS pp pp pp
0.0000000000000000e+00 1.5000000000000000e+01
0.0000000000000000e+00 1.5000000000000000e+01
0.0000000000000000e+00 1.5000000000000000e+01
ITEM: ATOMS id type x y z
5 2 7.79552 7.95434 4.81458
1 1 7.26041 7.90977 5.73278
2 1 7.84349 7.44756 6.85369
3 1 7.19287 7.45503 8.11577
4 1 7.71979 7.20435 9.27415
6 2 6.21338 8.24263 5.74732
7 2 8.91307 7.08841 6.88181
8 2 6.14266 7.63405 8.00244
9 2 8.77164 6.97393 9.36816
10 2 7.18841 7.22639 10.2163
ITEM: TIMESTEP
4400
ITEM: NUMBER OF ATOMS
10
ITEM: BOX BOUNDS pp pp pp
0.0000000000000000e+00 1.5000000000000000e+01
0.0000000000000000e+00 1.5000000000000000e+01
0.0000000000000000e+00 1.5000000000000000e+01
ITEM: ATOMS id type x y z
5 2 7.70158 7.81379 4.76766
1 1 7.17572 7.79232 5.75029
2 1 7.80831 7.39412 6.84293
3 1 7.15032 7.55734 8.14588
4 1 7.86893 7.26091 9.26378
6 2 6.17416 8.19156 5.75659
7 2 8.81952 6.97658 6.70133
8 2 6.10882 7.93069 8.19634
9 2 8.87802 6.81872 9.18258
10 2 7.42223 7.46044 10.2673
ITEM: TIMESTEP
4500
ITEM: NUMBER OF ATOMS
10
ITEM: BOX BOUNDS pp pp pp
0.0000000000000000e+00 1.5000000000000000e+01
0.0000000000000000e+00 1.5000000000000000e+01
0.0000000000000000e+00 1.5000000000000000e+01
ITEM: ATOMS id type x y z
5 2 7.33622 7.29739 4.76708
1 1 6.99899 7.62988 5.74181
2 1 7.75383 7.3866 6.82482
3 1 7.27827 7.71395 8.177
4 1 7.99581 7.34852 9.23853
6 2 6.09005 8.29177 5.77267
7 2 8.59094 6.72265 6.81957
8 2 6.26334 8.18006 8.31567
9 2 8.93725 6.81867 9.04534
10 2 7.74485 7.43571 10.2757
ITEM: TIMESTEP
4600
ITEM: NUMBER OF ATOMS
10
ITEM: BOX BOUNDS pp pp pp
0.0000000000000000e+00 1.5000000000000000e+01
0.0000000000000000e+00 1.5000000000000000e+01
0.0000000000000000e+00 1.5000000000000000e+01
ITEM: ATOMS id type x y z
5 2 6.86254 7.18358 4.77379
1 1 6.76318 7.48669 5.83481
2 1 7.64861 7.26413 6.82175
3 1 7.46457 7.81323 8.15064
4 1 8.16066 7.47148 9.18382
6 2 5.90907 8.0784 6.13227
7 2 8.56302 6.57683 6.71015
8 2 6.74365 8.55268 8.02124
9 2 8.8012 6.59106 9.1784
10 2 8.02244 8.02432 10.127
ITEM: TIMESTEP
4700
ITEM: NUMBER OF ATOMS
10
ITEM: BOX BOUNDS pp pp pp
0.0000000000000000e+00 1.5000000000000000e+01
0.0000000000000000e+00 1.5000000000000000e+01
0.0000000000000000e+00 1.5000000000000000e+01
ITEM: ATOMS id type x y z
5 2 6.46246 6.56176 5.20733
1 1 6.57517 7.3471 5.93766
2 1 7.50811 7.11865 6.85751
3 1 7.5961 8.03769 8.04459
4 1 8.36974 7.57325 9.07753
6 2 5.82537 8.13477 6.00703
7 2 8.23397 6.32928 6.86636
8 2 7.0184 9.01557 8.2558
9 2 8.91275 6.60034 9.00279
10 2 8.37631 8.11813 10.046
ITEM: TIMESTEP
4800
ITEM: NUMBER OF ATOMS
10
ITEM: BOX BOUNDS pp pp pp
0.0000000000000000e+00 1.5000000000000000e+01
0.0000000000000000e+00 1.5000000000000000e+01
0.0000000000000000e+00 1.5000000000000000e+01
ITEM: ATOMS id type x y z
5 2 6.01004 6.49749 5.30638
1 1 6.44649 7.25423 6.01808
2 1 7.31926 7.01655 6.99803
3 1 7.72737 8.02032 7.99331
4 1 8.57157 7.74474 8.96141
6 2 5.84767 8.19191 6.0792
7 2 7.88996 6.07377 6.97056
8 2 7.19942 8.98431 7.90963
9 2 9.0364 6.79269 9.0658
10 2 8.75238 8.46485 9.73242
ITEM: TIMESTEP
4900
ITEM: NUMBER OF ATOMS
10
ITEM: BOX BOUNDS pp pp pp
0.0000000000000000e+00 1.5000000000000000e+01
0.0000000000000000e+00 1.5000000000000000e+01
0.0000000000000000e+00 1.5000000000000000e+01
ITEM: ATOMS id type x y z
1 1 6.32949 7.22748 6.13497
2 1 7.20607 6.9401 7.1121
3 1 7.74432 7.99342 7.93571
4 1 8.71751 7.85269 8.79304
6 2 5.90991 8.23292 6.11362
7 2 7.6836 5.94313 7.25878
8 2 7.3669 8.95547 7.68297
9 2 9.11794 6.85752 9.07888
10 2 9.09601 8.73637 9.37076
5 2 5.96527 6.41246 5.52901
ITEM: TIMESTEP
5000
ITEM: NUMBER OF ATOMS
10
ITEM: BOX BOUNDS pp pp pp
0.0000000000000000e+00 1.5000000000000000e+01
0.0000000000000000e+00 1.5000000000000000e+01
0.0000000000000000e+00 1.5000000000000000e+01
ITEM: ATOMS id type x y z
1 1 6.23064 7.1092 6.27744
2 1 7.16286 6.94739 7.20014
3 1 7.78484 8.1193 7.85579
4 1 8.86796 7.87345 8.65198
6 2 5.9201 8.00967 5.77217
7 2 7.30788 5.98229 7.632
8 2 7.40504 9.17155 7.63916
9 2 9.23369 6.82514 8.82007
10 2 9.29025 8.68431 9.23222
5 2 5.68926 6.25101 5.88133
ITEM: TIMESTEP
5100
ITEM: NUMBER OF ATOMS
10
ITEM: BOX BOUNDS pp pp pp
0.0000000000000000e+00 1.5000000000000000e+01
0.0000000000000000e+00 1.5000000000000000e+01
0.0000000000000000e+00 1.5000000000000000e+01
ITEM: ATOMS id type x y z
1 1 6.0789 7.02412 6.46207
2 1 7.04676 6.95443 7.37405
3 1 7.88389 8.07108 7.73415
4 1 8.97196 7.99229 8.45585
6 2 5.9355 8.02945 5.96153
7 2 7.13 6.00952 7.99525
8 2 7.62366 8.97529 7.22355
9 2 9.2094 7.11129 8.94305
10 2 9.78233 8.72599 8.5519
5 2 5.55403 6.11692 6.05692
ITEM: TIMESTEP
5200
ITEM: NUMBER OF ATOMS
10
ITEM: BOX BOUNDS pp pp pp
0.0000000000000000e+00 1.5000000000000000e+01
0.0000000000000000e+00 1.5000000000000000e+01
0.0000000000000000e+00 1.5000000000000000e+01
ITEM: ATOMS id type x y z
1 1 5.95202 6.99394 6.73247
2 1 7.03761 6.97207 7.54853
3 1 8.01288 7.99585 7.43267
4 1 9.0304 8.06358 8.27212
6 2 5.83594 7.76107 6.00161
7 2 7.13075 6.27956 8.36928
8 2 7.73897 8.82364 6.77721
9 2 9.18775 7.15434 8.97316
10 2 9.79699 8.82558 8.0664
5 2 5.23617 6.22316 6.78658
ITEM: TIMESTEP
5300
ITEM: NUMBER OF ATOMS
10
ITEM: BOX BOUNDS pp pp pp
0.0000000000000000e+00 1.5000000000000000e+01
0.0000000000000000e+00 1.5000000000000000e+01
0.0000000000000000e+00 1.5000000000000000e+01
ITEM: ATOMS id type x y z
1 1 5.86633 6.91347 6.97578
2 1 6.98791 7.05865 7.67335
3 1 8.0588 7.94121 7.21155
4 1 9.09988 8.10084 8.09153
6 2 5.66477 7.52017 6.06774
7 2 7.18744 6.51403 8.61466
8 2 7.90981 8.63607 6.36081
9 2 9.27756 7.47421 8.94771
10 2 9.99811 8.7031 7.88398
5 2 5.00876 6.28739 7.30084
ITEM: TIMESTEP
5400
ITEM: NUMBER OF ATOMS
10
ITEM: BOX BOUNDS pp pp pp
0.0000000000000000e+00 1.5000000000000000e+01
0.0000000000000000e+00 1.5000000000000000e+01
0.0000000000000000e+00 1.5000000000000000e+01
ITEM: ATOMS id type x y z
1 1 5.82705 6.9005 7.14536
2 1 6.96047 7.12688 7.79906
3 1 8.05469 7.86023 7.23536
4 1 9.17199 8.14244 7.83044
6 2 5.6978 7.45829 6.19081
7 2 7.1155 6.64719 8.78116
8 2 8.01444 8.12903 6.17951
9 2 9.26836 7.85509 8.84758
10 2 9.98166 8.64044 7.3377
5 2 4.96098 6.30964 7.49096
ITEM: TIMESTEP
5500
ITEM: NUMBER OF ATOMS
10
ITEM: BOX BOUNDS pp pp pp
0.0000000000000000e+00 1.5000000000000000e+01
0.0000000000000000e+00 1.5000000000000000e+01
0.0000000000000000e+00 1.5000000000000000e+01
ITEM: ATOMS id type x y z
1 1 5.80909 6.90694 7.31987
2 1 7.0001 7.1754 7.86716
3 1 8.02267 7.7843 7.09568
4 1 9.18418 8.12303 7.68158
6 2 5.63314 7.0028 6.28573
7 2 7.16144 7.11133 8.92215
8 2 7.8795 7.7441 5.99309
9 2 9.42793 8.00693 8.80367
10 2 9.92164 8.76719 7.14328
5 2 5.00414 6.64955 7.9554
ITEM: TIMESTEP
5600
ITEM: NUMBER OF ATOMS
10
ITEM: BOX BOUNDS pp pp pp
0.0000000000000000e+00 1.5000000000000000e+01
0.0000000000000000e+00 1.5000000000000000e+01
0.0000000000000000e+00 1.5000000000000000e+01
ITEM: ATOMS id type x y z
1 1 5.8237 6.83999 7.57216
2 1 6.99216 7.39066 7.94631
3 1 8.00039 7.71901 6.98438
4 1 9.21357 8.11311 7.44803
6 2 5.40618 6.6126 6.54425
7 2 7.20589 7.53377 9.06674
8 2 7.90125 7.30103 5.99372
9 2 9.37009 8.39147 8.45128
10 2 10.0335 8.35799 6.77868
5 2 5.02826 6.64653 8.34908
ITEM: TIMESTEP
5700
ITEM: NUMBER OF ATOMS
10
ITEM: BOX BOUNDS pp pp pp
0.0000000000000000e+00 1.5000000000000000e+01
0.0000000000000000e+00 1.5000000000000000e+01
0.0000000000000000e+00 1.5000000000000000e+01
ITEM: ATOMS id type x y z
1 1 5.87421 6.82698 7.91618
2 1 6.97351 7.57032 7.99899
3 1 8.00212 7.55559 7.01845
4 1 9.16608 8.11415 7.06082
6 2 5.77975 6.23852 6.99159
7 2 7.04204 8.0592 8.92141
8 2 7.77424 7.0077 6.06354
9 2 9.44884 8.59797 7.99929
10 2 9.91908 8.02142 6.30966
5 2 5.06457 6.89296 8.63682
ITEM: TIMESTEP
5800
ITEM: NUMBER OF ATOMS
10
ITEM: BOX BOUNDS pp pp pp
0.0000000000000000e+00 1.5000000000000000e+01
0.0000000000000000e+00 1.5000000000000000e+01
0.0000000000000000e+00 1.5000000000000000e+01
ITEM: ATOMS id type x y z
1 1 5.96409 6.87513 8.16223
2 1 7.00892 7.65998 7.99424