10
 Atoms. Timestep: 0
C 6.45127 7.11882 6.05078
C 7.27645 7.80725 6.87589
C 7.78741 7.19219 8.09004
C 8.5381 7.89289 8.97088
H 6.05928 7.59482 5.11633
H 6.12131 6.07811 6.24936
H 7.47625 8.87586 6.65396
H 7.51128 6.1329 8.20652
H 8.79587 8.92123 8.79233
H 8.84066 7.55016 9.94501
10
 Atoms. Timestep: 20
C 6.43966 7.1147 6.11654
C 7.28492 7.81309 6.86029
C 7.77056 7.19792 8.10263
C 8.5476 7.90313 8.8945
H 6.06314 7.51953 5.20547
H 6.04961 6.16001 6.36833
H 7.59911 8.80457 6.57231
H 7.63675 6.15753 8.29995
H 8.70551 8.99378 8.74504
H 8.81343 7.41149 9.85412
10
 Atoms. Timestep: 40
C 6.37802 7.11799 6.11213
C 7.28016 7.75774 6.87081
C 7.795 7.24423 8.05805
C 8.55198 7.92842 8.92141
H 5.99024 7.49014 5.15147
H 6.01742 6.14883 6.55178
H 7.7574 8.6995 6.55315
H 7.58873 6.17384 8.33082
H 8.72398 8.9984 8.73198
H 9.01519 7.41908 9.79538
10
 Atoms. Timestep: 60
C 6.33759 7.11429 6.16605
C 7.28613 7.7509 6.81426
C 7.83364 7.21389 8.08617
C 8.55105 7.95671 8.92393
H 5.94088 7.41944 5.19613
H 5.91309 6.17526 6.54227
H 7.78128 8.66849 6.45295
H 7.47826 6.18762 8.26364
H 8.83501 8.96819 8.769
H 9.125 7.58625 9.72255
10
 Atoms. Timestep: 80
C 6.29989 7.09854 6.22831
C 7.35057 7.74791 6.81768
C 7.80919 7.20452 8.0601
C 8.5849 7.96845 8.88755
H 5.90165 7.42896 5.26868
H 5.82762 6.20904 6.57163
H 7.69233 8.65451 6.32408
H 7.54216 6.19699 8.32261
H 8.83343 9.03827 8.5983
H 9.05954 7.57572 9.84188
10
 Atoms. Timestep: 100
C 6.27707 7.10246 6.24012
C 7.31087 7.67906 6.79658
C 7.86027 7.26574 8.07839
C 8.63009 7.96216 8.83484
H 5.84702 7.51918 5.33395
H 5.82388 6.22466 6.75631
H 7.72668 8.60554 6.37719
H 7.60787 6.23221 8.39471
H 8.8237 8.96608 8.47569
H 8.82508 7.61584 9.85154
10
 Atoms. Timestep: 120
C 6.23545 7.09166 6.25713
C 7.30888 7.65882 6.80623
C 7.86714 7.21134 8.03264
C 8.66067 8.02541 8.81186
H 5.71209 7.49547 5.37314
H 5.76115 6.24128 6.80821
H 7.81283 8.55297 6.40541
H 7.53436 6.24219 8.47103
H 9.02727 9.00993 8.54166
H 8.84347 7.75479 9.84242
10
 Atoms. Timestep: 140
C 6.1895 7.09148 6.31551
C 7.3387 7.65608 6.79644
C 7.90517 7.18858 8.06697
C 8.62688 8.0507 8.76856
H 5.668 7.39886 5.43162
H 5.69887 6.26854 6.74502
H 7.79357 8.51087 6.30384
H 7.45579 6.32433 8.48557
H 9.1464 8.97819 8.46638
H 8.99982 7.81814 9.77169
10
 Atoms. Timestep: 160
C 6.1662 7.10255 6.35304
C 7.30738 7.59249 6.77111
C 7.89017 7.26233 8.07076
C 8.70093 8.06217 8.79203
H 5.73045 7.4464 5.39262
H 5.69042 6.22774 6.87315
H 7.74477 8.42995 6.21524
H 7.4653 6.33411 8.5432
H 9.00475 8.92079 8.15274
H 9.10027 7.74375 9.79035
10
 Atoms. Timestep: 180
C 6.15348 7.07483 6.38999
C 7.32051 7.58333 6.80704
C 7.81684 7.3065 8.09766
C 8.74156 8.03236 8.6817
H 5.75911 7.42766 5.43129
H 5.62844 6.30044 7.01636
H 7.80673 8.34008 6.15309
H 7.54629 6.34405 8.58175
H 9.02913 8.9653 8.21725
H 9.15999 7.86039 9.63086
10
 Atoms. Timestep: 200
C 6.12803 7.03304 6.39536
C 7.26691 7.60047 6.80758
C 7.79691 7.26977 8.14648
C 8.82619 8.08721 8.59934
H 5.653 7.25198 5.45897
H 5.52665 6.46253 7.03196
H 7.92393 8.23372 6.22062
H 7.45963 6.37723 8.62225
H 9.17815 9.07976 8.26668
H 9.27438 7.87182 9.59598
10
 Atoms. Timestep: 220
C 6.09368 7.03463 6.40644
C 7.23835 7.57772 6.86089
C 7.87297 7.33486 8.13302
C 8.82539 8.08375 8.57865
H 5.64523 7.07667 5.39292
H 5.44498 6.50368 7.15111
H 7.88305 8.16678 6.2123
H 7.42289 6.52701 8.74256
H 9.17477 8.95999 8.02031
H 9.37075 7.80007 9.49579
10
 Atoms. Timestep: 240
C 6.08522 7.04923 6.51092
C 7.23263 7.55131 6.84138
C 7.82426 7.35198 8.11423
C 8.85786 8.09203 8.54179
H 5.83027 7.05839 5.44537
H 5.43908 6.45437 7.21269
H 7.74781 8.16114 6.08147
H 7.44433 6.62163 8.88616
H 9.23428 8.77555 7.78008
H 9.42845 7.88155 9.43326
10
 Atoms. Timestep: 260
C 6.0072 6.99528 6.55974
C 7.24923 7.54329 6.81813
C 7.80958 7.38878 8.20174
C 8.92991 8.08966 8.44741
H 5.72026 7.12837 5.51472
H 5.46399 6.39519 7.23812
H 7.77131 8.14218 6.03671
H 7.31613 6.65961 8.80775
H 9.45669 8.70281 7.69849
H 9.42008 8.08979 9.43112
10
 Atoms. Timestep: 280
C 6.04923 6.98426 6.56056
C 7.20523 7.49223 6.88737
C 7.81719 7.46128 8.14629
C 8.98137 8.06462 8.38933
H 5.39695 7.11886 5.6813
H 5.48457 6.37751 7.28017
H 7.77822 8.0268 6.17061
H 7.24545 6.84572 8.85138
H 9.52216 8.61108 7.61745
H 9.37855 8.22571 9.38682
10
 Atoms. Timestep: 300
C 6.01067 6.93797 6.60404
C 7.20679 7.49279 6.85548
C 7.82645 7.4753 8.14386
C 8.99451 8.06471 8.34143
H 5.36096 7.15787 5.71176
H 5.52633 6.34408 7.47825
H 7.79741 8.05119 6.09184
H 7.28558 7.16458 9.09236
H 9.52468 8.49055 7.48475
H 9.39851 8.18713 9.3612
10
 Atoms. Timestep: 320
C 5.98676 6.92558 6.70511
C 7.19413 7.48602 6.80298
C 7.81135 7.50173 8.18871
C 9.00766 8.07252 8.28719
H 5.53115 7.03411 5.7666
H 5.54748 6.39828 7.48989
H 7.67613 8.04894 5.97267
H 7.25198 7.31141 9.08911
H 9.59855 8.38646 7.42268
H 9.51935 8.12575 9.24407
10
 Atoms. Timestep: 340
C 5.95971 6.9215 6.73483
C 7.18145 7.47924 6.89566
C 7.80557 7.60672 8.12048
C 9.08091 8.05971 8.26772
H 5.48044 6.75842 5.73307
H 5.45258 6.43638 7.56699
H 7.56424 7.92072 6.00243
H 7.17002 7.25656 8.9341
H 9.63347 8.30257 7.35336
H 9.65733 8.14235 9.18692
10
 Atoms. Timestep: 360
C 5.96991 6.88053 6.7815
C 7.10712 7.50067 6.87345
C 7.83846 7.70601 8.14137
C 9.09512 8.01381 8.20022
H 5.487 6.61331 5.82545
H 5.35186 6.5402 7.67624
H 7.70212 7.81576 5.98969
H 7.24452 7.24541 8.97553
H 9.6516 8.26947 7.30774
H 9.62325 8.12975 9.13511
10
 Atoms. Timestep: 380
C 5.95483 6.82347 6.84513
C 7.11826 7.55029 6.85553
C 7.76614 7.70168 8.13575
C 9.11457 8.00345 8.12873
H 5.52407 6.56099 5.89897
H 5.39738 6.67583 7.75827
H 7.73607 7.69992 5.93367
H 7.40141 7.48409 9.15831
H 9.70494 8.26612 7.21831
H 9.63732 8.0597 9.13058
10
 Atoms. Timestep: 400
C 5.93766 6.83964 6.86114
C 7.09089 7.48743 6.90094
C 7.84542 7.73928 8.11182
C 9.11436 8.01701 8.10898
H 5.46261 6.47386 5.95953
H 5.47281 6.68064 7.80513
H 7.60371 7.66746 5.99085
H 7.29792 7.70681 9.0388
H 9.65994 8.16702 7.20671
H 9.697 8.02401 8.99067
10
 Atoms. Timestep: 420
C 5.90499 6.86417 6.91684
C 7.11 7.40976 6.90627
C 7.83356 7.79141 8.09781
C 9.17982 8.02792 8.08243
H 5.37252 6.475 5.99669
H 5.39257 6.53086 7.88491
H 7.56059 7.70327 5.93687
H 7.14545 7.78853 8.97256
H 9.67408 8.023 7.0862
H 9.80859 8.13976 8.99161
10
 Atoms. Timestep: 440
C 5.91529 6.84074 7.00899
C 7.1461 7.39625 6.88248
C 7.82519 7.8269 8.0836
C 9.11943 7.98963 8.03003
H 5.37728 6.66976 6.1115
H 5.39977 6.51953 7.89843
H 7.58191 7.6312 5.87229
H 7.27923 7.8662 9.03167
H 9.69492 7.85666 7.09853
H 9.75481 8.35556 8.84597
10
 Atoms. Timestep: 460
C 5.88627 6.80308 7.00649
C 7.07563 7.38525 6.91086
C 7.84555 7.82152 8.05802
C 9.19725 8.01502 7.99887
H 5.26143 6.71177 6.10406
H 5.50859 6.63443 8.00642
H 7.56488 7.49801 5.97762
H 7.38 7.99268 9.02739
H 9.68859 7.7221 7.08154
H 9.6923 8.51178 8.84652
10
 Atoms. Timestep: 480
C 5.87541 6.82209 7.02798
C 7.0775 7.37505 6.95266
C 7.89081 7.80827 8.05459
C 9.17236 8.02668 7.94308
H 5.18236 6.51079 6.2207
H 5.44782 6.73239 8.0644
H 7.54347 7.44253 5.95477
H 7.33384 8.13421 8.93763
H 9.79709 7.73726 7.10623
H 9.72286 8.47029 8.73541
10
 Atoms. Timestep: 500
C 5.86102 6.86419 7.12969
C 7.10171 7.32685 6.91609
C 7.84511 7.83033 8.04277
C 9.18763 8.02606 7.89848
H 5.33891 6.34794 6.33603
H 5.30807 6.79479 8.06009
H 7.55276 7.41332 5.89372
H 7.30873 8.18189 8.94824
H 9.8181 7.76398 6.9942
H 9.82457 8.43345 8.7345
10
 Atoms. Timestep: 520
C 5.83431 6.85545 7.17737
C 7.07878 7.29938 6.92504
C 7.89666 7.90671 7.98084
C 9.19735 8.02496 7.89723
H 5.40524 6.28524 6.34332
H 5.3603 6.95163 8.14541
H 7.53524 7.22017 5.95979
H 7.36871 8.0693 8.91293
H 9.58788 7.77688 6.93601
H 9.82402 8.39779 8.70864
10
 Atoms. Timestep: 540
C 5.86839 6.83232 7.18524
C 7.07366 7.30727 6.97045
C 7.86342 7.94207 7.95066
C 9.20691 8.02955 7.85173
H 5.21425 6.29994 6.47184
H 5.41486 7.07003 8.16346
H 7.52072 6.96841 6.03217
H 7.4148 8.05938 8.94478
H 9.64493 7.79347 6.88437
H 9.84016 8.36149 8.6439
10
 Atoms. Timestep: 560
C 5.82448 6.83454 7.24075
C 7.07986 7.26113 6.93793
C 7.88069 7.93439 7.99144
C 9.19373 8.05388 7.77159
H 5.13348 6.31003 6.59276
H 5.35961 7.12307 8.19719
H 7.66401 6.89712 6.02764
H 7.3986 8.21922 8.94875
H 9.82948 7.79943 6.87088
H 9.86627 8.36749 8.60151
10
 Atoms. Timestep: 580
C 5.81441 6.88771 7.28497
C 7.06855 7.18499 6.98567
C 7.90683 7.87833 7.93275
C 9.20523 8.08221 7.75409
H 5.20053 6.28627 6.6177
H 5.38297 7.16821 8.23205
H 7.60546 6.9837 6.08721
H 7.44177 8.3238 8.8088
H 9.68818 7.74194 6.85263
H 9.835 8.51659 8.54577
10
 Atoms. Timestep: 600
C 5.80837 6.92188 7.31642
C 7.10454 7.14008 7.04299
C 7.91633 7.86864 7.89934
C 9.22225 8.0851 7.7386
H 5.20171 6.30369 6.60777
H 5.39448 7.2209 8.2951
H 7.40357 6.89286 6.0219
H 7.41398 8.31296 8.76035
H 9.61841 7.66403 6.83144
H 9.78288 8.7313 8.38833
10
 Atoms. Timestep: 620
C 5.81464 6.91525 7.35846
C 7.07208 7.09601 7.0147
C 7.93641 7.91036 7.95201
C 9.21979 8.08924 7.67961
H 5.11544 6.44719 6.69812
H 5.3563 7.24949 8.28636
H 7.42122 6.68661 6.01391
H 7.3759 8.30267 8.8152
H 9.79995 7.61539 6.83264
H 9.79767 8.85357 8.21402
10
 Atoms. Timestep: 640
C 5.78672 6.90109 7.38946
C 7.08415 7.09836 7.04929
C 7.92016 7.86482 7.90026
C 9.21158 8.13051 7.62256
H 4.99956 6.47159 6.75547
H 5.41029 7.35346 8.31841
H 7.56863 6.63025 6.22194
H 7.48883 8.36093 8.78315
H 9.77806 7.58489 6.86628
H 9.86302 8.85017 8.1743
10
 Atoms. Timestep: 660
C 5.7948 6.94152 7.41137
C 7.07084 7.04683 7.10862
C 7.94886 7.88013 7.87217
C 9.19479 8.13943 7.5685
H 5.06064 6.36421 6.8317
H 5.48482 7.453 8.31412
H 7.61286 6.5852 6.28883
H 7.51271 8.41591 8.70661
H 9.62505 7.60192 6.76638
H 9.77216 8.75225 8.21741
10
 Atoms. Timestep: 680
C 5.78842 6.97463 7.44015
C 7.10261 6.99005 7.13858
C 7.92278 7.93984 7.89077
C 9.2217 8.12064 7.52305
H 5.13844 6.2506 6.94632
H 5.38259 7.54731 8.28498
H 7.46115 6.40646 6.21571
H 7.44132 8.44754 8.7415
H 9.64123 7.67476 6.55243
H 9.84625 8.74232 8.19274
10
 Atoms. Timestep: 700
C 5.79103 6.94918 7.47044
C 7.08103 7.01017 7.17385
C 7.95372 7.93769 7.83556
C 9.2056 8.12328 7.51508
H 5.11361 6.23281 7.03739
H 5.29672 7.6206 8.18176
H 7.40602 6.33565 6.4179
H 7.50702 8.40122 8.72145
H 9.63049 7.76874 6.58454
H 9.98178 8.73901 7.97639
10
 Atoms. Timestep: 720
C 5.76125 6.93342 7.51872
C 7.04451 7.02586 7.18676
C 7.96584 7.92192 7.82753
C 9.23991 8.14287 7.4412
H 5.0841 6.18991 7.03798
H 5.29209 7.70158 8.13983
H 7.55862 6.28599 6.58419
H 7.61963 8.42909 8.73942
H 9.57734 7.63888 6.55952
H 9.92318 8.83015 7.98282
10
 Atoms. Timestep: 740
C 5.78796 6.97228 7.5303
C 7.08824 7.00296 7.22363
C 7.96781 7.94591 7.87234
C 9.16262 8.12107 7.35054
H 5.14768 6.2143 7.12185
H 5.31714 7.70864 8.16735
H 7.58761 6.2041 6.56367
H 7.66011 8.52024 8.74252
H 9.62223 7.50308 6.53483
H 9.74947 8.8163 7.89792
10
 Atoms. Timestep: 760
C 5.76757 6.97607 7.51808
C 7.09043 6.94885 7.32034
C 7.96408 7.9455 7.86
C 9.19757 8.13904 7.31164
H 5.10245 6.18779 7.1507
H 5.36506 7.71553 8.23935
H 7.45814 6.28743 6.57058
H 7.59014 8.59494 8.66918
H 9.59063 7.46888 6.50955
H 9.89966 8.9086 7.68931
10
 Atoms. Timestep: 780
C 5.75708 6.97073 7.56236
C 7.06927 6.90916 7.37275
C 8.0142 7.96028 7.81715
C 9.20815 8.14759 7.31216
H 5.0488 6.26597 7.11074
H 5.33128 7.69123 8.26057
H 7.4643 6.24871 6.62089
H 7.55371 8.6447 8.53718
H 9.47963 7.50733 6.53479
H 9.95411 8.93548 7.43835
10
 Atoms. Timestep: 800
C 5.79908 6.98374 7.64019
C 7.11506 6.9281 7.3592
C 7.95654 7.97345 7.82671
C 9.18071 8.11051 7.2423
H 5.08968 6.36876 7.09658
H 5.29048 7.71056 8.26051
H 7.53596 6.05725 6.72931
H 7.59336 8.74803 8.50925
H 9.49121 7.37344 6.44457
H 9.81495 8.98718 7.43839
10
 Atoms. Timestep: 820
C 5.78019 6.96115 7.67726
C 7.08342 6.93928 7.3885
C 8.0002 7.99648 7.78338
C 9.15859 8.09988 7.17356
H 5.10477 6.24707 7.1801
H 5.41874 7.83675 8.26874
H 7.55772 6.11791 6.87984
H 7.61691 8.7501 8.48166
H 9.55961 7.32902 6.47228
H 9.73183 8.95838 7.4702
10
 Atoms. Timestep: 840
C 5.76233 6.95926 7.68449
C 7.05767 6.93235 7.45635
C 7.98398 7.99012 7.71759
C 9.19154 8.12381 7.13978
H 5.07212 6.13095 7.48932
H 5.39477 7.83033 8.21302
H 7.48683 6.14439 6.89105
H 7.6865 8.75992 8.44211
H 9.59692 7.39239 6.49764
H 9.9137 8.92872 7.36658
10
 Atoms. Timestep: 860
C 5.77836 7.00389 7.73707
C 7.10673 6.89427 7.4504
C 7.97021 8.03697 7.6858
C 9.17315 8.10791 7.12913
H 5.14707 6.12489 7.76941
H 5.21653 7.82656 8.15955
H 7.43916 5.9551 6.86143
H 7.67452 8.80969 8.38771
H 9.54912 7.35462 6.41078
H 9.92687 8.89093 7.28577
10
 Atoms. Timestep: 880
C 5.82312 6.99286 7.83129
C 7.07108 6.91416 7.42385
C 7.97877 8.04772 7.64938
C 9.18073 8.07895 7.08606
H 5.20922 6.07435 7.79031
H 5.32281 7.96215 8.11329
H 7.50391 5.96591 7.10219
H 7.549 8.83308 8.2979
H 9.4091 7.24973 6.35489
H 9.80777 8.93261 7.28693
10
 Atoms. Timestep: 900
C 5.81529 6.95858 7.9095
C 7.08692 6.95781 7.45315
C 7.94609 8.0251 7.59131
C 9.1583 8.06221 7.03709
H 5.12662 6.1148 7.7921
H 5.51424 7.9761 8.1628
H 7.55758 6.03734 7.26568
H 7.56734 8.89035 8.15136
H 9.4826 7.26807 6.41165
H 9.83609 8.91114 7.15903
10
 Atoms. Timestep: 920
C 5.81925 6.98351 7.9293
C 7.08144 6.86554 7.54721
C 7.93743 8.11018 7.53726
C 9.15338 8.05565 6.97941
H 5.07249 6.22246 7.91239
H 5.40354 7.87326 8.36018
H 7.58981 5.91028 7.14328
H 7.62284 9.02131 8.0357
H 9.6208 7.20604 6.47915
H 9.86553 8.89735 6.99921
10
 Atoms. Timestep: 940
C 5.82825 7.00645 7.95968
C 7.12309 6.867 7.62573
C 7.94868 8.09445 7.48277
C 9.14979 8.06112 6.92797
H 5.10535 6.13716 7.99191
H 5.39365 7.89704 8.50316
H 7.42348 5.96231 7.0709
H 7.56064 9.05091 7.87793
H 9.56947 7.04872 6.60749
H 9.77258 8.9497 6.8607
10
 Atoms. Timestep: 960
C 5.87253 7.00358 8.0582
C 7.10479 6.95744 7.61687
C 7.93984 8.03644 7.46878
C 9.1275 8.02517 6.89684
H 5.27777 6.09835 7.97541
H 5.5307 7.95385 8.4464
H 7.39571 6.04793 7.1916
H 7.43121 8.98987 7.68526
H 9.54075 7.06792 6.66829
H 9.6799 8.92625 6.67797
10
 Atoms. Timestep: 980
C 5.87179 7.00937 8.1828
C 7.08143 6.92291 7.55838
C 7.92039 8.11954 7.44414
C 9.14116 7.97556 6.86437
H 5.25321 6.13574 8.13483
H 5.44055 7.96342 8.43991
H 7.58684 5.92027 7.30242
H 7.43147 9.0777 7.59442
H 9.65567 7.06224 6.61228
H 9.66762 8.89636 6.50697
10
 Atoms. Timestep: 1000
C 5.92246 6.99367 8.19906
C 7.08948 6.92327 7.59769
C 7.89924 8.12177 7.34124
C 9.10579 7.99032 6.84116
H 5.19346 6.19256 8.50111
H 5.39046 7.94071 8.4651
H 7.57701 5.96108 7.37388
H 7.55348 9.1394 7.55511
H 9.59834 7.00156 6.61695
H 9.70935 8.81046 6.50195
10
 Atoms. Timestep: 1020
C 5.90051 6.99914 8.22347
C 7.11683 6.95812 7.67624
C 7.85961 8.08803 7.23883
C 9.10827 7.98682 6.77997
H 5.44047 6.10826 8.74597
H 5.54773 8.02673 8.42983
H 7.51574 6.01947 7.41901
H 7.49564 9.0975 7.5254
H 9.4229 6.94308 6.65851
H 9.7902 8.83231 6.59921
10
 Atoms. Timestep: 1040
C 5.95032 7.06013 8.30102
C 7.13045 6.94018 7.6836
C 7.82637 8.12737 7.2027
C 9.06619 7.92909 6.73927
H 5.61271 6.17403 8.71443
H 5.5086 8.01489 8.44675
H 7.60521 5.9231 7.51917
H 7.31006 9.05918 7.39713
H 9.46998 6.95854 6.60358
H 9.77747 8.74964 6.64837
10
 Atoms. Timestep: 1060
C 6.00108 7.07131 8.39917
C 7.12021 6.95126 7.65604
C 7.81388 8.09464 7.18544
C 9.0765 7.93606 6.70186
H 5.42634 6.1793 8.77746
H 5.37067 7.99749 8.52251
H 7.66584 5.99233 7.6703
H 7.3014 9.06286 7.20763
H 9.52358 6.91353 6.56879
H 9.76613 8.75486 6.48725
10
 Atoms. Timestep: 1080
C 5.9999 7.0504 8.44367
C 7.08365 6.96631 7.7219
C 7.85747 8.05953 7.11933
C 9.07217 7.95386 6.68861
H 5.41123 6.19098 8.87216
H 5.48441 8.01769 8.54041
H 7.61486 6.04763 7.67039
H 7.39201 9.06602 7.09239
H 9.51095 6.94764 6.63511
H 9.63138 8.7694 6.23748
10
 Atoms. Timestep: 1100
C 5.99404 7.09443 8.43805
C 7.15841 6.96269 7.76913
C 7.77966 8.07102 7.11265
C 9.05207 7.9043 6.67012
H 5.61297 6.23695 8.92239
H 5.59448 8.06945 8.59114
H 7.54852 5.91967 7.58937
H 7.35679 9.07115 7.0461
H 9.62093 6.99278 6.7343
H 9.48517 8.73532 6.066
10
 Atoms. Timestep: 1120
C 6.0311 7.13016 8.45428
C 7.16988 6.95207 7.78633
C 7.79339 8.05761 7.11756
C 9.01333 7.8947 6.5999
H 5.61851 6.28104 9.00219
H 5.5767 8.12349 8.6648
H 7.57764 5.94996 7.59206
H 7.17706 8.95302 7.01834
H 9.6447 7.03895 6.85054
H 9.4832 8.66629 6.01269
10
 Atoms. Timestep: 1140
C 6.06172 7.13013 8.53451
C 7.13766 6.95184 7.78979
C 7.82023 8.02352 7.0975
C 9.01182 7.92786 6.53423
H 5.4674 6.31778 9.05816
H 5.58408 8.12695 8.63262
H 7.63205 6.00724 7.73466
H 7.12336 8.8725 6.928
H 9.58061 7.02456 6.85598
H 9.54791 8.67091 5.94337
10
 Atoms. Timestep: 1160
C 6.09 7.1606 8.57994
C 7.17277 6.93273 7.80776
C 7.7431 8.02068 7.04162
C 8.99164 7.90917 6.56488
H 5.53927 6.39019 9.05878
H 5.64539 8.12318 8.55608
H 7.6729 5.92683 7.8855
H 7.21972 8.95788 6.8326
H 9.58526 7.00783 6.6614
H 9.4764 8.67501 5.92944
10
 Atoms. Timestep: 1180
C 6.09467 7.18319 8.58321
C 7.1874 6.9423 7.86666
C 7.72219 7.98895 6.97909
C 8.99281 7.8861 6.55017
H 5.66966 6.40419 9.20583
H 5.64233 8.19605 8.52121
H 7.71319 5.97762 7.86694
H 7.19501 8.93704 6.87747
H 9.56504 6.9692 6.55958
H 9.3564 8.73268 5.98318
10
 Atoms. Timestep: 1200
C 6.09352 7.19381 8.59141
C 7.19181 6.98342 7.86581
C 7.75168 7.92078 6.99519
C 8.9641 7.89261 6.4655
H 5.74394 6.5008 9.41728
H 5.54865 8.17203 8.56212
H 7.71921 6.06089 7.89665
H 7.11608 8.81968 6.93021
H 9.57405 6.96333 6.58308
H 9.41547 8.75957 5.99211
10
 Atoms. Timestep: 1220
C 6.1286 7.23463 8.61946
C 7.18692 6.9306 7.8747
C 7.74147 7.96389 7.00797
C 8.92393 7.86854 6.41739
H 5.81699 6.58378 9.40676
H 5.51591 8.08667 8.54548
H 7.7475 5.97971 8.07807
H 7.10825 8.84576 6.84687
H 9.60867 7.04182 6.59337
H 9.44119 8.69636 5.90136
10
 Atoms. Timestep: 1240
C 6.15116 7.24025 8.67393
C 7.20463 6.92037 7.89747
C 7.71474 7.98401 6.98804
C 8.92964 7.85445 6.40538
H 5.80284 6.52695 9.4135
H 5.5668 8.16385 8.42565
H 7.78142 6.00916 8.15283
H 7.1317 8.88465 6.79746
H 9.56672 7.01071 6.61154
H 9.27352 8.63014 5.69909
10
 Atoms. Timestep: 1260
C 6.17698 7.21984 8.67557
C 7.24477 7.01854 7.94434
C 7.71528 7.91863 6.97253
C 8.89191 7.85623 6.40322
H 5.71021 6.56598 9.43018
H 5.6554 8.17892 8.47198
H 7.8331 6.14256 8.0223
H 7.08486 8.79738 6.80976
H 9.51657 6.96587 6.59231
H 9.15022 8.48978 5.5885
10
 Atoms. Timestep: 1280
C 6.14478 7.25037 8.6825
C 7.31533 7.03327 8.01789
C 7.68712 7.94811 6.96704
C 8.87581 7.80729 6.34022
H 5.72549 6.55304 9.42942
H 5.61996 8.16937 8.62622
H 7.93022 6.09058 8.00776
H 6.95024 8.7421 6.72007
H 9.56928 6.96212 6.56585
H 9.19062 8.46854 5.49377
10
 Atoms. Timestep: 1300
C 6.19229 7.25752 8.70013
C 7.31457 7.04227 8.04745
C 7.70083 7.98021 6.96548
C 8.81192 7.76034 6.27281
H 5.83489 6.5198 9.3779
H 5.58706 8.18319 8.63991
H 7.89047 6.11197 8.2529
H 6.96491 8.68891 6.61706
H 9.52838 7.04534 6.57528
H 9.20066 8.42881 5.5107
10
 Atoms. Timestep: 1320
C 6.21579 7.25741 8.76172
C 7.31023 7.09597 8.01998
C 7.70783 7.93042 6.97045
C 8.79854 7.74883 6.22457
H 5.89012 6.48208 9.49124
H 5.55374 8.14956 8.51452
H 7.89225 6.28043 8.35282
H 7.01409 8.72414 6.65367
H 9.50075 6.97346 6.60557
H 9.07873 8.41455 5.41087
10
 Atoms. Timestep: 1340
C 6.2188 7.28773 8.75904
C 7.32813 7.09819 8.06535
C 7.67092 7.92816 6.91218
C 8.79068 7.72513 6.25655
H 5.9788 6.67413 9.62159
H 5.48188 7.98253 8.50923
H 8.12977 6.33263 8.26026
H 7.01984 8.8095 6.76689
H 9.51354 6.88969 6.42562
H 8.94899 8.29621 5.34668
10
 Atoms. Timestep: 1360
C 6.22994 7.28182 8.77518
C 7.38272 7.11665 8.07302
C 7.62234 7.92815 6.9353
C 8.76833 7.69509 6.22209
H 6.07726 6.84803 9.77571
H 5.39744 7.94902 8.43512
H 8.19463 6.37271 8.3067
H 7.01722 8.80338 6.71443
H 9.42069 6.85939 6.33465
H 8.9968 8.25723 5.28886
10
 Atoms. Timestep: 1380
C 6.2818 7.26999 8.80968
C 7.3711 7.14555 8.11082
C 7.67879 7.92415 6.9209
C 8.68669 7.67513 6.13091
H 6.14307 6.89467 9.81589
H 5.48372 7.91434 8.33982
H 8.10185 6.50091 8.48509
H 6.95913 8.69631 6.64577
H 9.29327 6.81819 6.43743
H 9.03269 8.3067 5.33117
10
 Atoms. Timestep: 1400
C 6.28054 7.31754 8.82125
C 7.43582 7.16767 8.13513
C 7.64309 7.92513 6.90943
C 8.6538 7.62007 6.08311
H 6.11893 6.80304 9.77373
H 5.49442 7.91353 8.44395
H 8.24702 6.55752 8.61993
H 6.86672 8.68128 6.65462
H 9.34757 6.7908 6.42839
H 8.96984 8.29139 5.27487
10
 Atoms. Timestep: 1420
C 6.30864 7.34486 8.82216
C 7.47531 7.23305 8.1819
C 7.59759 7.87702 6.90339
C 8.64072 7.58981 6.10327
H 6.06804 6.71971 9.68921
H 5.46381 7.971 8.5366
H 8.38113 6.6459 8.50793
H 6.89345 8.6678 6.69143
H 9.39573 6.86348 6.26117
H 8.78825 8.08375 5.13831
10
 Atoms. Timestep: 1440
C 6.32814 7.32327 8.88356
C 7.47381 7.31081 8.21625
C 7.63325 7.84467 6.89524
C 8.62631 7.59049 6.05543
H 6.08901 6.69205 9.75093
H 5.53256 8.03998 8.46889
H 8.28445 6.68894 8.46575
H 6.89393 8.59252 6.60426
H 9.41118 6.85088 6.28467
H 8.54376 7.94016 5.0116
10
 Atoms. Timestep: 1460
C 6.35499 7.34207 8.87935
C 7.52144 7.3133 8.21687
C 7.63807 7.91099 6.90615
C 8.55885 7.53664 6.02181
H 6.19805 6.82488 9.79562
H 5.55643 7.94116 8.51601
H 8.27354 6.61675 8.64535
H 6.77222 8.46691 6.45961
H 9.42447 6.88846 6.33456
H 8.45912 7.86381 4.99276
10
 Atoms. Timestep: 1480
C 6.37636 7.38727 8.88483
C 7.5451 7.29218 8.21726
C 7.61539 7.92792 6.89733
C 8.51928 7.48726 5.99388
H 6.31437 6.94355 9.90137
H 5.46188 7.865 8.54316
H 8.40661 6.70676 8.66895
H 6.69226 8.40322 6.57661
H 9.38615 6.94163 6.28213
H 8.52596 7.79205 4.95699
10
 Atoms. Timestep: 1500
C 6.42576 7.40779 8.95007
C 7.51899 7.32661 8.21424
C 7.58453 7.81548 6.86957
C 8.51106 7.49638 5.96314
H 6.37257 7.05481 10.0079
H 5.4545 7.80107 8.489
H 8.44574 6.94839 8.53515
H 6.74506 8.48392 6.69641
H 9.34855 6.8754 6.29009
H 8.51549 7.77891 4.88847
10
 Atoms. Timestep: 1520
C 6.47232 7.42025 8.98144
C 7.56034 7.36259 8.20413
C 7.49128 7.74101 6.81607
C 8.48331 7.4863 5.99354
H 6.43279 7.18712 10.0042
H 5.56422 7.74605 8.53784
H 8.54159 7.04048 8.62027
H 6.79457 8.57006 6.52482
H 9.3043 6.77107 6.26129
H 8.44298 7.8443 4.96952
10
 Atoms. Timestep: 1540
C 6.5032 7.44333 9.01271
C 7.5861 7.38286 8.22147
C 7.44515 7.75961 6.79326
C 8.47225 7.42939 5.96092
H 6.56281 7.2595 10.1076
H 5.54617 7.72997 8.60205
H 8.57862 7.08037 8.66319
H 6.65359 8.40361 6.37517
H 9.25897 6.73773 6.21387
H 8.48364 7.91772 4.99698
10
 Atoms. Timestep: 1560
C 6.55222 7.47432 9.04039
C 7.54705 7.4223 8.20018
C 7.50169 7.75512 6.80747
C 8.4132 7.40299 5.932
H 6.67921 7.27279 10.1256
H 5.49741 7.7275 8.71307
H 8.51335 7.14912 8.5162
H 6.54955 8.1436 6.50917
H 9.24903 6.79576 6.23195
H 8.55048 7.80278 4.91276
10
 Atoms. Timestep: 1580
C 6.56624 7.50875 9.05894
C 7.5863 7.44943 8.16826
C 7.45396 7.73777 6.80227
C 8.41039 7.39135 5.92902
H 6.7705 7.24713 10.0744
H 5.53547 7.76038 8.84743
H 8.59357 7.13622 8.51568
H 6.41722 8.11658 6.54094
H 9.34274 6.88398 6.34378
H 8.36318 7.55193 4.81584
10
 Atoms. Timestep: 1600
C 6.62422 7.52622 9.07351
C 7.62359 7.47238 8.20425
C 7.37339 7.70566 6.74251
C 8.39406 7.38353 5.94012
H 6.82129 7.22621 10.1008
H 5.62767 7.83339 8.8359
H 8.62738 7.11444 8.55197
H 6.44639 8.157 6.37843
H 9.33656 7.06523 6.34009
H 8.17315 7.29698 4.9194
10
 Atoms. Timestep: 1620
C 6.68261 7.54234 9.13709
C 7.60492 7.51009 8.17548
C 7.37789 7.67496 6.786
C 8.34364 7.36029 5.90446
H 6.8131 7.26096 10.2274
H 5.67226 7.89982 8.76658
H 8.58056 7.16846 8.42333
H 6.47588 8.02013 6.34691
H 9.33305 7.16212 6.28814
H 8.1948 7.18241 4.81847
10
 Atoms. Timestep: 1640
C 6.70277 7.58902 9.12963
C 7.6252 7.51427 8.18874
C 7.37681 7.66362 6.76757
C 8.30164 7.31143 5.90447
H 6.8714 7.39603 10.1506
H 5.67701 7.87029 8.92265
H 8.67965 7.23354 8.35615
H 6.27382 7.81788 6.50896
H 9.36013 7.12572 6.22194
H 8.22344 7.30648 4.78624
10
 Atoms. Timestep: 1660
C 6.70838 7.64487 9.12158
C 7.68221 7.51178 8.16682
C 7.31903 7.60557 6.76821
C 8.2981 7.2986 5.87587
H 7.04621 7.52964 10.1704
H 5.64903 7.82829 8.97814
H 8.74557 7.32057 8.50316
H 6.23525 7.71372 6.58009
H 9.29151 7.02358 6.22896
H 8.11011 7.43925 4.83345
10
 Atoms. Timestep: 1680
C 6.78825 7.68149 9.13351
C 7.65129 7.52767 8.18663
C 7.3268 7.4821 6.80168
C 8.24044 7.3335 5.84741
H 7.11697 7.71527 10.1998
H 5.71342 7.77021 8.89837
H 8.65271 7.43126 8.49944
H 6.35852 7.74218 6.49793
H 9.19452 6.98191 6.18008
H 8.04723 7.43059 4.79803
10
 Atoms. Timestep: 1700
C 6.79798 7.72687 9.19412
C 7.68439 7.51459 8.196
C 7.30869 7.41367 6.79308
C 8.21024 7.32651 5.84509
H 7.06385 7.88771 10.2255
H 5.73676 7.75251 8.91902
H 8.7871 7.49523 8.36258
H 6.27802 7.78624 6.47142
H 9.29251 7.03672 6.00861
H 7.95797 7.37172 4.7321
10
 Atoms. Timestep: 1720
C 6.83615 7.75964 9.14534
C 7.72441 7.49741 8.19377
C 7.272 7.44238 6.8184
C 8.1987 7.26918 5.84531
H 7.04234 7.99699 10.1719
H 5.76607 7.76908 9.0109
H 8.83434 7.51224 8.31072
H 6.17935 7.59617 6.6078
H 9.27755 7.20507 5.93939
H 7.83676 7.32876 4.83136
10
 Atoms. Timestep: 1740
C 6.85893 7.79263 9.15667
C 7.73573 7.52612 8.1759
C 7.30351 7.44116 6.83514
C 8.12386 7.24464 5.80305
H 7.22856 8.03287 10.2029
H 5.77432 7.79647 8.89955
H 8.7733 7.47644 8.40652
H 6.27642 7.36188 6.72544
H 9.17482 7.31928 6.03093
H 7.76445 7.2057 4.79902
10
 Atoms. Timestep: 1760
C 6.89327 7.82371 9.16445
C 7.76368 7.59352 8.21169
C 7.29278 7.36747 6.83888
C 8.06762 7.27062 5.77125
H 7.24568 7.95866 10.165
H 5.85023 7.90609 8.92137
H 8.82684 7.45408 8.47369
H 6.1702 7.21808 6.72026
H 9.17904 7.35973 5.96273
H 7.74793 6.99144 4.7283
10
 Atoms. Timestep: 1780
C 6.92662 7.86741 9.17056
C 7.80294 7.61667 8.16318
C 7.25546 7.28579 6.8627
C 8.05703 7.28016 5.79242
H 7.1498 7.91557 10.2299
H 5.84993 8.025 9.02905
H 8.90022 7.51144 8.37566
H 6.14304 7.1593 6.7416
H 9.13174 7.40865 5.74619
H 7.69698 6.89982 4.83343
10
 Atoms. Timestep: 1800
C 6.96982 7.91385 9.18122
C 7.76368 7.61203 8.17112
C 7.27414 7.26482 6.88047
C 8.03963 7.22274 5.76799
H 7.26339 7.96655 10.2719
H 5.88404 8.03659 8.97362
H 8.82891 7.60275 8.1886
H 6.26002 7.05456 6.82889
H 9.07143 7.52421 5.76219
H 7.53261 6.95469 4.8591
10
 Atoms. Timestep: 1820
C 6.98568 7.93954 9.17844
C 7.78827 7.60743 8.17194
C 7.27158 7.25414 6.87906
C 7.97509 7.18374 5.7856
H 7.4406 8.16133 10.1255
H 5.93335 7.96741 8.99221
H 8.88549 7.69145 8.24766
H 6.20524 6.90068 6.84643
H 9.02594 7.5636 5.78997
H 7.50963 7.0264 4.79702
10
 Atoms. Timestep: 1840
C 7.02687 7.95737 9.17087
C 7.84099 7.61872 8.14869
C 7.21459 7.18947 6.90445
C 7.93974 7.21153 5.76004
H 7.44916 8.43587 10.0487
H 5.92545 7.8771 9.17063
H 8.93425 7.72738 8.36418
H 6.11363 6.86755 6.88912
H 9.00757 7.48519 5.76845
H 7.56074 6.96436 4.74369
10
 Atoms. Timestep: 1860
C 7.08447 8.00149 9.1903
C 7.80467 7.6237 8.15974
C 7.23254 7.12022 6.88854
C 7.90272 7.22623 5.73825
H 7.43258 8.60903 10.0608
H 5.99576 7.77264 9.24267
H 8.87395 7.74564 8.14644
H 6.21443 6.94652 6.98264
H 8.93908 7.44626 5.78648
H 7.52182 6.87011 4.809
10
 Atoms. Timestep: 1880
C 7.09858 8.04655 9.19838
C 7.80781 7.61946 8.11411
C 7.238 7.11413 6.94849
C 7.877 7.18848 5.76787
H 7.54399 8.58679 10.0321
H 6.07411 7.74815 9.23455
H 8.86892 7.8594 7.94049
H 6.15062 6.84837 6.94224
H 8.95342 7.52587 5.73238
H 7.40463 6.83971 4.83419
10
 Atoms. Timestep: 1900
C 7.14236 8.04337 9.17666
C 7.84581 7.69278 8.12071
C 7.17594 7.10794 6.93853
C 7.86455 7.11648 5.79225
H 7.65177 8.50816 9.98384
H 6.07602 7.8332 9.29363
H 8.90119 8.01893 8.00707
H 6.13208 6.64169 6.94096
H 8.83974 7.59361 5.63274
H 7.35122 6.86093 4.86184
10
 Atoms. Timestep: 1920
C 7.19031 8.03962 9.22647
C 7.81759 7.7635 8.07194
C 7.19642 7.09996 6.92419
C 7.81207 7.06547 5.74191
H 7.72813 8.52808 10.0948
H 6.06405 7.91947 9.34648
H 8.86752 8.03854 8.07638
H 6.28671 6.62578 7.10444
H 8.7321 7.59159 5.65937
H 7.34716 6.70525 4.82055
10
 Atoms. Timestep: 1940
C 7.218 8.03542 9.19325
C 7.8003 7.82075 8.04194
C 7.22958 7.10242 6.97854
C 7.74088 7.07983 5.74952
H 7.71553 8.46907 10.0352
H 6.20032 7.89294 9.38897
H 8.87148 7.99298 7.92544
H 6.27171 6.60489 7.23988
H 8.73775 7.55966 5.60222
H 7.39464 6.46997 4.91778
10
 Atoms. Timestep: 1960
C 7.22025 8.07138 9.21194
C 7.87697 7.84461 8.02018
C 7.18073 7.09588 6.98762
C 7.71893 7.06898 5.77185
H 7.8204 8.49284 10.0208
H 6.16874 7.72132 9.36666
H 8.93503 8.12218 7.77678
H 6.21102 6.5361 7.23707
H 8.67154 7.55418 5.47019
H 7.336 6.30827 5.06798
10
 Atoms. Timestep: 1980
C 7.30725 8.09475 9.17873
C 7.86455 7.84706 8.05026
C 7.16936 7.12631 6.99528
C 7.69566 6.97448 5.76755
H 7.74773 8.60113 10.0536
H 6.31603 7.59992 9.35274
H 8.80314 8.30368 7.81755
H 6.31214 6.56728 7.21475
H 8.51827 7.5669 5.45523
H 7.20579 6.32548 5.04419
10
 Atoms. Timestep: 2000
C 7.32769 8.06887 9.22995
C 7.87099 7.8916 7.98584
C 7.20898 7.11565 6.9959
C 7.64441 6.9053 5.7739
H 7.6962 8.77506 9.99411
H 6.41891 7.57841 9.47275
H 8.80129 8.449 7.76872
H 6.293 6.61615 7.35116
H 8.49918 7.51481 5.41433
H 7.10302 6.39809 4.97432
10
 Atoms. Timestep: 2020
C 7.34875 8.03323 9.18882
C 7.88394 7.98899 7.98455
C 7.21838 7.05585 7.0519
C 7.60519 6.92502 5.77109
H 7.73525 8.80158 9.81491
H 6.47113 7.51787 9.58439
H 8.78271 8.51378 7.60449
H 6.22391 6.6585 7.4708
H 8.57178 7.33899 5.38983
H 7.00169 6.37073 5.0464
10
 Atoms. Timestep: 2040
C 7.39998 8.10078 9.19517
C 7.84959 7.9676 7.92788
C 7.23645 7.06051 7.06997
C 7.55994 6.92057 5.78594
H 7.8357 8.82156 9.92539
H 6.56429 7.37538 9.53659
H 8.65028 8.60395 7.57608
H 6.34012 6.63063 7.40726
H 8.51533 7.2048 5.42461
H 6.94247 6.28692 5.14527
10
 Atoms. Timestep: 2060
C 7.45929 8.14617 9.19937
C 7.84782 7.99442 7.96414
C 7.18785 7.07063 7.04297
C 7.53945 6.85025 5.77726
H 7.86773 8.75725 9.99459
H 6.75446 7.45236 9.53156
H 8.57021 8.69341 7.52877
H 6.33581 6.49743 7.4232
H 8.46224 7.27058 5.34279
H 6.92706 6.18012 5.16566
10
 Atoms. Timestep: 2080
C 7.49824 8.10284 9.2075
C 7.85841 8.05463 7.89193
C 7.13546 7.08264 7.05845
C 7.53643 6.80341 5.82871
H 7.96995 8.81435 9.89472
H 6.72789 7.47484 9.66833
H 8.621 8.72184 7.43321
H 6.30965 6.45192 7.54175
H 8.28804 7.406 5.25631
H 7.03629 6.08995 5.17513
10
 Atoms. Timestep: 2100
C 7.5792 8.09193 9.17508
C 7.77938 8.07066 7.86603
C 7.13793 7.09352 7.09219
C 7.50955 6.78667 5.82999
H 8.08518 8.862 9.76129
H 6.73491 7.49287 9.68022
H 8.58198 8.62919 7.4179
H 6.39718 6.55489 7.62507
H 8.15631 7.50204 5.35603
H 7.13205 5.9223 5.26878
10
 Atoms. Timestep: 2120
C 7.634 8.15966 9.19517
C 7.74162 8.08176 7.86966
C 7.11571 7.03741 7.06934