LAMMPS (2 Aug 2023 - Update 2)
#13 Butadiene
units           metal
boundary        p p p
atom_style      atomic

neighbor        2.0 bin
neigh_modify    delay 0 every 1 check yes

read_data       restart.lmp
Reading data file ...
  orthogonal box = (0 0 0) to (15 15 15)
  1 by 1 by 3 MPI processor grid
  reading atoms ...
  10 atoms
  reading velocities ...
  10 velocities
  read_data CPU = 0.003 seconds
mass            1 12.0
mass            2 2

variable        sysvol          equal vol
variable        sysmass         equal mass(all)/6.0221367e+23
variable        sysdensity      equal v_sysmass/v_sysvol/1.0e-24
variable	out_freq 	equal 100

pair_style      deepmd ../files/frozen_model_1_compressed.pb ../files/frozen_model_2_compressed.pb ../files/frozen_model_3_compressed.pb ../files/frozen_model_3_compressed.pb out_file md.out out_freq 10 atomic relative 1.0
Summary of lammps deepmd module ...
  >>> Info of deepmd-kit:
  installed to:       /rs1/researchers/w/wjpfaend/rahul/MLP/DeePMD-kit/deepmd_cpu
  source:             v2.2.8-dirty
  source branch:      master
  source commit:      b875ea8
  source commit at:   2024-01-22 22:28:58 -0500
  support model ver.: 1.1 
  build variant:      cpu
  build with tf inc:  /rs1/researchers/w/wjpfaend/rahul/MLP/DeePMD-kit/tensorflow/lib/python3.11/site-packages/tensorflow/include;/rs1/researchers/w/wjpfaend/rahul/MLP/DeePMD-kit/tensorflow/lib/python3.11/site-packages/tensorflow/include
  build with tf lib:  /rs1/researchers/w/wjpfaend/rahul/MLP/DeePMD-kit/tensorflow/lib/python3.11/site-packages/tensorflow/libtensorflow_cc.so.2
  set tf intra_op_parallelism_threads: 0
  set tf inter_op_parallelism_threads: 0
  >>> Info of lammps module:
  use deepmd-kit at:  /rs1/researchers/w/wjpfaend/rahul/MLP/DeePMD-kit/deepmd_cpu
  source:             v2.2.8-dirty
  source branch:      master
  source commit:      b875ea8
  source commit at:   2024-01-22 22:28:58 -0500
  build float prec:   double
  build with tf inc:  /rs1/researchers/w/wjpfaend/rahul/MLP/DeePMD-kit/tensorflow/lib/python3.11/site-packages/tensorflow/include;/rs1/researchers/w/wjpfaend/rahul/MLP/DeePMD-kit/tensorflow/lib/python3.11/site-packages/tensorflow/include
  build with tf lib:  /rs1/researchers/w/wjpfaend/rahul/MLP/DeePMD-kit/tensorflow/lib/python3.11/site-packages/tensorflow/libtensorflow_cc.so.2
pair_coeff	* *

#
velocity        all create 300.0 2345678 rot no dist gaussian
fix             1 all nvt temp 300.0 300.0 0.05
fix             2 all plumed plumedfile plumed.dat outfile PLUMED.log

timestep        0.0005
thermo_style    custom step pe ke etotal v_sysdensity temp press vol
thermo          10

dump            10 all custom 100 btd.dump id type x y z
dump		101 all xyz 20 btd.xyz
dump_modify	101 element C H

fix		extra all print 20 "$(step), $(ke), $(pe), $(etotal), $(temp), $(press), $(vol)" file logfile screen no

restart	        20000 dump.restart

run             50000

CITE-CITE-CITE-CITE-CITE-CITE-CITE-CITE-CITE-CITE-CITE-CITE-CITE

Your simulation uses code contributions which should be cited:

- USER-DEEPMD package:

@article{Wang_ComputPhysCommun_2018_v228_p178,
  author = {Wang, Han and Zhang, Linfeng and Han, Jiequn and E, Weinan},
  doi = {10.1016/j.cpc.2018.03.016},
  url = {https://doi.org/10.1016/j.cpc.2018.03.016},
  year = 2018,
  month = {jul},
  publisher = {Elsevier {BV}},
  volume = 228,
  journal = {Comput. Phys. Commun.},
  title = {{DeePMD-kit: A deep learning package for many-body potential energy representation and molecular dynamics}},
  pages = {178--184}
}
@misc{Zeng_JChemPhys_2023_v159_p054801,
  title  = {{DeePMD-kit v2: A software package for deep potential models}},
  author =   {Jinzhe Zeng and Duo Zhang and Denghui Lu and Pinghui Mo and Zeyu Li
         and Yixiao Chen and Mari{\'a}n Rynik and Li'ang Huang and Ziyao Li and 
         Shaochen Shi and Yingze Wang and Haotian Ye and Ping Tuo and Jiabin
         Yang and Ye Ding and Yifan Li and Davide Tisi and Qiyu Zeng and Han 
         Bao and Yu Xia and Jiameng Huang and Koki Muraoka and Yibo Wang and 
         Junhan Chang and Fengbo Yuan and Sigbj{\o}rn L{\o}land Bore and Chun
         Cai and Yinnian Lin and Bo Wang and Jiayan Xu and Jia-Xin Zhu and 
         Chenxing Luo and Yuzhi Zhang and Rhys E A Goodall and Wenshuo Liang
         and Anurag Kumar Singh and Sikai Yao and Jingchao Zhang and Renata
         Wentzcovitch and Jiequn Han and Jie Liu and Weile Jia and Darrin M
         York and Weinan E and Roberto Car and Linfeng Zhang and Han Wang},
  journal =  {J. Chem. Phys.},
  volume =   159,
  issue =    5,  
  year =    2023,
  pages  =   054801,
  doi =      {10.1063/5.0155600},
}

CITE-CITE-CITE-CITE-CITE-CITE-CITE-CITE-CITE-CITE-CITE-CITE-CITE

Generated 0 of 1 mixed pair_coeff terms from geometric mixing rule
Neighbor list info ...
  update: every = 1 steps, delay = 0 steps, check = yes
  max neighbors/atom: 2000, page size: 100000
  master list distance cutoff = 8
  ghost atom cutoff = 8
  binsize = 4, bins = 4 4 4
  1 neighbor lists, perpetual/occasional/extra = 1 0 0
  (1) pair deepmd, perpetual
      attributes: full, newton on
      pair build: full/bin/atomonly
      stencil: full/bin/3d
      bin: standard
Per MPI rank memory allocation (min/avg/max) = 2.958 | 2.999 | 3.083 Mbytes
   Step         PotEng         KinEng         TotEng      v_sysdensity       Temp          Press          Volume    
         0  -56.890764      0.34900239    -56.541762      0.029520714    300           -1857.96        3375         
        10  -56.740147      0.30844735    -56.4317        0.029520714    265.13918     -1164.8144      3375         
        20  -56.694252      0.25252388    -56.441728      0.029520714    217.06775      1680.9412      3375         
        30  -56.751246      0.31368064    -56.437565      0.029520714    269.63767      1326.1274      3375         
        40  -56.758436      0.3201404     -56.438296      0.029520714    275.19044     -678.25629      3375         
        50  -56.689161      0.26070849    -56.428453      0.029520714    224.10319     -291.84849      3375         
        60  -56.68206       0.26030915    -56.421751      0.029520714    223.75991      12.790684      3375         
        70  -56.71593       0.29872241    -56.417208      0.029520714    256.77968     -771.7308       3375         
        80  -56.685339      0.2765658     -56.408773      0.029520714    237.73401     -522.96295      3375         
        90  -56.789184      0.39361269    -56.395571      0.029520714    338.3467       896.16319      3375         
       100  -56.67533       0.29105219    -56.384278      0.029520714    250.18642      1179.324       3375         
       110  -56.650017      0.27130515    -56.378712      0.029520714    233.212       -563.12221      3375         
       120  -56.731554      0.38950817    -56.342046      0.029520714    334.81849     -987.19572      3375         
       130  -56.627616      0.29058954    -56.337026      0.029520714    249.78873      768.74589      3375         
       140  -56.580201      0.2671804     -56.31302       0.029520714    229.6664       846.97585      3375         
       150  -56.746423      0.45258854    -56.293835      0.029520714    389.04192     -1725.8547      3375         
       160  -56.610227      0.35620472    -56.254022      0.029520714    306.19107     -1216.1562      3375         
       170  -56.579083      0.34877505    -56.230308      0.029520714    299.80458      1987.487       3375         
       180  -56.717274      0.5171374     -56.200136      0.029520714    444.52767      1372.2663      3375         
       190  -56.643501      0.47255263    -56.170949      0.029520714    406.20292     -886.9244       3375         
       200  -56.521677      0.37443823    -56.147239      0.029520714    321.86447     -801.7985       3375         
       210  -56.55059       0.425653      -56.124937      0.029520714    365.88833     -26.960223      3375         
       220  -56.677308      0.56109137    -56.116217      0.029520714    482.3102      -353.86379      3375         
       230  -56.502164      0.41418647    -56.087978      0.029520714    356.03177     -368.07957      3375         
       240  -56.609671      0.52190158    -56.087769      0.029520714    448.62292      1205.5812      3375         
       250  -56.626661      0.54799493    -56.078666      0.029520714    471.05258      1411.3484      3375         
       260  -56.595244      0.50312813    -56.092116      0.029520714    432.4854      -1351.4401      3375         
       270  -56.63368       0.54962804    -56.084052      0.029520714    472.4564      -1941.2038      3375         
       280  -56.626632      0.52529842    -56.101333      0.029520714    451.54282      1032.3736      3375         
       290  -56.521607      0.40877673    -56.112831      0.029520714    351.3816       1779.543       3375         
       300  -56.643102      0.51380917    -56.129293      0.029520714    441.66674     -866.56106      3375         
       310  -56.555831      0.41464305    -56.141188      0.029520714    356.42425     -1236.3464      3375         
       320  -56.566879      0.41231015    -56.154569      0.029520714    354.4189       799.61097      3375         
       330  -56.693677      0.52657719    -56.1671        0.029520714    452.64205      964.30689      3375         
       340  -56.695627      0.49015539    -56.205472      0.029520714    421.33412     -623.40451      3375         
       350  -56.605958      0.41552542    -56.190432      0.029520714    357.18272     -589.25144      3375         
       360  -56.658323      0.44264946    -56.215674      0.029520714    380.49836      518.35952      3375         
       370  -56.7061        0.47056265    -56.235537      0.029520714    404.49234     -253.37241      3375         
       380  -56.520124      0.27752828    -56.242596      0.029520714    238.56136     -874.42665      3375         
       390  -56.633688      0.38025214    -56.253436      0.029520714    326.86206      911.24666      3375         
       400  -56.710899      0.44738242    -56.263516      0.029520714    384.56678      1798.7879      3375         
       410  -56.667062      0.38477401    -56.282288      0.029520714    330.74903     -1272.2672      3375         
       420  -56.61897       0.3497181     -56.269252      0.029520714    300.61522     -2114.0607      3375         
       430  -56.73667       0.44891652    -56.287753      0.029520714    385.88548      891.69909      3375         
       440  -56.61793       0.31933545    -56.298594      0.029520714    274.49851      1734.1481      3375         
       450  -56.687066      0.38057752    -56.306488      0.029520714    327.14176     -424.89634      3375         
       460  -56.634554      0.31817985    -56.316374      0.029520714    273.50516     -939.65691      3375         
       470  -56.596347      0.28334244    -56.313004      0.029520714    243.55916      538.4538       3375         
       480  -56.716501      0.39022734    -56.326273      0.029520714    335.43668      372.85022      3375         
       490  -56.674592      0.34628183    -56.32831       0.029520714    297.66143     -750.13287      3375         
       500  -56.667367      0.33341684    -56.33395       0.029520714    286.60277     -541.89541      3375         
       510  -56.70545       0.36506497    -56.340385      0.029520714    313.80728      764.88416      3375         
       520  -56.739694      0.38882089    -56.350874      0.029520714    334.2277       262.23195      3375         
       530  -56.632638      0.28255112    -56.350087      0.029520714    242.87896     -893.0492       3375         
       540  -56.719428      0.36317221    -56.356256      0.029520714    312.18027      793.72343      3375         
       550  -56.680408      0.3178843     -56.362523      0.029520714    273.25111      1440.9379      3375         
       560  -56.635529      0.26479785    -56.370731      0.029520714    227.61837     -1298.3695      3375         
       570  -56.690416      0.31893952    -56.371477      0.029520714    274.15817     -2050.5912      3375         
       580  -56.827433      0.45879388    -56.368639      0.029520714    394.37599      599.66175      3375         
       590  -56.650574      0.27210922    -56.378465      0.029520714    233.90317      1925.7567      3375         
       600  -56.724431      0.33684596    -56.387585      0.029520714    289.55042      367.00388      3375         
       610  -56.74478       0.35992288    -56.384857      0.029520714    309.38718     -816.93727      3375         
       620  -56.643789      0.25342951    -56.390359      0.029520714    217.84622     -355.70322      3375         
       630  -56.693083      0.29601646    -56.397067      0.029520714    254.45367     -122.52608      3375         
       640  -56.749523      0.35019026    -56.399333      0.029520714    301.02109     -790.2002       3375         
       650  -56.647869      0.25145041    -56.396419      0.029520714    216.145        4.5021609      3375         
       660  -56.750417      0.34849929    -56.401918      0.029520714    299.56754      1582.8751      3375         
       670  -56.79533       0.38970902    -56.405621      0.029520714    334.99113      340.69712      3375         
       680  -56.658331      0.25123724    -56.407094      0.029520714    215.96176     -1280.958       3375         
       690  -56.732968      0.32391109    -56.409057      0.029520714    278.43169      160.66887      3375         
       700  -56.726239      0.31435872    -56.41188       0.029520714    270.22054      1144.0035      3375         
       710  -56.688588      0.26372749    -56.42486       0.029520714    226.69829     -819.92657      3375         
       720  -56.700084      0.2952837     -56.4048        0.029520714    253.82379     -1547.6846      3375         
       730  -56.764776      0.36160082    -56.403175      0.029520714    310.82952      395.73983      3375         
       740  -56.638299      0.22889614    -56.409403      0.029520714    196.75751      1434.8944      3375         
       750  -56.722387      0.31921152    -56.403176      0.029520714    274.39197      496.28379      3375         
       760  -56.824782      0.42302028    -56.401761      0.029520714    363.62526     -546.22283      3375         
       770  -56.651908      0.25738828    -56.39452       0.029520714    221.24916     -318.36149      3375         
       780  -56.633341      0.24400384    -56.389337      0.029520714    209.74399     -251.54887      3375         
       790  -56.765575      0.39305865    -56.372517      0.029520714    337.87045     -1090.2693      3375         
       800  -56.64876       0.27923301    -56.369527      0.029520714    240.02673      99.388356      3375         
       810  -56.62273       0.26629757    -56.356432      0.029520714    228.90752      1993.1049      3375         
       820  -56.720979      0.37785796    -56.343121      0.029520714    324.80405      650.70968      3375         
       830  -56.680132      0.34225601    -56.337876      0.029520714    294.20086     -1483.4136      3375         
       840  -56.721796      0.42497822    -56.296818      0.029520714    365.30829     -328.48721      3375         
       850  -56.66454       0.37702135    -56.287519      0.029520714    324.0849       743.19576      3375         
       860  -56.6104        0.33449081    -56.275909      0.029520714    287.52595     -534.85832      3375         
       870  -56.639003      0.38395289    -56.25505       0.029520714    330.04321     -1292.8995      3375         
       880  -56.703135      0.46769023    -56.235444      0.029520714    402.02323      183.41599      3375         
       890  -56.570418      0.35052376    -56.219894      0.029520714    301.30776      1761.9127      3375         
       900  -56.579977      0.37216057    -56.207817      0.029520714    319.90661      882.28305      3375         
       910  -56.752533      0.56392024    -56.188613      0.029520714    484.74187     -589.55692      3375         
       920  -56.669819      0.4951213     -56.174698      0.029520714    425.60279     -578.71382      3375         
       930  -56.538764      0.37353676    -56.165227      0.029520714    321.08957     -693.43643      3375         
       940  -56.63144       0.47190271    -56.159538      0.029520714    405.64425     -1259.0062      3375         
       950  -56.632786      0.48161704    -56.151169      0.029520714    413.99462      272.40783      3375         
       960  -56.57962       0.42929827    -56.150322      0.029520714    369.02177      2344.7494      3375         
       970  -56.663538      0.5115679     -56.15197       0.029520714    439.74016      901.42612      3375         
       980  -56.571897      0.41003848    -56.161859      0.029520714    352.46619     -1561.4326      3375         
       990  -56.590046      0.43589734    -56.154149      0.029520714    374.69429     -1023.5492      3375         
      1000  -56.685417      0.51470968    -56.170707      0.029520714    442.44082      417.19625      3375         
      1010  -56.699054      0.50246581    -56.196589      0.029520714    431.91608      45.159678      3375         
      1020  -56.595655      0.39504718    -56.200608      0.029520714    339.57978     -610.07583      3375         
      1030  -56.63132       0.40677825    -56.224541      0.029520714    349.66372      442.96963      3375         
      1040  -56.588063      0.34023036    -56.247833      0.029520714    292.45963      1219.9896      3375         
      1050  -56.653754      0.38137509    -56.272379      0.029520714    327.82734      124.41154      3375         
      1060  -56.694057      0.39587484    -56.298183      0.029520714    340.29122     -689.74277      3375         
      1070  -56.635922      0.31091628    -56.325006      0.029520714    267.26145      14.515866      3375         
      1080  -56.673346      0.32816306    -56.345183      0.029520714    282.08665     -119.45837      3375         
      1090  -56.793585      0.42240459    -56.371181      0.029520714    363.09601     -1256.4268      3375         
      1100  -56.692757      0.30475997    -56.387997      0.029520714    261.96953     -50.697588      3375         
      1110  -56.631075      0.2123696     -56.418705      0.029520714    182.55142      1756.9447      3375         
      1120  -56.786748      0.36314039    -56.423608      0.029520714    312.15292      795.2632       3375         
      1130  -56.693065      0.2428234     -56.450242      0.029520714    208.72929     -1295.3959      3375         
      1140  -56.666798      0.22664376    -56.440155      0.029520714    194.82138     -799.12311      3375         
      1150  -56.788531      0.33339345    -56.455138      0.029520714    286.58266      760.51415      3375         
      1160  -56.771234      0.30897671    -56.462258      0.029520714    265.59421      185.29707      3375         
      1170  -56.66255       0.19605794    -56.466492      0.029520714    168.53003     -728.56791      3375         
      1180  -56.791471      0.32210682    -56.469365      0.029520714    276.88076      148.60081      3375         
      1190  -56.744976      0.27503575    -56.469941      0.029520714    236.4188       965.56126      3375         
      1200  -56.701676      0.22814961    -56.473526      0.029520714    196.1158      -182.38362      3375         
      1210  -56.730532      0.26470744    -56.465825      0.029520714    227.54065     -667.22982      3375         
      1220  -56.741002      0.27967332    -56.461329      0.029520714    240.40522      398.66762      3375         
      1230  -56.672853      0.21215942    -56.460694      0.029520714    182.37075      206.22823      3375         
      1240  -56.74567       0.28394778    -56.461722      0.029520714    244.07951     -1235.6095      3375         
      1250  -56.786685      0.34165096    -56.445035      0.029520714    293.68076     -352.80088      3375         
      1260  -56.70649       0.26316774    -56.443323      0.029520714    226.21713      1758.0892      3375         
      1270  -56.74573       0.30572483    -56.440006      0.029520714    262.79891      962.31128      3375         
      1280  -56.723887      0.29246953    -56.431417      0.029520714    251.40475     -1318.2816      3375         
      1290  -56.699697      0.27870657    -56.420991      0.029520714    239.57421     -1134.1768      3375         
      1300  -56.712219      0.2961173     -56.416102      0.029520714    254.54035      734.5605       3375         
      1310  -56.694081      0.28296688    -56.411114      0.029520714    243.23634      582.01963      3375         
      1320  -56.666018      0.26150692    -56.404511      0.029520714    224.7895      -491.64662      3375         
      1330  -56.842192      0.45639932    -56.385792      0.029520714    392.31764      74.719028      3375         
      1340  -56.72827       0.34849734    -56.379773      0.029520714    299.56586      503.81712      3375         
      1350  -56.617271      0.24210407    -56.375167      0.029520714    208.11096     -469.71926      3375         
      1360  -56.678282      0.30959614    -56.368686      0.029520714    266.12667     -729.32418      3375         
      1370  -56.769027      0.40973465    -56.359293      0.029520714    352.20502      628.01724      3375         
      1380  -56.631307      0.27706926    -56.354237      0.029520714    238.16678      1022.078       3375         
      1390  -56.627086      0.27588482    -56.351201      0.029520714    237.14865     -805.70424      3375         
      1400  -56.724218      0.39216769    -56.33205       0.029520714    337.10459     -943.98036      3375         
      1410  -56.71807       0.38446379    -56.333607      0.029520714    330.48237      970.73276      3375         
      1420  -56.711304      0.3885596     -56.322744      0.029520714    334.00309      769.6912       3375         
      1430  -56.678161      0.34973314    -56.328428      0.029520714    300.62815     -1042.7057      3375         
      1440  -56.617366      0.30729917    -56.310067      0.029520714    264.1522      -556.12789      3375         
      1450  -56.671738      0.36228751    -56.309451      0.029520714    311.41979      1002.1417      3375         
      1460  -56.716277      0.4095602     -56.306717      0.029520714    352.05507      180.42594      3375         
      1470  -56.548773      0.24551862    -56.303254      0.029520714    211.04608     -650.39908      3375         
      1480  -56.672973      0.37257626    -56.300396      0.029520714    320.26393      4.2353526      3375         
      1490  -56.698386      0.40168287    -56.296703      0.029520714    345.28377      497.1348       3375         
      1500  -56.696677      0.39914866    -56.297529      0.029520714    343.10538     -419.77562      3375         
      1510  -56.692162      0.40500518    -56.287157      0.029520714    348.1396      -790.18195      3375         
      1520  -56.672251      0.38355028    -56.288701      0.029520714    329.69712      909.10316      3375         
      1530  -56.56087       0.27296204    -56.287908      0.029520714    234.63625      1348.1919      3375         
      1540  -56.666646      0.36885793    -56.297788      0.029520714    317.06768     -984.59464      3375         
      1550  -56.684348      0.39979443    -56.284553      0.029520714    343.66047     -1575.3128      3375         
      1560  -56.625212      0.33873374    -56.286479      0.029520714    291.17314      868.03866      3375         
      1570  -56.655183      0.36293365    -56.292249      0.029520714    311.97521      900.52215      3375         
      1580  -56.732966      0.44661823    -56.286348      0.029520714    383.90988     -689.94915      3375         
      1590  -56.713748      0.42224811    -56.2915        0.029520714    362.9615      -328.92427      3375         
      1600  -56.639499      0.34366443    -56.295834      0.029520714    295.41153      581.48826      3375         
      1610  -56.623367      0.32441652    -56.29895       0.029520714    278.86616      167.48864      3375         
      1620  -56.588086      0.28300197    -56.305084      0.029520714    243.2665      -322.94711      3375         
      1630  -56.691755      0.39329218    -56.298463      0.029520714    338.07119     -82.987668      3375         
      1640  -56.696814      0.39505146    -56.301763      0.029520714    339.58345      373.6909       3375         
      1650  -56.652889      0.34517253    -56.307716      0.029520714    296.70788     -308.59399      3375         
      1660  -56.684742      0.37688121    -56.307861      0.029520714    323.96443     -969.53715      3375         
      1670  -56.733103      0.42188868    -56.311214      0.029520714    362.65254      725.9952       3375         
      1680  -56.67034       0.35363656    -56.316703      0.029520714    303.9835       1776.9149      3375         
      1690  -56.700663      0.37234266    -56.328321      0.029520714    320.06313     -734.76526      3375         
      1700  -56.628565      0.3159372     -56.312627      0.029520714    271.57739     -1557.7717      3375         
      1710  -56.643499      0.32244956    -56.321049      0.029520714    277.17537      202.19733      3375         
      1720  -56.707239      0.38192482    -56.325314      0.029520714    328.29989      334.52262      3375         
      1730  -56.708242      0.38194438    -56.326298      0.029520714    328.3167      -204.24126      3375         
      1740  -56.686514      0.35749004    -56.329024      0.029520714    307.29592      647.53135      3375         
      1750  -56.708109      0.37824525    -56.329864      0.029520714    325.13696      813.74663      3375         
      1760  -56.741176      0.40807655    -56.333099      0.029520714    350.77973     -395.99932      3375         
      1770  -56.645025      0.31291829    -56.332106      0.029520714    268.98236     -991.22825      3375         
      1780  -56.666632      0.33243655    -56.334195      0.029520714    285.76012     -314.28537      3375         
      1790  -56.665531      0.32977451    -56.335757      0.029520714    283.47185      775.26999      3375         
      1800  -56.650758      0.30699416    -56.343764      0.029520714    263.89002      159.94175      3375         
      1810  -56.639904      0.30790403    -56.332         0.029520714    264.67214     -980.29036      3375         
      1820  -56.75209       0.41970362    -56.332387      0.029520714    360.77428      650.88513      3375         
      1830  -56.668136      0.33314531    -56.334991      0.029520714    286.36936      1434.2289      3375         
      1840  -56.699293      0.36179122    -56.337502      0.029520714    310.99319     -796.91996      3375         
      1850  -56.690828      0.35194466    -56.338883      0.029520714    302.52915     -1344.2414      3375         
      1860  -56.61758       0.28251035    -56.335069      0.029520714    242.84391      334.24418      3375         
      1870  -56.635053      0.29765018    -56.337403      0.029520714    255.858        275.41012      3375         
      1880  -56.697622      0.36214416    -56.335478      0.029520714    311.29657     -148.32734      3375         
      1890  -56.669834      0.33458869    -56.335245      0.029520714    287.61008      721.31193      3375         
      1900  -56.681732      0.34941131    -56.332321      0.029520714    300.3515       666.40913      3375         
      1910  -56.72027       0.38080668    -56.339464      0.029520714    327.33874     -502.2689       3375         
      1920  -56.654922      0.32168448    -56.333238      0.029520714    276.51772     -1273.3373      3375         
      1930  -56.690183      0.3675785     -56.322605      0.029520714    315.96789     -421.4306       3375         
      1940  -56.688583      0.36081304    -56.32777       0.029520714    310.15235      1255.8706      3375         
      1950  -56.659658      0.33194141    -56.327716      0.029520714    285.3345       669.93917      3375         
      1960  -56.615866      0.28793637    -56.32793       0.029520714    247.50808     -1075.843       3375         
      1970  -56.75297       0.42849932    -56.324471      0.029520714    368.335       -128.13893      3375         
      1980  -56.664169      0.3410304     -56.323138      0.029520714    293.14733      1233.7728      3375         
      1990  -56.69758       0.3676469     -56.329933      0.029520714    316.02669     -327.05366      3375         
      2000  -56.736628      0.41800587    -56.318622      0.029520714    359.3149      -875.09159      3375         
      2010  -56.710404      0.39206883    -56.318335      0.029520714    337.01961      74.135096      3375         
      2020  -56.601976      0.27800457    -56.323972      0.029520714    238.97077     -23.491597      3375         
      2030  -56.695951      0.37077998    -56.325171      0.029520714    318.71987     -65.923843      3375         
      2040  -56.641227      0.31684006    -56.324387      0.029520714    272.35348      746.64313      3375         
      2050  -56.664889      0.33671117    -56.328177      0.029520714    289.43455      879.8196       3375         
      2060  -56.699818      0.36688802    -56.33293       0.029520714    315.37436     -288.45488      3375         
      2070  -56.676376      0.35659362    -56.319783      0.029520714    306.52537     -1708.5304      3375         
      2080  -56.753523      0.4304124     -56.323111      0.029520714    369.97947     -886.35457      3375         
      2090  -56.710243      0.37944309    -56.3308        0.029520714    326.16661      1312.5673      3375         
      2100  -56.649877      0.31859441    -56.331283      0.029520714    273.86152      1186.2502      3375         
      2110  -56.615773      0.27472226    -56.341051      0.029520714    236.14932     -432.45295      3375         
      2120  -56.745184      0.41139032    -56.333793      0.029520714    353.62823     -94.578421      3375         
      2130  -56.694809      0.3558517     -56.338957      0.029520714    305.88761      257.56452      3375         
      2140  -56.646251      0.30037689    -56.345874      0.029520714    258.20186     -783.99751      3375         
      2150  -56.683705      0.33757175    -56.346134      0.029520714    290.1743      -546.22372      3375         
      2160  -56.791923      0.44173214    -56.350191      0.029520714    379.70984      408.17498      3375         
      2170  -56.669349      0.30985304    -56.359496      0.029520714    266.34749      305.77223      3375         
      2180  -56.682923      0.32534406    -56.357579      0.029520714    279.66346      151.25396      3375         
      2190  -56.645103      0.28057438    -56.364528      0.029520714    241.17976      451.59329      3375         
      2200  -56.658169      0.29079074    -56.367378      0.029520714    249.96167      232.50442      3375         
      2210  -56.739274      0.3655996     -56.373675      0.029520714    314.26684     -414.30523      3375         
      2220  -56.688528      0.31253181    -56.375996      0.029520714    268.65014     -1174.0114      3375         
      2230  -56.644913      0.27084731    -56.374066      0.029520714    232.81845     -591.03492      3375         
      2240  -56.746806      0.37434838    -56.372457      0.029520714    321.78723      1192.9458      3375         
      2250  -56.768349      0.3895441     -56.378805      0.029520714    334.84936      1033.1964      3375         
      2260  -56.691167      0.30979381    -56.381373      0.029520714    266.29658     -245.68424      3375         
      2270  -56.703223      0.32167589    -56.381547      0.029520714    276.51033     -290.78188      3375         
      2280  -56.666061      0.28167419    -56.384387      0.029520714    242.12515     -167.67295      3375         
      2290  -56.675759      0.28469725    -56.391061      0.029520714    244.72375     -742.56279      3375         
      2300  -56.700636      0.32829801    -56.372338      0.029520714    282.20266     -249.25482      3375         
      2310  -56.792527      0.41226537    -56.380262      0.029520714    354.38041      619.92168      3375         
      2320  -56.646667      0.26811952    -56.378548      0.029520714    230.47365      568.09783      3375         
      2330  -56.711746      0.33516461    -56.376582      0.029520714    288.10514     -92.442307      3375         
      2340  -56.781407      0.40763468    -56.373772      0.029520714    350.39991     -7.5506873      3375         
      2350  -56.716926      0.34143148    -56.375494      0.029520714    293.49209      302.25684      3375         
      2360  -56.603232      0.23838685    -56.364845      0.029520714    204.91565     -57.442286      3375         
      2370  -56.706404      0.34154537    -56.364859      0.029520714    293.59        -962.611        3375         
      2380  -56.724048      0.37287358    -56.351174      0.029520714    320.51951     -776.25901      3375         
      2390  -56.72727       0.37675323    -56.350516      0.029520714    323.85443      561.05164      3375         
      2400  -56.687062      0.34778019    -56.339282      0.029520714    298.94941      1273.6398      3375         
      2410  -56.652518      0.3118887     -56.340629      0.029520714    268.09733      480.13542      3375         
      2420  -56.758288      0.43493646    -56.323352      0.029520714    373.86832     -349.43861      3375         
      2430  -56.733111      0.41436885    -56.318742      0.029520714    356.18855     -711.57643      3375         
      2440  -56.603918      0.30080487    -56.303113      0.029520714    258.56975     -844.34083      3375         
      2450  -56.541278      0.2400683     -56.30121       0.029520714    206.36102      19.288623      3375         
      2460  -56.753045      0.46298965    -56.290056      0.029520714    397.98264      776.77931      3375         
      2470  -56.674392      0.39531104    -56.279081      0.029520714    339.80659      473.59412      3375         
      2480  -56.586482      0.32324953    -56.263232      0.029520714    277.86302     -20.231784      3375         
      2490  -56.675378      0.4219142     -56.253463      0.029520714    362.67448     -27.428228      3375         
      2500  -56.694256      0.45803964    -56.236216      0.029520714    393.72765     -142.27493      3375         
      2510  -56.561418      0.33552678    -56.225891      0.029520714    288.41646     -261.09204      3375         
      2520  -56.688898      0.47015397    -56.218744      0.029520714    404.14104     -618.07237      3375         
      2530  -56.604021      0.40380358    -56.200217      0.029520714    347.10672     -342.98575      3375         
      2540  -56.468459      0.27618551    -56.192274      0.029520714    237.40712      649.76261      3375         
      2550  -56.681729      0.50034159    -56.181388      0.029520714    430.09011      1043.7396      3375         
      2560  -56.725056      0.55592976    -56.169126      0.029520714    477.87331      318.22716      3375         
      2570  -56.562077      0.40163681    -56.16044       0.029520714    345.24417     -582.08198      3375         
      2580  -56.548497      0.38773403    -56.160763      0.029520714    333.29344     -622.77345      3375         
      2590  -56.697764      0.54763282    -56.150131      0.029520714    470.74131     -478.32134      3375         
      2600  -56.535224      0.38745736    -56.147767      0.029520714    333.05562     -106.84252      3375         
      2610  -56.614295      0.46556403    -56.148731      0.029520714    400.19556      663.98593      3375         
      2620  -56.592294      0.43529737    -56.156997      0.029520714    374.17856      826.51966      3375         
      2630  -56.493715      0.33282342    -56.160892      0.029520714    286.09267     -59.877655      3375         
      2640  -56.581386      0.40782557    -56.17356       0.029520714    350.56399     -815.78872      3375         
      2650  -56.797237      0.61564711    -56.18159       0.029520714    529.20593     -712.66881      3375         
      2660  -56.609645      0.40688936    -56.202756      0.029520714    349.75923      506.70977      3375         
      2670  -56.568504      0.34454188    -56.223962      0.029520714    296.16577      946.21597      3375         
      2680  -56.720475      0.46922858    -56.251246      0.029520714    403.34559     -402.62915      3375         
      2690  -56.634652      0.3573193     -56.277333      0.029520714    307.14915     -730.39033      3375         
      2700  -56.678327      0.36976519    -56.308562      0.029520714    317.84756      424.91591      3375         
      2710  -56.671214      0.33218698    -56.339028      0.029520714    285.54559      694.73191      3375         
      2720  -56.691737      0.32533644    -56.366401      0.029520714    279.65691     -55.967658      3375         
      2730  -56.724322      0.3407252     -56.383596      0.029520714    292.88498     -412.50328      3375         
      2740  -56.795813      0.3863753     -56.409438      0.029520714    332.12549     -679.30068      3375         
      2750  -56.667504      0.2367744     -56.43073       0.029520714    203.5296      -226.50828      3375         
      2760  -56.685253      0.24042412    -56.444828      0.029520714    206.66688      668.90173      3375         
      2770  -56.749556      0.29230513    -56.457251      0.029520714    251.26343      734.83887      3375         
      2780  -56.740911      0.27001443    -56.470897      0.029520714    232.10251     -153.45484      3375         
      2790  -56.682643      0.21306004    -56.469583      0.029520714    183.14491     -441.22812      3375         
      2800  -56.784924      0.31016396    -56.47476       0.029520714    266.61476     -396.12608      3375         
      2810  -56.708976      0.22852348    -56.480452      0.029520714    196.43717      217.05072      3375         
      2820  -56.743119      0.26124656    -56.481873      0.029520714    224.56571      555.41864      3375         
      2830  -56.82102       0.33338838    -56.487631      0.029520714    286.57831     -287.33966      3375         
      2840  -56.720628      0.23747408    -56.483154      0.029520714    204.13105     -447.38956      3375         
      2850  -56.672696      0.19588066    -56.476815      0.029520714    168.37764      459.05203      3375         
      2860  -56.744377      0.26662512    -56.477752      0.029520714    229.18907      110.83481      3375         
      2870  -56.717626      0.24397828    -56.473647      0.029520714    209.72201     -263.46919      3375         
      2880  -56.721749      0.25420276    -56.467546      0.029520714    218.5109       93.338161      3375         
      2890  -56.769533      0.30714527    -56.462388      0.029520714    264.01991     -246.7735       3375         
      2900  -56.683248      0.2312182     -56.45203       0.029520714    198.75354     -172.49069      3375         
      2910  -56.733854      0.29417121    -56.439683      0.029520714    252.8675       466.8956       3375         
      2920  -56.776486      0.34759809    -56.428888      0.029520714    298.79287      293.42134      3375         
      2930  -56.707394      0.28914712    -56.418247      0.029520714    248.54883     -10.19446       3375         
      2940  -56.585759      0.1763037     -56.409455      0.029520714    151.54942     -344.2654       3375         
      2950  -56.736153      0.33867343    -56.397479      0.029520714    291.1213      -697.55442      3375         
      2960  -56.742541      0.36665992    -56.375882      0.029520714    315.17828      340.61152      3375         
      2970  -56.680348      0.31877062    -56.361577      0.029520714    274.01298      943.44898      3375         
      2980  -56.717853      0.37255233    -56.345301      0.029520714    320.24336     -157.42687      3375         
      2990  -56.702605      0.37467621    -56.327929      0.029520714    322.06903     -650.60339      3375         
      3000  -56.626403      0.31097747    -56.315425      0.029520714    267.31405     -230.43641      3375         
      3010  -56.760319      0.45789163    -56.302427      0.029520714    393.60042     -94.702538      3375         
      3020  -56.63126       0.34328704    -56.287973      0.029520714    295.08712      488.81595      3375         
      3030  -56.594343      0.31351981    -56.280823      0.029520714    269.49943      831.77099      3375         
      3040  -56.646653      0.37521065    -56.271442      0.029520714    322.52844     -155.97562      3375         
      3050  -56.675527      0.41387291    -56.261654      0.029520714    355.76224     -923.71544      3375         
      3060  -56.673538      0.41845236    -56.255086      0.029520714    359.69871     -397.32863      3375         
      3070  -56.674506      0.42283439    -56.251671      0.029520714    363.46546      545.19621      3375         
      3080  -56.646263      0.39377714    -56.252486      0.029520714    338.48806      643.92122      3375         
      3090  -56.645679      0.39276162    -56.252917      0.029520714    337.61513     -442.51819      3375         
      3100  -56.705632      0.46421601    -56.241416      0.029520714    399.03681     -838.12695      3375         
      3110  -56.59665       0.34438735    -56.252262      0.029520714    296.03294      643.45092      3375         
      3120  -56.570947      0.3187316     -56.252216      0.029520714    273.97944      891.24984      3375         
      3130  -56.691371      0.43329634    -56.258075      0.029520714    372.45849     -258.08025      3375         
      3140  -56.769567      0.50589376    -56.263674      0.029520714    434.86272     -719.26073      3375         
      3150  -56.601824      0.34024468    -56.261579      0.029520714    292.47193     -378.64981      3375         
      3160  -56.665105      0.40043013    -56.264675      0.029520714    344.20692      22.84334       3375         
      3170  -56.595317      0.32045371    -56.274863      0.029520714    275.45975      556.95792      3375         
      3180  -56.664383      0.38659481    -56.277789      0.029520714    332.31418      566.46912      3375         
      3190  -56.68926       0.40530521    -56.283954      0.029520714    348.39751      138.22659      3375         
      3200  -56.576201      0.2793923     -56.296809      0.029520714    240.16366     -500.06955      3375         
      3210  -56.610096      0.32506948    -56.285027      0.029520714    279.42743     -823.72715      3375         
      3220  -56.76907       0.48164513    -56.287425      0.029520714    414.01877      121.68612      3375         
      3230  -56.684896      0.38614204    -56.298754      0.029520714    331.92498      682.79801      3375         
      3240  -56.613211      0.30921609    -56.303995      0.029520714    265.79997     -91.04871       3375         
      3250  -56.694273      0.38549733    -56.308775      0.029520714    331.3708      -447.53312      3375         
      3260  -56.662851      0.34772707    -56.315124      0.029520714    298.90374      423.33525      3375         
      3270  -56.659455      0.34152689    -56.317928      0.029520714    293.57412      575.88455      3375         
      3280  -56.661038      0.33875291    -56.322285      0.029520714    291.18962     -171.83732      3375         
      3290  -56.676753      0.35056427    -56.326189      0.029520714    301.34258     -527.34137      3375         
      3300  -56.623193      0.29421915    -56.328974      0.029520714    252.90871     -364.50122      3375         
      3310  -56.795395      0.45950061    -56.335894      0.029520714    394.98349     -344.51783      3375         
      3320  -56.684771      0.34372113    -56.34105       0.029520714    295.46027      200.71462      3375         
      3330  -56.638386      0.2953217     -56.343065      0.029520714    253.85645      1099.8469      3375         
      3340  -56.721006      0.37047362    -56.350532      0.029520714    318.45651      809.97575      3375         
      3350  -56.713035      0.35521755    -56.357818      0.029520714    305.34251     -956.6134       3375         
      3360  -56.583491      0.22853135    -56.354959      0.029520714    196.44394     -1318.1164      3375         
      3370  -56.743764      0.38121743    -56.362546      0.029520714    327.69182     -21.140483      3375         
      3380  -56.715177      0.34756119    -56.367616      0.029520714    298.76115      857.24456      3375         
      3390  -56.647729      0.27733111    -56.370397      0.029520714    238.39187      371.23552      3375         
      3400  -56.820031      0.4438856     -56.376146      0.029520714    381.56094      41.34283       3375         
      3410  -56.713927      0.33409858    -56.379828      0.029520714    287.18879      187.70088      3375         
      3420  -56.626173      0.23800808    -56.388165      0.029520714    204.59008     -219.93477      3375         
      3430  -56.724061      0.32711845    -56.396943      0.029520714    281.18872     -480.24501      3375         
      3440  -56.767618      0.36699482    -56.400624      0.029520714    315.46617     -181.01563      3375         
      3450  -56.595727      0.18945357    -56.406274      0.029520714    162.85296      133.60154      3375         
      3460  -56.786303      0.37028907    -56.416014      0.029520714    318.29788     -58.074238      3375         
      3470  -56.731651      0.31163847    -56.420013      0.029520714    267.88224      187.04765      3375         
      3480  -56.672867      0.23860214    -56.434264      0.029520714    205.10072      605.00312      3375         
      3490  -56.78615       0.34104603    -56.445104      0.029520714    293.16077      348.76201      3375         
      3500  -56.767207      0.3074835     -56.459724      0.029520714    264.31066     -739.81778      3375         
      3510  -56.611633      0.14981236    -56.461821      0.029520714    128.77765     -808.85591      3375         
      3520  -56.807859      0.33843698    -56.469422      0.029520714    290.91805      102.84025      3375         
      3530  -56.780068      0.29811173    -56.481956      0.029520714    256.25474      508.56016      3375         
      3540  -56.666974      0.17613889    -56.490835      0.029520714    151.40775      211.12855      3375         
      3550  -56.798418      0.29834231    -56.500075      0.029520714    256.45295      220.0839       3375         
      3560  -56.821327      0.31372728    -56.5076        0.029520714    269.67776      248.7016       3375         
      3570  -56.702774      0.18485211    -56.517922      0.029520714    158.89757     -332.32731      3375         
      3580  -56.766058      0.25094434    -56.515114      0.029520714    215.70999     -682.61497      3375         
      3590  -56.822556      0.3066383     -56.515918      0.029520714    263.58413     -141.1068       3375         
      3600  -56.660294      0.13805925    -56.522235      0.029520714    118.67476      378.90674      3375         
      3610  -56.748151      0.22434186    -56.523809      0.029520714    192.84269      30.346613      3375         
      3620  -56.774802      0.25343369    -56.521368      0.029520714    217.84982      86.924156      3375         
      3630  -56.754238      0.23645571    -56.517783      0.029520714    203.25566      701.07506      3375         
      3640  -56.761217      0.24685332    -56.514364      0.029520714    212.19337      313.51126      3375         
      3650  -56.823864      0.32043716    -56.503426      0.029520714    275.44553     -1000.2832      3375         
      3660  -56.65641       0.16229076    -56.494119      0.029520714    139.504       -752.73862      3375         
      3670  -56.777426      0.29250037    -56.484926      0.029520714    251.43126      163.45512      3375         
      3680  -56.797108      0.3268732     -56.470235      0.029520714    280.9779       411.94332      3375         
      3690  -56.652998      0.19523454    -56.457764      0.029520714    167.82224      403.51885      3375         
      3700  -56.681273      0.2429542     -56.438319      0.029520714    208.84172      567.59742      3375         
      3710  -56.862961      0.4454856     -56.417476      0.029520714    382.93628      100.85428      3375         
      3720  -56.700204      0.30904153    -56.391162      0.029520714    265.64993     -794.49895      3375         
      3730  -56.628084      0.25763083    -56.370453      0.029520714    221.45765     -1023.2262      3375         
      3740  -56.766907      0.41930849    -56.347599      0.029520714    360.43463      51.946658      3375         
      3750  -56.674274      0.34522634    -56.329048      0.029520714    296.75413      852.45007      3375         
      3760  -56.630066      0.3240245     -56.306041      0.029520714    278.52918      145.13559      3375         
      3770  -56.67392       0.38475943    -56.289161      0.029520714    330.73649      197.50601      3375         
      3780  -56.639216      0.36609217    -56.273124      0.029520714    314.69025      702.63044      3375         
      3790  -56.58          0.31820493    -56.261795      0.029520714    273.52672     -152.68628      3375         
      3800  -56.790464      0.53943137    -56.251033      0.029520714    463.69141     -1391.9975      3375         
      3810  -56.604886      0.37051921    -56.234367      0.029520714    318.49571     -418.06037      3375         
      3820  -56.656268      0.43591475    -56.220353      0.029520714    374.70925      502.03837      3375         
      3830  -56.66858       0.44943463    -56.219146      0.029520714    386.33085      382.02173      3375         
      3840  -56.63508       0.41703554    -56.218044      0.029520714    358.48082      202.68946      3375         
      3850  -56.512291      0.29610822    -56.216183      0.029520714    254.53254      519.99499      3375         
      3860  -56.724805      0.50903622    -56.215769      0.029520714    437.56395      228.53283      3375         
      3870  -56.602339      0.37300811    -56.229331      0.029520714    320.63514     -664.22841      3375         
      3880  -56.560522      0.35079605    -56.209726      0.029520714    301.54182     -1129.6923      3375         
      3890  -56.714733      0.49706087    -56.217672      0.029520714    427.27003      316.81993      3375         
      3900  -56.705989      0.47765194    -56.228337      0.029520714    410.58624      707.45182      3375         
      3910  -56.539282      0.30327742    -56.236004      0.029520714    260.69514     -250.51501      3375         
      3920  -56.587642      0.34575458    -56.241887      0.029520714    297.20821      205.12642      3375         
      3930  -56.713998      0.45938509    -56.254613      0.029520714    394.88419      845.13015      3375         
      3940  -56.635045      0.37393504    -56.26111       0.029520714    321.43193     -377.92402      3375         
      3950  -56.668422      0.40079428    -56.267627      0.029520714    344.51994     -968.71168      3375         
      3960  -56.610785      0.33109611    -56.279689      0.029520714    284.60789      27.656325      3375         
      3970  -56.750793      0.45646833    -56.294325      0.029520714    392.37696      144.35002      3375         
      3980  -56.66547       0.35482017    -56.31065       0.029520714    305.00092     -162.74302      3375         
      3990  -56.718517      0.39079342    -56.327724      0.029520714    335.92328      40.057442      3375         
      4000  -56.588974      0.25028879    -56.338685      0.029520714    215.14648      913.59489      3375         
      4010  -56.733618      0.37803494    -56.355583      0.029520714    324.95618      477.12424      3375         
      4020  -56.656861      0.28402615    -56.372835      0.029520714    244.14688     -778.9838       3375         
      4030  -56.688483      0.30480907    -56.383673      0.029520714    262.01173     -981.63035      3375         
      4040  -56.680049      0.27883658    -56.401212      0.029520714    239.68596      304.60865      3375         
      4050  -56.739124      0.32001462    -56.41911       0.029520714    275.08232      570.25657      3375         
      4060  -56.723067      0.28915269    -56.433914      0.029520714    248.55362     -152.61022      3375         
      4070  -56.768488      0.31921939    -56.449269      0.029520714    274.39874      244.76532      3375         
      4080  -56.714811      0.24640235    -56.468409      0.029520714    211.80573      488.53316      3375         
      4090  -56.69638       0.2126345     -56.483745      0.029520714    182.77912     -723.43809      3375         
      4100  -56.773171      0.27440677    -56.498765      0.029520714    235.87813     -898.90033      3375         
      4110  -56.736328      0.22523592    -56.511092      0.029520714    193.61121      601.95753      3375         
      4120  -56.775053      0.2450452     -56.530008      0.029520714    210.63913      689.51049      3375         
      4130  -56.776612      0.23235184    -56.54426       0.029520714    199.728       -216.50463      3375         
      4140  -56.808774      0.25427761    -56.554497      0.029520714    218.57524     -345.04344      3375         
      4150  -56.752111      0.18027481    -56.571836      0.029520714    154.96296      288.73666      3375         
      4160  -56.840668      0.25556109    -56.585107      0.029520714    219.67851      382.02052      3375         
      4170  -56.756861      0.15846181    -56.598399      0.029520714    136.21265     -354.84866      3375         
      4180  -56.785386      0.17827789    -56.607108      0.029520714    153.24642     -534.66686      3375         
      4190  -56.770325      0.1621985     -56.608126      0.029520714    139.42469      362.68515      3375         
      4200  -56.842596      0.2219999     -56.620596      0.029520714    190.82955      81.814123      3375         
      4210  -56.787749      0.15659823    -56.631151      0.029520714    134.61073     -323.78424      3375         
      4220  -56.826321      0.19075277    -56.635568      0.029520714    163.96974      344.32835      3375         
      4230  -56.807263      0.16317116    -56.644092      0.029520714    140.26078      462.50881      3375         
      4240  -56.83583       0.17919076    -56.656639      0.029520714    154.03112     -610.87287      3375         
      4250  -56.824312      0.17733335    -56.646979      0.029520714    152.4345      -471.32471      3375         
      4260  -56.773567      0.1147286     -56.658839      0.029520714    98.6199        648.00192      3375         
      4270  -56.81763       0.15577276    -56.661857      0.029520714    133.90117      443.48678      3375         
      4280  -56.83588       0.17094896    -56.664931      0.029520714    146.94653     -412.46949      3375         
      4290  -56.842064      0.17697787    -56.665086      0.029520714    152.12894     -467.47611      3375         
      4300  -56.78497       0.12152413    -56.663446      0.029520714    104.46129      285.9156       3375         
      4310  -56.863478      0.20479329    -56.658685      0.029520714    176.03887      449.94577      3375         
      4320  -56.796026      0.14158114    -56.654445      0.029520714    121.70215     -231.71488      3375         
      4330  -56.799864      0.15501435    -56.644849      0.029520714    133.24925     -473.26183      3375         
      4340  -56.778975      0.14270019    -56.636275      0.029520714    122.66408      256.67023      3375         
      4350  -56.836692      0.21113837    -56.625554      0.029520714    181.49306     -45.081335      3375         
      4360  -56.749714      0.14826133    -56.601453      0.029520714    127.44439     -305.77288      3375         
      4370  -56.8065        0.2209333     -56.585566      0.029520714    189.91271      616.17847      3375         
      4380  -56.800103      0.23551587    -56.564587      0.029520714    202.44778      554.8836       3375         
      4390  -56.785842      0.24611348    -56.539729      0.029520714    211.55742     -698.08315      3375         
      4400  -56.790349      0.27361432    -56.516735      0.029520714    235.19694     -690.59385      3375         
      4410  -56.718343      0.21835514    -56.499988      0.029520714    187.69654      561.89024      3375         
      4420  -56.712016      0.23119088    -56.480825      0.029520714    198.73006      828.78447      3375         
      4430  -56.787037      0.32024647    -56.46679       0.029520714    275.28161     -501.39886      3375         
      4440  -56.707914      0.26710457    -56.44081       0.029520714    229.60121     -965.09542      3375         
      4450  -56.629467      0.20344843    -56.426018      0.029520714    174.88284      245.36586      3375         
      4460  -56.817676      0.40574103    -56.411935      0.029520714    348.77213      554.40772      3375         
      4470  -56.708966      0.31322567    -56.39574       0.029520714    269.24658      51.124682      3375         
      4480  -56.684776      0.30972668    -56.375049      0.029520714    266.23887      206.72804      3375         
      4490  -56.659099      0.29459749    -56.364501      0.029520714    253.23393      183.43283      3375         
      4500  -56.758134      0.41332653    -56.344807      0.029520714    355.29258     -849.03106      3375         
      4510  -56.564193      0.23789266    -56.326301      0.029520714    204.49086     -452.80762      3375         
      4520  -56.730044      0.4139038     -56.31614       0.029520714    355.7888       620.20941      3375         
      4530  -56.724988      0.42475477    -56.300233      0.029520714    365.11621      944.48515      3375         
      4540  -56.6327        0.34023946    -56.292461      0.029520714    292.46745     -500.06763      3375         
      4550  -56.629664      0.36376113    -56.265903      0.029520714    312.68651     -885.65903      3375         
      4560  -56.80288       0.5506282     -56.252252      0.029520714    473.31612      574.01218      3375         
      4570  -56.575972      0.33144551    -56.244527      0.029520714    284.90823      755.73547      3375         
      4580  -56.604029      0.36323408    -56.240795      0.029520714    312.23346     -720.3322       3375         
      4590  -56.67282       0.44392095    -56.228899      0.029520714    381.59132     -988.48233      3375         
      4600  -56.54313       0.32179334    -56.221337      0.029520714    276.61129      304.01655      3375         
      4610  -56.679568      0.46584691    -56.213722      0.029520714    400.43872      851.56361      3375         
      4620  -56.647983      0.4385241     -56.209459      0.029520714    376.95223      659.27378      3375         
      4630  -56.626491      0.42004244    -56.206449      0.029520714    361.06552      135.83086      3375         
      4640  -56.57765       0.37072068    -56.20693       0.029520714    318.66889     -493.0162       3375         
      4650  -56.764233      0.55612959    -56.208104      0.029520714    478.04508     -1204.0856      3375         
      4660  -56.578266      0.36976134    -56.208505      0.029520714    317.84425     -565.86788      3375         
      4670  -56.553705      0.34567603    -56.208029      0.029520714    297.14069      778.17733      3375         
      4680  -56.649088      0.43101925    -56.218069      0.029520714    370.50111      1328.991       3375         
      4690  -56.717401      0.48906359    -56.228338      0.029520714    420.39562     -115.74604      3375         
      4700  -56.556647      0.31986734    -56.23678       0.029520714    274.95571     -1115.4601      3375         
      4710  -56.659834      0.41297216    -56.246862      0.029520714    354.98796      10.361042      3375         
      4720  -56.639647      0.37541195    -56.264235      0.029520714    322.70147      769.54045      3375         
      4730  -56.66792       0.39196565    -56.275954      0.029520714    336.93092     -251.90656      3375         
      4740  -56.700389      0.40973196    -56.290657      0.029520714    352.20271     -433.84492      3375         
      4750  -56.612095      0.3039845     -56.30811       0.029520714    261.30294     -9.9848911      3375         
      4760  -56.613919      0.28887644    -56.325042      0.029520714    248.31616      141.35794      3375         
      4770  -56.713571      0.37426688    -56.339304      0.029520714    321.71718      402.04173      3375         
      4780  -56.761714      0.39955126    -56.362163      0.029520714    343.45145      463.41826      3375         
      4790  -56.684409      0.30321723    -56.381191      0.029520714    260.6434      -102.99627      3375         
      4800  -56.731682      0.33376035    -56.397922      0.029520714    286.89805     -989.63307      3375         
      4810  -56.700049      0.29713502    -56.402914      0.029520714    255.41518     -750.68992      3375         
      4820  -56.779081      0.34832712    -56.430754      0.029520714    299.41954      475.39155      3375         
      4830  -56.692858      0.25140171    -56.441457      0.029520714    216.10314      1186.9946      3375         
      4840  -56.727422      0.27070215    -56.45672       0.029520714    232.69366      379.49777      3375         
      4850  -56.652761      0.1858568     -56.466904      0.029520714    159.7612      -486.1501       3375         
      4860  -56.811438      0.34228024    -56.469158      0.029520714    294.22169     -624.87779      3375         
      4870  -56.749937      0.27386847    -56.476068      0.029520714    235.41541     -45.949075      3375         
      4880  -56.711649      0.22622123    -56.485428      0.029520714    194.45818      73.759897      3375         
      4890  -56.751139      0.2602402     -56.490899      0.029520714    223.70065      8.1312624      3375         
      4900  -56.77844       0.28540027    -56.49304       0.029520714    245.32806      107.5139       3375         
      4910  -56.725578      0.22911136    -56.496467      0.029520714    196.94252      60.448688      3375         
      4920  -56.748371      0.25583749    -56.492534      0.029520714    219.9161       208.4392       3375         
      4930  -56.741403      0.24833159    -56.493071      0.029520714    213.46409      328.83391      3375         
      4940  -56.724909      0.23187083    -56.493039      0.029520714    199.31453     -241.10871      3375         
      4950  -56.794677      0.30720174    -56.487476      0.029520714    264.06845     -761.79367      3375         
      4960  -56.776318      0.29762974    -56.478688      0.029520714    255.84043     -431.2996       3375         
      4970  -56.739144      0.26848164    -56.470662      0.029520714    230.78493      436.9253       3375         
      4980  -56.673751      0.21240228    -56.461349      0.029520714    182.57951      1216.9439      3375         
      4990  -56.802564      0.35592338    -56.44664       0.029520714    305.94923      457.19375      3375         
      5000  -56.682287      0.25105426    -56.431232      0.029520714    215.80447     -750.93721      3375         
      5010  -56.66651       0.25977268    -56.406737      0.029520714    223.29877     -916.52171      3375         
      5020  -56.663609      0.28449371    -56.379116      0.029520714    244.54879     -314.60076      3375         
      5030  -56.733491      0.39130274    -56.342188      0.029520714    336.36108      126.52986      3375         
      5040  -56.651695      0.35696132    -56.294734      0.029520714    306.84144      680.18586      3375         
      5050  -56.709901      0.45744414    -56.252457      0.029520714    393.21576      432.13816      3375         
      5060  -56.590155      0.37336259    -56.216792      0.029520714    320.93986     -49.84449       3375         
      5070  -56.642706      0.45614198    -56.186564      0.029520714    392.09643     -262.16816      3375         
      5080  -56.6155        0.45435965    -56.16114       0.029520714    390.56435     -107.59109      3375         
      5090  -56.57077       0.42337679    -56.147393      0.029520714    363.93171     -6.732403       3375         
      5100  -56.586531      0.45665092    -56.129881      0.029520714    392.53392     -204.47189      3375         
      5110  -56.66346       0.54047327    -56.122987      0.029520714    464.58702     -474.29022      3375         
      5120  -56.614768      0.4934395     -56.121329      0.029520714    424.15712      22.900318      3375         
      5130  -56.538184      0.41469791    -56.123486      0.029520714    356.47141      1077.365       3375         
      5140  -56.701608      0.5705207     -56.131087      0.029520714    490.41558      845.64467      3375         
      5150  -56.624359      0.47551956    -56.14884       0.029520714    408.75327     -693.71796      3375         
      5160  -56.506674      0.36504569    -56.141628      0.029520714    313.79071     -1096.9517      3375         
      5170  -56.589611      0.43885795    -56.150753      0.029520714    377.23921     -264.5443       3375         
      5180  -56.725964      0.55278921    -56.173174      0.029520714    475.17372     -4.0833063      3375         
      5190  -56.553368      0.36737       -56.185998      0.029520714    315.78866      305.02433      3375         
      5200  -56.647552      0.4442412     -56.203311      0.029520714    381.86661      814.88508      3375         
      5210  -56.689249      0.46405048    -56.225199      0.029520714    398.89453      802.32187      3375         
      5220  -56.720967      0.47262754    -56.248339      0.029520714    406.26731     -414.38361      3375         
      5230  -56.620734      0.363107      -56.257627      0.029520714    312.12422     -897.03137      3375         
      5240  -56.663954      0.3808757     -56.283078      0.029520714    327.39807     -316.50779      3375         
      5250  -56.608362      0.30930522    -56.299056      0.029520714    265.87659      69.43557       3375         
      5260  -56.67001       0.35436381    -56.315646      0.029520714    304.60864     -221.45534      3375         
      5270  -56.730866      0.39781232    -56.333054      0.029520714    341.95667      136.44089      3375         
      5280  -56.698828      0.35390293    -56.344925      0.029520714    304.21247      939.48442      3375         
      5290  -56.642389      0.28122591    -56.361163      0.029520714    241.73981      702.75656      3375         
      5300  -56.736883      0.35970718    -56.377176      0.029520714    309.20176     -736.68678      3375         
      5310  -56.738106      0.35382635    -56.38428       0.029520714    304.14664     -1098.4287      3375         
      5320  -56.663016      0.26800258    -56.395013      0.029520714    230.37313     -8.0372413      3375         
      5330  -56.709057      0.30021818    -56.408839      0.029520714    258.06544      373.75957      3375         
      5340  -56.682538      0.2741288     -56.408409      0.029520714    235.63919      228.69608      3375         
      5350  -56.704357      0.28886164    -56.415495      0.029520714    248.30343      552.78133      3375         
      5360  -56.793627      0.36967289    -56.423954      0.029520714    317.76821      316.16879      3375         
      5370  -56.754513      0.32611804    -56.428395      0.029520714    280.32877     -538.88341      3375         
      5380  -56.650259      0.21817004    -56.432089      0.029520714    187.53743     -717.57384      3375         
      5390  -56.774398      0.33944417    -56.434954      0.029520714    291.78382     -79.427664      3375         
      5400  -56.761893      0.32997924    -56.431914      0.029520714    283.64783      518.3835       3375         
      5410  -56.699353      0.26366       -56.435693      0.029520714    226.64028     -17.083681      3375         
      5420  -56.662501      0.22757118    -56.43493       0.029520714    195.61858     -316.62019      3375         
      5430  -56.719355      0.28366413    -56.435691      0.029520714    243.83569      519.27059      3375         
      5440  -56.738174      0.30899882    -56.429175      0.029520714    265.61321      699.79521      3375         
      5450  -56.79577       0.36217365    -56.433596      0.029520714    311.32192     -571.68467      3375         
      5460  -56.679154      0.26436569    -56.414789      0.029520714    227.24689     -725.35398      3375         
      5470  -56.650864      0.23883223    -56.412032      0.029520714    205.29851      180.06501      3375         
      5480  -56.788786      0.38669316    -56.402093      0.029520714    332.39872      28.309449      3375         
      5490  -56.736872      0.3458348     -56.391037      0.029520714    297.27716     -193.00467      3375         
      5500  -56.622851      0.24468706    -56.378164      0.029520714    210.33127      544.0183       3375         
      5510  -56.652437      0.28882387    -56.363613      0.029520714    248.27097      680.21452      3375         
      5520  -56.759968      0.41705057    -56.342917      0.029520714    358.49374     -493.7122       3375         
      5530  -56.727209      0.42410338    -56.303106      0.029520714    364.55628     -959.21542      3375         
      5540  -56.65935       0.39549611    -56.263854      0.029520714    339.96567      207.07213      3375         
      5550  -56.551876      0.31129575    -56.24058       0.029520714    267.58764      764.22355      3375         
      5560  -56.651039      0.44007517    -56.210964      0.029520714    378.28552     -215.92399      3375         
      5570  -56.705882      0.54912133    -56.15676       0.029520714    472.02083     -540.03059      3375         
      5580  -56.57523       0.45494315    -56.120287      0.029520714    391.06593      552.85831      3375         
      5590  -56.467168      0.36980038    -56.097367      0.029520714    317.87781      706.34951      3375         
      5600  -56.61091       0.54144516    -56.069465      0.029520714    465.42245     -516.39397      3375         
      5610  -56.649705      0.59924227    -56.050463      0.029520714    515.10444     -802.20137      3375         
      5620  -56.624185      0.58685292    -56.037332      0.029520714    504.45464      36.320365      3375         
      5630  -56.493362      0.45947419    -56.033888      0.029520714    394.96078      164.38618      3375         
      5640  -56.589207      0.55405863    -56.035148      0.029520714    476.2649      -295.58874      3375         
      5650  -56.605564      0.56918748    -56.036376      0.029520714    489.26956      699.38382      3375         
      5660  -56.585886      0.53186014    -56.054025      0.029520714    457.18323      759.80109      3375         
      5670  -56.493116      0.4230974     -56.070019      0.029520714    363.69155     -542.25419      3375         
      5680  -56.571289      0.49018211    -56.081107      0.029520714    421.35709     -988.56385      3375         
      5690  -56.635838      0.53463906    -56.101199      0.029520714    459.57198      287.3356       3375         
      5700  -56.635783      0.50996769    -56.125815      0.029520714    438.36464      872.69304      3375         
      5710  -56.643052      0.49650621    -56.146546      0.029520714    426.79324     -201.42931      3375         
      5720  -56.577405      0.41052518    -56.16688       0.029520714    352.88456     -776.2247       3375         
      5730  -56.568234      0.38158033    -56.186654      0.029520714    328.00377      147.52259      3375         
      5740  -56.666965      0.46083001    -56.206135      0.029520714    396.12624      420.19397      3375         
      5750  -56.648605      0.41779951    -56.230806      0.029520714    359.13752     -340.53528      3375         
      5760  -56.586049      0.34814647    -56.237902      0.029520714    299.26426      204.12641      3375         
      5770  -56.659444      0.4035714     -56.255873      0.029520714    346.90713      757.32528      3375         
      5780  -56.695335      0.42160549    -56.273729      0.029520714    362.40912     -621.78449      3375         
      5790  -56.668198      0.38606302    -56.282135      0.029520714    331.85705     -978.07789      3375         
      5800  -56.69887       0.40014911    -56.29872       0.029520714    343.96536      555.83409      3375         
      5810  -56.685864      0.37169242    -56.314172      0.029520714    319.50419      1015.317       3375         
      5820  -56.60647       0.28280805    -56.323662      0.029520714    243.09981     -143.96725      3375         
      5830  -56.717725      0.38996703    -56.327758      0.029520714    335.21291     -814.68158      3375         
      5840  -56.672748      0.34002883    -56.332719      0.029520714    292.28639     -67.607644      3375         
      5850  -56.628251      0.28446868    -56.343783      0.029520714    244.52728      401.1925       3375         
      5860  -56.697055      0.34641272    -56.350642      0.029520714    297.77394     -136.31717      3375         
      5870  -56.802355      0.444504      -56.357851      0.029520714    382.09251     -527.13828      3375         
      5880  -56.594659      0.23522343    -56.359435      0.029520714    202.19641      363.50486      3375         
      5890  -56.705811      0.33856973    -56.367241      0.029520714    291.03216      436.32348      3375         
      5900  -56.735824      0.36698088    -56.368844      0.029520714    315.45418     -165.92795      3375         
      5910  -56.653865      0.27916042    -56.374705      0.029520714    239.96433      258.7191       3375         
      5920  -56.682951      0.30475417    -56.378197      0.029520714    261.96454      474.10277      3375         
      5930  -56.766122      0.38021407    -56.385907      0.029520714    326.82934     -653.3052       3375         
      5940  -56.689107      0.30865663    -56.380451      0.029520714    265.31907     -1022.4388      3375         
      5950  -56.703986      0.32572408    -56.378262      0.029520714    279.99012      177.3421       3375         
      5960  -56.742538      0.35752886    -56.385009      0.029520714    307.32929      1014.0711      3375         
      5970  -56.665476      0.27919665    -56.38628       0.029520714    239.99548      334.65492      3375         
      5980  -56.699414      0.30874968    -56.390665      0.029520714    265.39905     -788.69818      3375         
      5990  -56.723564      0.33762322    -56.385941      0.029520714    290.21854     -166.65133      3375         
      6000  -56.652231      0.26273039    -56.389501      0.029520714    225.8412       622.76189      3375         
      6010  -56.631361      0.24494703    -56.386414      0.029520714    210.55474     -165.93029      3375         
      6020  -56.828267      0.44874348    -56.379524      0.029520714    385.73673     -554.02161      3375         
      6030  -56.684583      0.3056221     -56.378961      0.029520714    262.71061      145.38347      3375         
      6040  -56.641511      0.26631257    -56.375199      0.029520714    228.92041      250.79023      3375         
      6050  -56.72534       0.35502329    -56.370317      0.029520714    305.17552      175.74812      3375         
      6060  -56.749362      0.38212385    -56.367238      0.029520714    328.47097      383.47521      3375         
      6070  -56.61571       0.26509003    -56.35062       0.029520714    227.86952      268.37756      3375         
      6080  -56.676896      0.3330279     -56.343868      0.029520714    286.26844     -783.41501      3375         
      6090  -56.645493      0.31639299    -56.3291        0.029520714    271.96919     -1100.7052      3375         
      6100  -56.689063      0.378924      -56.310139      0.029520714    325.72041      34.386741      3375         
      6110  -56.740181      0.454861      -56.28532       0.029520714    390.99532      929.03484      3375         
      6120  -56.62525       0.35753116    -56.267719      0.029520714    307.33127      683.30755      3375         
      6130  -56.570546      0.33297495    -56.237572      0.029520714    286.22292      203.82867      3375         
      6140  -56.686328      0.47393981    -56.212389      0.029520714    407.39533     -175.11609      3375         
      6150  -56.656582      0.47650815    -56.180074      0.029520714    409.60305     -474.05172      3375         
      6160  -56.459356      0.30474173    -56.154614      0.029520714    261.95384     -405.3497       3375         
      6170  -56.635593      0.50129572    -56.134297      0.029520714    430.91027     -405.31158      3375         
      6180  -56.623125      0.51958818    -56.103537      0.029520714    446.63434      301.09992      3375         
      6190  -56.577432      0.50019554    -56.077236      0.029520714    429.96457      453.12777      3375         
      6200  -56.625785      0.56262003    -56.063165      0.029520714    483.62421      70.713171      3375         
      6210  -56.655297      0.60393405    -56.051363      0.029520714    519.13746      397.16899      3375         
      6220  -56.442081      0.39649277    -56.045588      0.029520714    340.8224       296.84947      3375         
      6230  -56.683019      0.61998749    -56.063032      0.029520714    532.93688     -1057.1324      3375         
      6240  -56.570574      0.52582934    -56.044745      0.029520714    451.9992      -957.08932      3375         
      6250  -56.470578      0.41101869    -56.059559      0.029520714    353.30878      370.61533      3375         
      6260  -56.572271      0.49366925    -56.078602      0.029520714    424.35461      943.23912      3375         
      6270  -56.666385      0.56797575    -56.098409      0.029520714    488.22796      716.34144      3375         
      6280  -56.548474      0.43341368    -56.11506       0.029520714    372.55935      36.990455      3375         
      6290  -56.659742      0.50087425    -56.158868      0.029520714    430.54798     -604.58988      3375         
      6300  -56.640597      0.46496395    -56.175633      0.029520714    399.67974     -516.69324      3375         
      6310  -56.474388      0.27243961    -56.201948      0.029520714    234.18717     -125.02261      3375         
      6320  -56.73214       0.50807885    -56.224061      0.029520714    436.741       -56.354363      3375         
      6330  -56.725301      0.45900826    -56.266293      0.029520714    394.56027      101.87153      3375         
      6340  -56.578765      0.29071501    -56.28805       0.029520714    249.89658     -35.171981      3375         
      6350  -56.657452      0.348469      -56.308983      0.029520714    299.5415       252.74737      3375         
      6360  -56.820117      0.48634904    -56.333768      0.029520714    418.06222      775.17881      3375         
[...]
     48420  -56.712225      0.48324224    -56.228982      0.029520714    415.39163     -505.74792      3375         
     48430  -56.648262      0.40476849    -56.243494      0.029520714    347.93615      1152.6419      3375         
     48440  -56.632257      0.36958113    -56.262676      0.029520714    317.68934     -445.509        3375         
     48450  -56.70427       0.42909183    -56.275179      0.029520714    368.84432     -1352.0373      3375         
     48460  -56.684093      0.39644229    -56.287651      0.029520714    340.779        465.81599      3375         
     48470  -56.611043      0.31327328    -56.297769      0.029520714    269.2875       1422.0849      3375         
     48480  -56.806825      0.48945005    -56.317375      0.029520714    420.72782      74.318542      3375         
     48490  -56.650019      0.33058477    -56.319434      0.029520714    284.16834     -1340.1952      3375         
     48500  -56.601868      0.28585288    -56.316015      0.029520714    245.71713     -295.15512      3375         
     48510  -56.694445      0.36580771    -56.328637      0.029520714    314.44574      1472.6713      3375         
     48520  -56.769483      0.43616738    -56.333316      0.029520714    374.92641      178.03439      3375         
     48530  -56.644373      0.30668722    -56.337685      0.029520714    263.62617     -1253.7968      3375         
     48540  -56.653218      0.31508898    -56.338129      0.029520714    270.84827      456.07162      3375         
     48550  -56.701239      0.3583109     -56.342928      0.029520714    308.00153      566.27006      3375         
     48560  -56.707901      0.36701248    -56.340888      0.029520714    315.48134     -1331.9105      3375         
     48570  -56.700214      0.36187309    -56.338341      0.029520714    311.06357     -176.60526      3375         
     48580  -56.698035      0.35129776    -56.346737      0.029520714    301.97308      1269.6594      3375         
     48590  -56.681005      0.33474658    -56.346259      0.029520714    287.74581     -81.678413      3375         
     48600  -56.66625       0.31675057    -56.3495        0.029520714    272.27656     -995.21077      3375         
     48610  -56.729445      0.38536837    -56.344077      0.029520714    331.25994      385.28846      3375         
     48620  -56.635319      0.28733978    -56.347979      0.029520714    246.99525      1380.6244      3375         
     48630  -56.733083      0.38144385    -56.351639      0.029520714    327.88645      24.565547      3375         
     48640  -56.66424       0.3158901     -56.34835       0.029520714    271.53691     -1760.212       3375         
     48650  -56.717673      0.37302703    -56.344646      0.029520714    320.65141     -598.55694      3375         
     48660  -56.708951      0.36097657    -56.347974      0.029520714    310.29292      1487.147       3375         
     48670  -56.662434      0.31272579    -56.349708      0.029520714    268.81689      220.20903      3375         
     48680  -56.629163      0.28491411    -56.344249      0.029520714    244.91016     -782.30046      3375         
     48690  -56.745668      0.40415066    -56.341517      0.029520714    347.40506      754.52519      3375         
     48700  -56.751866      0.40850006    -56.343366      0.029520714    351.14378      41.329641      3375         
     48710  -56.619202      0.27357511    -56.345627      0.029520714    235.16324     -1580.0258      3375         
     48720  -56.651679      0.31584035    -56.335839      0.029520714    271.49414     -22.477659      3375         
     48730  -56.743587      0.40361993    -56.339967      0.029520714    346.94885      1656.2942      3375         
     48740  -56.714728      0.37581176    -56.338916      0.029520714    323.04515      493.91206      3375         
     48750  -56.615447      0.28011115    -56.335336      0.029520714    240.78157     -944.19054      3375         
     48760  -56.708203      0.37649771    -56.331706      0.029520714    323.63478     -492.07963      3375         
     48770  -56.640279      0.30834934    -56.33193       0.029520714    265.05492      987.52018      3375         
     48780  -56.67462       0.33803894    -56.336581      0.029520714    290.5759       300.77359      3375         
     48790  -56.675154      0.34614023    -56.329014      0.029520714    297.53971     -1941.2101      3375         
     48800  -56.697572      0.38549513    -56.312077      0.029520714    331.3689      -352.41625      3375         
     48810  -56.595582      0.27692541    -56.318657      0.029520714    238.04313      1946.7818      3375         
     48820  -56.682143      0.36815301    -56.31399       0.029520714    316.46174      60.431447      3375         
     48830  -56.702856      0.39019345    -56.312662      0.029520714    335.40755     -903.34158      3375         
     48840  -56.641129      0.3375142     -56.303615      0.029520714    290.12483      872.69167      3375         
     48850  -56.581854      0.27820615    -56.303648      0.029520714    239.14405      142.248        3375         
     48860  -56.748466      0.45027486    -56.298191      0.029520714    387.0531      -1467.8896      3375         
     48870  -56.63723       0.35717838    -56.280051      0.029520714    307.02802     -186.62721      3375         
     48880  -56.616788      0.33419507    -56.282593      0.029520714    287.27173      1278.8277      3375         
     48890  -56.784646      0.50925665    -56.27539       0.029520714    437.75343      816.75311      3375         
     48900  -56.637045      0.35990202    -56.277143      0.029520714    309.36925     -962.32526      3375         
     48910  -56.554995      0.30050446    -56.25449       0.029520714    258.31152     -882.63552      3375         
     48920  -56.745775      0.48967422    -56.256101      0.029520714    420.92051      933.19003      3375         
     48930  -56.695343      0.44272548    -56.252618      0.029520714    380.56371      406.13172      3375         
     48940  -56.510074      0.26617619    -56.243898      0.029520714    228.80318     -1514.5691      3375         
     48950  -56.758991      0.51780027    -56.241191      0.029520714    445.09746     -339.79739      3375         
     48960  -56.687416      0.44939337    -56.238023      0.029520714    386.29538      1530.7505      3375         
     48970  -56.506905      0.27380636    -56.233099      0.029520714    235.36202      382.47177      3375         
     48980  -56.710995      0.47729977    -56.233695      0.029520714    410.28352     -285.92929      3375         
     48990  -56.802888      0.57548611    -56.227402      0.029520714    494.68381      278.11528      3375         
     49000  -56.499804      0.27059481    -56.229209      0.029520714    232.6014      -440.19796      3375         
     49010  -56.642898      0.40584487    -56.237053      0.029520714    348.8614      -1314.8782      3375         
     49020  -56.762698      0.53416229    -56.228535      0.029520714    459.16215     -367.00657      3375         
     49030  -56.552376      0.31417769    -56.238198      0.029520714    270.06493      1537.2992      3375         
     49040  -56.682856      0.43541314    -56.247443      0.029520714    374.27807      1437.549       3375         
     49050  -56.751401      0.49413292    -56.257269      0.029520714    424.75318     -1214.0314      3375         
     49060  -56.605996      0.34757796    -56.258418      0.029520714    298.77557     -1414.2171      3375         
     49070  -56.628582      0.35239447    -56.276187      0.029520714    302.91581      820.11142      3375         
     49080  -56.759214      0.4675977     -56.291616      0.029520714    401.94369      480.47943      3375         
     49090  -56.625379      0.31884152    -56.306537      0.029520714    274.07393     -838.94167      3375         
     49100  -56.665808      0.3459338     -56.319874      0.029520714    297.36226      408.08559      3375         
     49110  -56.716417      0.37966998    -56.336748      0.029520714    326.36165      933.34312      3375         
     49120  -56.716323      0.36004899    -56.356274      0.029520714    309.49558     -436.19035      3375         
     49130  -56.65759       0.28360814    -56.373982      0.029520714    243.78756     -467.65893      3375         
     49140  -56.746323      0.35835491    -56.387968      0.029520714    308.03936      324.63968      3375         
     49150  -56.719786      0.30805831    -56.411727      0.029520714    264.80475      22.909129      3375         
     49160  -56.687707      0.26196515    -56.425742      0.029520714    225.1834      -994.77107      3375         
     49170  -56.749016      0.32445117    -56.424565      0.029520714    278.89594     -441.31872      3375         
     49180  -56.725937      0.27377838    -56.452159      0.029520714    235.33797      1371.8084      3375         
     49190  -56.716181      0.25887773    -56.457303      0.029520714    222.52947      1304.0673      3375         
     49200  -56.753159      0.28061355    -56.472546      0.029520714    241.21343     -984.81794      3375         
     49210  -56.73047       0.24992936    -56.480541      0.029520714    214.83752     -1122.8023      3375         
     49220  -56.728421      0.24943287    -56.478988      0.029520714    214.41074      509.22594      3375         
     49230  -56.812562      0.32442509    -56.488137      0.029520714    278.87352      94.132878      3375         
     49240  -56.71394       0.21908781    -56.494852      0.029520714    188.32634     -404.69709      3375         
     49250  -56.696425      0.20067974    -56.495745      0.029520714    172.50289      629.57379      3375         
     49260  -56.75953       0.26180638    -56.497724      0.029520714    225.04692      559.49469      3375         
     49270  -56.805791      0.29818793    -56.507603      0.029520714    256.32025     -745.49117      3375         
     49280  -56.711587      0.22445185    -56.487135      0.029520714    192.93723     -616.72129      3375         
     49290  -56.721841      0.23027495    -56.491566      0.029520714    197.94272      594.09942      3375         
     49300  -56.772662      0.28341225    -56.48925       0.029520714    243.61917      573.61028      3375         
     49310  -56.72483       0.24458637    -56.480243      0.029520714    210.24473     -952.9822       3375         
     49320  -56.749817      0.28085381    -56.468964      0.029520714    241.41996     -765.53524      3375         
     49330  -56.747173      0.28907645    -56.458097      0.029520714    248.48808      1564.3937      3375         
     49340  -56.670635      0.2256477     -56.444987      0.029520714    193.96517      1255.4201      3375         
     49350  -56.694265      0.26648564    -56.427779      0.029520714    229.06918     -1311.533       3375         
     49360  -56.810454      0.41624026    -56.394214      0.029520714    357.7972      -1094.7322      3375         
     49370  -56.62899       0.26790841    -56.361082      0.029520714    230.29218      505.63534      3375         
     49380  -56.639517      0.30429706    -56.33522       0.029520714    261.57161     -120.7373       3375         
     49390  -56.696326      0.39233031    -56.303996      0.029520714    337.24438     -456.48423      3375         
     49400  -56.740089      0.48026159    -56.259828      0.029520714    412.82948      1114.247       3375         
     49410  -56.587762      0.36063473    -56.227127      0.029520714    309.99908      1098.4532      3375         
     49420  -56.669621      0.45907333    -56.210548      0.029520714    394.6162      -1148.6489      3375         
     49430  -56.557122      0.37864116    -56.178481      0.029520714    325.47727     -1611.3457      3375         
     49440  -56.593123      0.42255881    -56.170564      0.029520714    363.22858      719.95391      3375         
     49450  -56.739564      0.5803388     -56.159225      0.029520714    498.85515      1841.0058      3375         
     49460  -56.64138       0.48262985    -56.15875       0.029520714    414.86522     -795.34993      3375         
     49470  -56.50064       0.35270923    -56.14793       0.029520714    303.18637     -1349.6216      3375         
     49480  -56.685265      0.53775853    -56.147507      0.029520714    462.25345      1280.8707      3375         
     49490  -56.696003      0.53932106    -56.156682      0.029520714    463.59659      1017.019       3375         
     49500  -56.504143      0.32865844    -56.175485      0.029520714    282.51248     -1409.9688      3375         
     49510  -56.630162      0.46628754    -56.163875      0.029520714    400.81749     -1006.2459      3375         
     49520  -56.643011      0.46557591    -56.177435      0.029520714    400.20578      778.46575      3375         
     49530  -56.716753      0.52177379    -56.19498       0.029520714    448.51308      23.910263      3375         
     49540  -56.551147      0.34516717    -56.20598       0.029520714    296.70327     -231.07648      3375         
     49550  -56.63786       0.40956358    -56.228297      0.029520714    352.05797      959.28935      3375         
     49560  -56.650576      0.42020071    -56.230375      0.029520714    361.20157      1182.3215      3375         
     49570  -56.697785      0.43046966    -56.267316      0.029520714    370.02869     -1136.281       3375         
     49580  -56.623914      0.35933814    -56.264576      0.029520714    308.88453     -2077.3106      3375         
     49590  -56.688918      0.40956727    -56.279351      0.029520714    352.06114      839.5075       3375         
     49600  -56.597552      0.29785623    -56.299696      0.029520714    256.03512      2068.4887      3375         
     49610  -56.650802      0.33141392    -56.319388      0.029520714    284.88107     -739.34185      3375         
     49620  -56.691726      0.36524644    -56.32648       0.029520714    313.96327     -1627.8467      3375         
     49630  -56.715543      0.37974086    -56.335802      0.029520714    326.42257      795.98595      3375         
     49640  -56.664903      0.31035859    -56.354544      0.029520714    266.78206      889.43375      3375         
     49650  -56.669004      0.30263001    -56.366374      0.029520714    260.13862     -833.05192      3375         
     49660  -56.776266      0.40614386    -56.370122      0.029520714    349.1184      -418.88016      3375         
     49670  -56.608222      0.22291297    -56.385309      0.029520714    191.61442      648.72581      3375         
     49680  -56.655918      0.26390566    -56.392012      0.029520714    226.85144      130.2298       3375         
     49690  -56.75903       0.35980634    -56.399224      0.029520714    309.287       -580.49944      3375         
     49700  -56.738335      0.33587137    -56.402464      0.029520714    288.71267      546.91444      3375         
     49710  -56.702314      0.29055502    -56.411759      0.029520714    249.75905      1478.062       3375         
     49720  -56.767045      0.34078285    -56.426262      0.029520714    292.93454     -946.22589      3375         
     49730  -56.637059      0.22415504    -56.412904      0.029520714    192.68209     -2319.7344      3375         
     49740  -56.725612      0.30649788    -56.419114      0.029520714    263.46342      324.93781      3375         
     49750  -56.735815      0.31118963    -56.424626      0.029520714    267.49642      2080.3413      3375         
     49760  -56.773265      0.342085      -56.43118       0.029520714    294.05386      36.24847       3375         
     49770  -56.664139      0.23719715    -56.426942      0.029520714    203.893       -1150.3013      3375         
     49780  -56.731559      0.3104459     -56.421113      0.029520714    266.85711     -48.24282       3375         
     49790  -56.740162      0.31474817    -56.425414      0.029520714    270.55531      626.68083      3375         
     49800  -56.690375      0.26921895    -56.421156      0.029520714    231.41872     -146.30375      3375         
     49810  -56.74838       0.33137943    -56.417001      0.029520714    284.85143     -472.55916      3375         
     49820  -56.742877      0.33423297    -56.408644      0.029520714    287.30431      813.27512      3375         
     49830  -56.705281      0.29634749    -56.408933      0.029520714    254.73822      336.48655      3375         
     49840  -56.701443      0.31674597    -56.384697      0.029520714    272.27261     -1340.1785      3375         
     49850  -56.713825      0.34247719    -56.371348      0.029520714    294.39098     -9.1175284      3375         
     49860  -56.667477      0.31332784    -56.354149      0.029520714    269.3344       1543.7964      3375         
     49870  -56.744611      0.40901486    -56.335597      0.029520714    351.5863      -376.83601      3375         
     49880  -56.607348      0.31397412    -56.293374      0.029520714    269.88994     -2029.9939      3375         
     49890  -56.756791      0.50384288    -56.252949      0.029520714    433.09979      191.31239      3375         
     49900  -56.610923      0.39156266    -56.219361      0.029520714    336.5845       2163.6202      3375         
     49910  -56.567763      0.39401857    -56.173745      0.029520714    338.69559      407.33293      3375         
     49920  -56.625897      0.47325696    -56.15264       0.029520714    406.80835     -1404.2532      3375         
     49930  -56.627915      0.52353236    -56.104382      0.029520714    450.02473     -590.03643      3375         
     49940  -56.511585      0.43027072    -56.081315      0.029520714    369.85768      959.07151      3375         
     49950  -56.72339       0.65408588    -56.069304      0.029520714    562.24762     -82.428301      3375         
     49960  -56.616663      0.58204486    -56.034618      0.029520714    500.32166     -513.36028      3375         
     49970  -56.406997      0.3705938     -56.036403      0.029520714    318.55982      1066.525       3375         
     49980  -56.611787      0.56804125    -56.043746      0.029520714    488.28426      21.10131       3375         
     49990  -56.679701      0.64789004    -56.031811      0.029520714    556.92172     -1962.7715      3375         
     50000  -56.492511      0.45036913    -56.042142      0.029520714    387.13413     -200.33125      3375         
Loop time of 87.8588 on 3 procs for 50000 steps with 10 atoms

Performance: 24.585 ns/day, 0.976 hours/ns, 569.095 timesteps/s, 5.691 katom-step/s
169.7% CPU use with 3 MPI tasks x no OpenMP threads

MPI task timing breakdown:
Section |  min time  |  avg time  |  max time  |%varavg| %total
---------------------------------------------------------------
Pair    | 37.737     | 52.731     | 82.599     | 290.8 | 60.02
Neigh   | 0.0013464  | 0.0017052  | 0.0023502  |   1.1 |  0.00
Comm    | 2.2481     | 32.042     | 47.015     | 372.2 | 36.47
Output  | 0.58171    | 0.5946     | 0.6152     |   1.9 |  0.68
Modify  | 2.1275     | 2.2232     | 2.3343     |   5.7 |  2.53
Other   |            | 0.2654     |            |       |  0.30

Nlocal:        3.33333 ave          10 max           0 min
Histogram: 2 0 0 0 0 0 0 0 0 1
Nghost:        71.3333 ave          85 max          44 min
Histogram: 1 0 0 0 0 0 0 0 0 2
Neighs:              0 ave           0 max           0 min
Histogram: 3 0 0 0 0 0 0 0 0 0
FullNghs:           30 ave          90 max           0 min
Histogram: 2 0 0 0 0 0 0 0 0 1

Total # of neighbors = 90
Ave neighs/atom = 9
Neighbor list builds = 260
Dangerous builds = 0

write_data	restart.data
System init for write_data ...
Generated 0 of 1 mixed pair_coeff terms from geometric mixing rule
#
Total wall time: 0:01:30
