10
 Atoms. Timestep: 0
C 6.6042 7.29821 6.59244
C 6.6054 7.51222 8.00439
C 7.95193 7.49734 8.35043
C 8.71556 7.70237 7.2636
H 6.1079 7.85808 5.73345
H 7.25466 6.56093 6.25583
H 5.73561 7.69554 8.6516
H 8.4359 7.05191 9.24695
H 8.46797 8.29094 6.35224
H 9.85943 7.70172 7.38378
10
 Atoms. Timestep: 20
C 6.67033 7.29767 6.65982
C 6.6195 7.55428 7.96454
C 7.99162 7.46239 8.37198
C 8.6596 7.73617 7.2079
H 6.05835 7.78633 5.91938
H 7.14218 6.35028 6.30038
H 5.75573 7.87338 8.56893
H 8.39566 7.03924 9.26514
H 8.3532 8.39266 6.39765
H 9.77256 7.47502 7.21208
10
 Atoms. Timestep: 40
C 6.67921 7.24631 6.61192
C 6.64382 7.59713 8.04758
C 7.97913 7.4413 8.35818
C 8.70969 7.76127 7.18818
H 5.86673 7.67215 6.01436
H 7.03881 6.23276 6.30671
H 5.78608 8.09471 8.49609
H 8.39824 7.11843 9.327
H 8.35922 8.58499 6.59933
H 9.6038 7.24093 6.91036
10
 Atoms. Timestep: 60
C 6.70179 7.25378 6.64587
C 6.66618 7.60957 8.01415
C 7.99258 7.46261 8.40869
C 8.67548 7.70134 7.1483
H 5.77031 7.46151 6.02465
H 6.92778 6.28937 6.30134
H 5.86745 8.17735 8.49109
H 8.44094 7.21177 9.38882
H 8.43412 8.77426 6.78873
H 9.46719 7.14194 6.59229
10
 Atoms. Timestep: 80
C 6.65757 7.2632 6.62721
C 6.73316 7.61522 8.01069
C 8.03699 7.48786 8.45566
C 8.60511 7.65122 7.10557
H 5.70924 7.50832 6.10058
H 6.93409 6.24729 6.32683
H 5.85028 8.13587 8.45826
H 8.46581 7.36733 9.42132
H 8.58187 8.71587 6.89054
H 9.38576 7.14035 6.49669
10
 Atoms. Timestep: 100
C 6.58556 7.2466 6.62545
C 6.75843 7.60609 8.04493
C 8.03902 7.49447 8.4626
C 8.6341 7.64937 7.05381
H 5.68834 7.70355 6.16281
H 6.87447 6.20812 6.26838
H 5.87156 8.0589 8.478
H 8.53624 7.54681 9.43477
H 8.62669 8.69083 6.77458
H 9.424 7.03264 6.64971
10
 Atoms. Timestep: 120
C 6.64671 7.26147 6.69778
C 6.71017 7.5628 8.06638
C 8.05279 7.53177 8.38972
C 8.60675 7.60446 7.0328
H 5.81345 7.7912 6.17438
H 6.65356 6.34066 6.16781
H 5.91235 8.02548 8.66075
H 8.56447 7.67568 9.37284
H 8.5913 8.65043 6.5447
H 9.49034 6.97354 6.84843
10
 Atoms. Timestep: 140
C 6.61524 7.28781 6.65423
C 6.71781 7.53049 8.19489
C 8.01537 7.61533 8.34345
C 8.65527 7.55335 7.00732
H 5.93934 7.99388 6.11611
H 6.61512 6.28083 6.2335
H 5.87731 7.89605 8.83699
H 8.55092 7.72166 9.263
H 8.53763 8.45267 6.41007
H 9.58152 6.95302 6.83002
10
 Atoms. Timestep: 160
C 6.60685 7.32128 6.68914
C 6.68156 7.53075 8.18041
C 8.05399 7.68538 8.35799
C 8.60001 7.51085 6.94801
H 6.15962 8.06359 6.0238
H 6.62041 6.24239 6.43145
H 5.91886 7.59 8.9672
H 8.60143 7.75839 9.3165
H 8.68304 8.37479 6.32261
H 9.48619 6.90127 6.7741
10
 Atoms. Timestep: 180
C 6.58393 7.3005 6.74413
C 6.75411 7.57588 8.18312
C 8.03038 7.70671 8.34814
C 8.56942 7.5437 6.9293
H 6.29018 7.97548 5.93901
H 6.44978 6.25536 6.47318
H 5.99514 7.32531 8.90394
H 8.62442 7.80963 9.26896
H 8.91747 8.44632 6.33764
H 9.22001 6.64718 6.73807
10
 Atoms. Timestep: 200
C 6.58532 7.24367 6.71835
C 6.73301 7.56912 8.20782
C 8.10632 7.74114 8.31587
C 8.60112 7.58095 6.93412
H 6.23067 7.9926 5.98335
H 6.21035 6.23627 6.46626
H 5.95424 7.29886 8.9859
H 8.66299 7.90673 9.24477
H 9.12053 8.43738 6.46507
H 8.79065 6.53891 6.68667
10
 Atoms. Timestep: 220
C 6.59609 7.23226 6.72071
C 6.78758 7.49187 8.19445
C 8.06223 7.78546 8.33116
C 8.57711 7.58357 6.92648
H 6.17634 8.05638 6.17047
H 6.07904 6.28236 6.45426
H 6.05784 7.48532 8.98659
H 8.69187 8.04756 9.17461
H 9.29101 8.2526 6.48398
H 8.68984 6.53681 6.58226
10
 Atoms. Timestep: 240
C 6.51962 7.25849 6.76929
C 6.79427 7.42058 8.19501
C 8.09757 7.82048 8.29578
C 8.57133 7.53702 6.9095
H 6.2147 8.18315 6.27638
H 6.07737 6.32834 6.37428
H 6.05722 7.54126 8.97936
H 8.61723 8.24723 9.19607
H 9.36638 8.1954 6.41764
H 8.89432 6.50516 6.62778
10
 Atoms. Timestep: 260
C 6.54297 7.29025 6.7813
C 6.81089 7.4432 8.27694
C 8.08984 7.81161 8.24134
C 8.56463 7.46365 6.87007
H 6.28196 8.25642 6.29014
H 6.07728 6.43441 6.28624
H 6.00164 7.37272 9.05519
H 8.55459 8.36656 9.04219
H 9.15423 8.25579 6.3814
H 9.00432 6.48192 6.81597
10
 Atoms. Timestep: 280
C 6.57193 7.32096 6.78769
C 6.7586 7.46207 8.28895
C 8.06753 7.81657 8.2495
C 8.5744 7.4299 6.87264
H 6.35634 8.27844 6.29647
H 6.10544 6.47664 6.27587
H 6.13468 7.22891 9.15912
H 8.72781 8.40666 8.89866
H 8.91133 8.20762 6.20753
H 9.05363 6.44473 6.85863
10
 Atoms. Timestep: 300
C 6.51762 7.32478 6.79605
C 6.78068 7.46479 8.26397
C 8.09302 7.84569 8.26492
C 8.55908 7.43531 6.90711
H 6.40495 8.27933 6.28869
H 6.13166 6.41879 6.31209
H 6.18203 7.2549 9.13506
H 8.78383 8.3272 8.98972
H 8.856 8.06711 6.02458
H 9.06311 6.44929 6.74654
10
 Atoms. Timestep: 320
C 6.51005 7.29576 6.8118
C 6.86947 7.48366 8.26116
C 8.13878 7.85835 8.26524
C 8.50392 7.4405 6.85679
H 6.32127 8.21916 6.23056
H 6.07777 6.39202 6.36796
H 6.09361 7.39917 9.06743
H 8.64792 8.17705 9.16467
H 8.93285 8.11098 6.096
H 8.91724 6.45196 6.79238
10
 Atoms. Timestep: 340
C 6.51056 7.27008 6.81059
C 6.83861 7.51952 8.2545
C 8.1628 7.82647 8.27177
C 8.5431 7.46824 6.8082
H 6.09054 8.10286 6.23013
H 6.00874 6.33853 6.49799
H 6.12992 7.56395 9.09592
H 8.74214 8.09847 9.17763
H 9.05191 8.21759 6.22609
H 8.77037 6.39271 6.79087
10
 Atoms. Timestep: 360
C 6.51552 7.25914 6.81057
C 6.8122 7.60255 8.25399
C 8.13267 7.74946 8.25341
C 8.54751 7.49339 6.86056
H 5.95867 8.01751 6.27271
H 6.06478 6.2588 6.67104
H 6.17964 7.6328 9.10957
H 8.89685 8.05744 8.97701
H 9.18111 8.19864 6.24583
H 8.79554 6.42753 6.54166
10
 Atoms. Timestep: 380
C 6.49661 7.26076 6.85591
C 6.81553 7.6688 8.2607
C 8.17127 7.70758 8.23321
C 8.50903 7.44934 6.82409
H 5.99462 7.99572 6.20352
H 6.22561 6.20047 6.71861
H 6.09039 7.70165 9.11631
H 8.88068 8.0136 9.00825
H 9.07351 8.25712 6.34107
H 8.90456 6.53256 6.45786
10
 Atoms. Timestep: 400
C 6.47344 7.27293 6.88939
C 6.8557 7.69157 8.28527
C 8.17562 7.6984 8.26531
C 8.49844 7.41392 6.74476
H 6.04663 7.92156 6.11349
H 6.32291 6.22044 6.66919
H 6.10586 7.87719 9.07003
H 8.81899 7.89691 9.12411
H 8.78228 8.36848 6.3059
H 9.0281 6.47451 6.49788
10
 Atoms. Timestep: 420
C 6.50171 7.27629 6.86926
C 6.82959 7.69918 8.27934
C 8.19708 7.67414 8.26075
C 8.4862 7.42427 6.80362
H 5.98611 7.91315 6.15429
H 6.3076 6.21417 6.70131
H 6.23119 8.07513 9.09147
H 8.87638 7.74943 9.13531
H 8.49678 8.27489 6.05412
H 9.13843 6.54997 6.47474
10
 Atoms. Timestep: 440
C 6.46785 7.25819 6.86005
C 6.8644 7.73475 8.25865
C 8.18224 7.64491 8.25048
C 8.53609 7.43941 6.83948
H 5.84299 7.94084 6.24537
H 6.25485 6.18658 6.77493
H 6.23312 8.1614 9.06316
H 8.93638 7.65396 9.02838
H 8.3882 8.14333 6.04922
H 9.16504 6.67032 6.476
10
 Atoms. Timestep: 460
C 6.46385 7.26909 6.91576
C 6.86082 7.78248 8.22324
C 8.22862 7.62201 8.22809
C 8.50848 7.40281 6.79782
H 5.72327 7.82668 6.31577
H 6.26663 6.21402 6.81023
H 6.14551 8.13675 8.99053
H 8.93064 7.64109 9.07746
H 8.4308 8.32343 6.17848
H 9.25653 6.61969 6.52707
10
 Atoms. Timestep: 480
C 6.45454 7.2786 6.92144
C 6.8947 7.80665 8.24412
C 8.20479 7.6228 8.23415
C 8.46363 7.36753 6.7463
H 5.65561 7.7524 6.34693
H 6.38596 6.18037 6.87612
H 6.19037 8.15906 8.95364
H 8.89225 7.67885 9.08957
H 8.63012 8.38374 6.3091
H 9.26375 6.61209 6.43763
10
 Atoms. Timestep: 500
C 6.4334 7.259 6.91061
C 6.85475 7.80166 8.25993
C 8.2119 7.6198 8.22196
C 8.49509 7.39176 6.76979
H 5.65733 7.77425 6.30833
H 6.46157 6.14948 6.91593
H 6.2935 8.27975 9.11489
H 8.93341 7.70891 9.03355
H 8.75041 8.27162 6.21689
H 9.05695 6.60272 6.32562
10
 Atoms. Timestep: 520
C 6.47747 7.25394 6.93787
C 6.87579 7.79223 8.28114
C 8.18957 7.64364 8.21504
C 8.47261 7.4216 6.77228
H 5.80615 7.74491 6.22855
H 6.36745 6.16774 6.85018
H 6.33693 8.24656 9.12594
H 8.97919 7.6966 8.96402
H 8.7018 8.25896 6.0971
H 8.83988 6.43679 6.38523
10
 Atoms. Timestep: 540
C 6.45686 7.2535 6.9487
C 6.89443 7.78166 8.31263
C 8.25018 7.6984 8.20734
C 8.44483 7.39369 6.72473
H 5.98925 7.85731 6.16973
H 6.24256 6.18809 6.87891
H 6.2117 8.07326 9.08497
H 8.99555 7.73936 9.02836
H 8.62785 8.25617 6.0482
H 8.77932 6.34225 6.51844
10
 Atoms. Timestep: 560
C 6.42362 7.27846 6.95181
C 6.91948 7.74611 8.29726
C 8.26589 7.76191 8.20112
C 8.4328 7.32964 6.73897
H 6.04732 8.01496 6.22821
H 6.06564 6.23132 6.93215
H 6.20177 7.88309 9.15031
H 9.00152 7.89455 8.9846
H 8.65446 8.07316 6.00156
H 8.90249 6.42619 6.45724
10
 Atoms. Timestep: 580
C 6.43468 7.30635 6.95956
C 6.91598 7.69189 8.29742
C 8.23162 7.79293 8.16303
C 8.45099 7.28126 6.76287
H 5.93836 8.08045 6.35619
H 5.84703 6.38987 6.84923
H 6.39964 7.8025 9.26758
H 9.01847 8.14209 8.84284
H 8.70355 8.01621 5.96868
H 9.01731 6.35429 6.50715
10
 Atoms. Timestep: 600
C 6.41124 7.31775 6.9466
C 6.92829 7.64061 8.371
C 8.24808 7.80064 8.09855
C 8.46478 7.26893 6.7302
H 5.93974 8.19436 6.46811
H 5.80539 6.4248 6.75487
H 6.42177 7.81656 9.29985
H 8.97554 8.36817 8.7317
H 8.76099 8.0277 5.97311
H 8.90625 6.22081 6.78328
10
 Atoms. Timestep: 620
C 6.42023 7.32542 6.99245
C 6.9776 7.58856 8.38697
C 8.23948 7.85842 8.093
C 8.38956 7.2729 6.7136
H 6.11185 8.26853 6.50913
H 5.93409 6.39091 6.68355
H 6.34331 7.81276 9.26361
H 8.97801 8.42451 8.62013
H 8.90796 7.7888 5.92656
H 8.68751 6.26272 6.76984
10
 Atoms. Timestep: 640
C 6.38662 7.31464 7.06395
C 6.94435 7.58693 8.37254
C 8.27107 7.92134 8.08143
C 8.40645 7.28544 6.71251
H 6.24846 8.20621 6.45337
H 5.93058 6.41254 6.64374
H 6.36325 7.69946 9.32808
H 9.07339 8.44607 8.62998
H 8.99746 7.63326 5.82055
H 8.45998 6.17242 6.63066
10
 Atoms. Timestep: 660
C 6.41062 7.29725 7.0327
C 6.99019 7.66111 8.39189
C 8.24615 7.9057 8.04784
C 8.43328 7.26313 6.71927
H 6.19613 8.13333 6.37182
H 5.66708 6.45742 6.85299
H 6.513 7.51404 9.32749
H 9.02572 8.43151 8.64431
H 8.97129 7.76887 5.88078
H 8.26932 6.1517 6.66134
10
 Atoms. Timestep: 680
C 6.391 7.28597 7.02124
C 6.97996 7.68247 8.3383
C 8.30539 7.88307 8.03648
C 8.41706 7.2577 6.718
H 6.11858 8.05276 6.29757
H 5.53639 6.63785 7.19688
H 6.60464 7.44815 9.36796
H 9.00715 8.41252 8.65215
H 8.93295 7.81757 5.97958
H 8.3638 6.19583 6.71074
10
 Atoms. Timestep: 700
C 6.31901 7.30274 7.10795
C 7.02132 7.65637 8.2704
C 8.31794 7.88164 8.07361
C 8.4094 7.28678 6.69047
H 6.12386 7.94744 6.23824
H 5.37929 6.6865 7.33167
H 6.50333 7.56125 9.25136
H 9.12615 8.33805 8.64032
H 9.0098 7.73817 5.84135
H 8.5755 6.18346 6.73146
10
 Atoms. Timestep: 720
C 6.33696 7.27282 7.11902
C 7.03502 7.65029 8.32843
C 8.3578 7.89202 8.01487
C 8.35089 7.31413 6.67842
H 6.16019 7.83371 6.18872
H 5.31752 6.84013 7.35766
H 6.42226 7.66011 9.19817
H 9.19665 8.226 8.69197
H 8.95774 7.66171 5.82495
H 8.5856 6.22273 6.78314
10
 Atoms. Timestep: 740
C 6.35264 7.25315 7.11719
C 7.03568 7.69033 8.35419
C 8.32218 7.9021 8.00136
C 8.40997 7.26758 6.64336
H 6.16594 7.80025 6.1882
H 5.33631 6.92397 7.43281
H 6.552 7.65748 9.36199
H 9.15301 8.1831 8.60509
H 8.8707 7.77746 5.81464
H 8.32328 6.19876 6.78966
10
 Atoms. Timestep: 760
C 6.37339 7.29517 7.17245
C 7.02262 7.72834 8.31923
C 8.32145 7.87862 7.97389
C 8.39579 7.22405 6.67587
H 6.12666 7.84689 6.25984
H 5.3704 6.79952 7.46204
H 6.69336 7.5997 9.37716
H 9.11666 8.33693 8.53992
H 8.88936 7.74185 5.81284
H 8.24804 6.13804 6.58857
10
 Atoms. Timestep: 780
C 6.29025 7.31596 7.19609
C 7.07607 7.74604 8.36513
C 8.37935 7.86474 7.93667
C 8.34282 7.20402 6.67857
H 6.17154 7.99955 6.33761
H 5.48771 6.58372 7.36897
H 6.59135 7.61072 9.31968
H 9.11662 8.54895 8.45863
H 8.97112 7.56068 5.83843
H 8.25466 6.13187 6.50698
10
 Atoms. Timestep: 800
C 6.32187 7.32732 7.20695
C 7.09249 7.69843 8.40701
C 8.35745 7.90633 7.95593
C 8.28895 7.18038 6.60742
H 6.19978 8.11245 6.48103
H 5.61103 6.50099 7.15472
H 6.65013 7.79777 9.40445
H 9.19628 8.54618 8.19774
H 8.99907 7.49331 5.85476
H 8.10313 6.09454 6.73245
10
 Atoms. Timestep: 820
C 6.36492 7.34237 7.20285
C 7.0891 7.68023 8.47542
C 8.31318 7.90723 7.86861
C 8.27179 7.16078 6.64272
H 6.12473 8.22185 6.60654
H 5.66343 6.49506 6.97172
H 6.82645 7.98477 9.49867
H 9.19777 8.47621 8.12764
H 8.89329 7.41906 5.74451
H 8.18438 6.07942 6.80237
10
 Atoms. Timestep: 840
C 6.29501 7.36669 7.22077
C 7.15009 7.73999 8.47774
C 8.29868 7.89004 7.84564
C 8.31638 7.08017 6.64628
H 6.03903 8.31503 6.67948
H 5.67141 6.49123 7.00172
H 6.82712 7.98588 9.49379
H 9.15042 8.512 8.25336
H 8.62343 7.44679 5.62533
H 8.45164 6.00778 6.69275
10
 Atoms. Timestep: 860
C 6.3745 7.37973 7.23026
C 7.12152 7.78213 8.40623
C 8.38894 7.8906 7.91245
C 8.20828 7.02322 6.59872
H 5.93178 8.22434 6.68594
H 5.69649 6.55228 7.23674
H 6.77339 7.96534 9.43276
H 9.19069 8.51148 8.31013
H 8.33364 7.51811 5.67003
H 8.63858 5.99441 6.66739
10
 Atoms. Timestep: 880
C 6.31056 7.35799 7.24054
C 7.16997 7.85112 8.38132
C 8.42155 7.84791 7.94716
C 8.21135 7.05439 6.58529
H 5.8741 8.11396 6.58365
H 5.67637 6.46545 7.51009
H 6.69345 8.06275 9.34209
H 9.3292 8.30672 8.3025
H 8.21008 7.56386 5.59529
H 8.66024 6.03878 6.62954
10
 Atoms. Timestep: 900
C 6.28657 7.3057 7.28848
C 7.15917 7.92244 8.37828
C 8.42719 7.78411 7.87533
C 8.22184 7.13086 6.62108
H 5.78412 7.93395 6.54155
H 5.71277 6.41018 7.55748
H 6.79294 8.33218 9.33441
H 9.44106 7.99887 8.35143
H 8.32188 7.58097 5.608
H 8.50261 6.10512 6.51709
10
 Atoms. Timestep: 920
C 6.33883 7.26756 7.32715
C 7.17845 7.9902 8.35682
C 8.39097 7.76828 7.91406
C 8.1623 7.1253 6.55007
H 5.69561 7.81616 6.62839
H 5.8498 6.33593 7.5393
H 6.97747 8.56572 9.25956
H 9.36589 7.80263 8.37352
H 8.46741 7.76054 5.72359
H 8.34451 6.03105 6.47603
10
 Atoms. Timestep: 940
C 6.29808 7.28852 7.3565
C 7.17761 8.05362 8.35285
C 8.42474 7.69583 7.91169
C 8.16429 7.09487 6.50473
H 5.59061 7.85785 6.73843
H 6.08825 6.20823 7.64144
H 6.90353 8.68953 9.22062
H 9.34454 7.84926 8.46473
H 8.4765 7.80987 5.73434
H 8.33223 6.00823 6.33478
10
 Atoms. Timestep: 960
C 6.32254 7.34908 7.36792
C 7.21217 8.05791 8.30916
C 8.41079 7.64337 7.91378
C 8.14286 7.08121 6.57244
H 5.45788 7.7612 6.86374
H 6.21826 6.29692 7.67958
H 6.8161 8.66636 9.11318
H 9.3728 7.87657 8.41831
H 8.29426 7.70497 5.66339
H 8.43452 6.12457 6.17103
10
 Atoms. Timestep: 980
C 6.30682 7.35568 7.37089
C 7.19801 8.06638 8.2927
C 8.44307 7.66087 7.92234
C 8.16711 7.04994 6.55372
H 5.37107 7.74326 6.91051
H 6.13897 6.35237 7.66572
H 6.90488 8.72534 9.12916
H 9.46222 7.75233 8.32493
H 7.97141 7.80522 5.765
H 8.58538 6.04421 6.25576
10
 Atoms. Timestep: 1000
C 6.28524 7.30604 7.36123
C 7.23356 8.08528 8.31576
C 8.46403 7.68382 7.86736
C 8.14849 7.04204 6.56552
H 5.43858 7.89599 6.9326
H 6.00084 6.26446 7.64446
H 7.00808 8.80631 9.10141
H 9.42025 7.68311 8.36678
H 7.81096 7.75891 5.85796
H 8.65741 6.10818 6.32653
10
 Atoms. Timestep: 1020
C 6.28295 7.31817 7.43486
C 7.26507 8.05052 8.29615
C 8.45047 7.70121 7.84332
C 8.10971 7.03723 6.59632
H 5.56394 7.92861 6.9089
H 5.95655 6.27346 7.60909
H 7.03052 8.80939 9.02585
H 9.39656 7.7456 8.40944
H 7.88757 7.65529 5.68818
H 8.63963 6.16487 6.22364
10
 Atoms. Timestep: 1040
C 6.27607 7.35873 7.48858
C 7.22429 8.03872 8.31325
C 8.48363 7.69668 7.85876
C 8.09495 7.00414 6.52068
H 5.55299 7.88794 6.84519
H 6.0156 6.35201 7.68898
H 6.98562 8.79241 9.10685
H 9.48532 7.9041 8.30212
H 8.04359 7.66963 5.61626
H 8.56729 6.02428 6.24205
10
 Atoms. Timestep: 1060
C 6.32454 7.35132 7.41233
C 7.29374 8.07035 8.36387
C 8.43495 7.69024 7.83359
C 8.06641 7.00888 6.52588
H 5.49294 7.83599 6.83699
H 6.06088 6.35753 7.8292
H 6.98855 8.67082 9.21113
H 9.42401 8.0049 8.09181
H 8.13523 7.67532 5.71224
H 8.30457 5.95072 6.39361
10
 Atoms. Timestep: 1080
C 6.30091 7.33385 7.41345
C 7.27239 8.07893 8.37408
C 8.4567 7.72844 7.776
C 8.08942 7.01226 6.55822
H 5.53701 7.83174 6.8555
H 5.96444 6.37159 7.87106
H 7.11372 8.57567 9.34537
H 9.49752 8.00926 8.02965
H 8.21312 7.58653 5.61372
H 8.08173 5.92431 6.44315
10
 Atoms. Timestep: 1100
C 6.2669 7.34337 7.50668
C 7.29543 8.02163 8.32541
C 8.47793 7.82572 7.77687
C 8.0657 7.00129 6.53132
H 5.61523 7.91865 6.84217
H 5.81776 6.39629 7.78657
H 7.18001 8.47713 9.32099
H 9.51412 7.99271 8.11242
H 8.24566 7.38367 5.47431
H 8.1154 5.89946 6.5109
10
 Atoms. Timestep: 1120
C 6.30382 7.33848 7.49449
C 7.33448 7.97742 8.37305
C 8.498 7.83742 7.68897
C 7.98479 6.99505 6.52434
H 5.71552 8.0801 6.86625
H 5.71476 6.46249 7.7898
H 7.08988 8.45455 9.32189
H 9.44449 8.10014 8.1712
H 8.17086 7.27536 5.53046
H 8.26194 5.95715 6.7243
10
 Atoms. Timestep: 1140
C 6.27786 7.37887 7.47761
C 7.35026 7.94636 8.42895
C 8.44307 7.84077 7.67543
C 8.05687 6.95433 6.52702
H 5.78044 8.13427 6.90795
H 5.65077 6.53624 7.83276
H 7.13144 8.43526 9.37972
H 9.46511 8.22226 7.86894
H 8.03557 7.26768 5.44248
H 8.29225 5.90228 6.80314
10
 Atoms. Timestep: 1160
C 6.32164 7.40204 7.4913
C 7.31519 7.92922 8.4332
C 8.44108 7.85989 7.67759
C 8.05191 6.92238 6.58074
H 5.80196 8.13155 6.87621
H 5.61618 6.62664 7.78202
H 7.28409 8.37577 9.44946
H 9.40756 8.35834 7.56663
H 8.01293 7.1958 5.49556
H 8.22232 5.85066 6.62221
10
 Atoms. Timestep: 1180
C 6.28453 7.38634 7.53081
C 7.39057 7.96287 8.43835
C 8.46068 7.85522 7.63044
C 7.99091 6.88873 6.57023
H 5.9236 8.17247 6.76389
H 5.58398 6.5832 7.77377
H 7.25068 8.31881 9.4649
H 9.33266 8.52935 7.64885
H 8.11506 7.23815 5.58001
H 8.1579 5.81902 6.63857
10
 Atoms. Timestep: 1200
C 6.26759 7.39063 7.57357
C 7.40381 7.9629 8.43236
C 8.45877 7.85483 7.60301
C 7.97091 6.90543 6.53044
H 5.99882 8.06426 6.79066
H 5.58464 6.57562 7.83488
H 7.27651 8.37606 9.42503
H 9.37075 8.45631 7.73185
H 8.18705 7.23203 5.4733
H 8.09972 5.83306 6.79694
10
 Atoms. Timestep: 1220
C 6.32346 7.38012 7.586
C 7.35279 7.9446 8.41159
C 8.44349 7.86637 7.61107
C 7.98572 6.97478 6.52741
H 5.85572 8.00075 6.83893
H 5.59313 6.63906 7.9672
H 7.38253 8.46105 9.38364
H 9.48398 8.19305 7.66213
H 8.14468 7.01032 5.41796
H 8.03126 5.92054 6.80268
10
 Atoms. Timestep: 1240
C 6.26849 7.35024 7.57553
C 7.41348 8.0027 8.39449
C 8.47467 7.86093 7.59845
C 7.99851 6.94776 6.51083
H 5.65231 8.04894 6.89246
H 5.61864 6.63764 8.12879
H 7.29146 8.44177 9.41158
H 9.53555 8.10831 7.72739
H 8.08462 7.10398 5.44907
H 8.01055 5.90959 6.80394
10
 Atoms. Timestep: 1260
C 6.28183 7.3739 7.58577
C 7.41212 8.05269 8.33677
C 8.53464 7.82496 7.58806
C 7.91416 6.89809 6.53877
H 5.61263 7.99238 7.02729
H 5.74305 6.60192 8.11194
H 7.27437 8.40246 9.34767
H 9.53745 8.20811 7.84478
H 8.02074 7.31584 5.51884
H 8.07926 5.80147 6.74221
10
 Atoms. Timestep: 1280
C 6.29577 7.42311 7.6342
C 7.4075 8.07836 8.29918
C 8.49729 7.78098 7.64276
C 7.92738 6.87655 6.54731
H 5.59232 7.99308 7.06034
H 5.89854 6.45587 8.04138
H 7.37929 8.56793 9.26994
H 9.50588 8.17267 7.76038
H 7.84621 7.27769 5.50502
H 8.13403 5.79876 6.51128
10
 Atoms. Timestep: 1300
C 6.29719 7.39081 7.62347
C 7.41513 8.13765 8.39035
C 8.4782 7.71382 7.61946
C 7.9391 6.88291 6.5216
H 5.50826 8.01058 7.06212
H 5.99894 6.40876 8.01413
H 7.40943 8.92853 9.20873
H 9.54114 8.01398 7.68927
H 7.69742 7.26588 5.55995
H 8.1911 5.84112 6.42552
10
 Atoms. Timestep: 1320
C 6.32017 7.37353 7.63522
C 7.4716 8.15904 8.37104
C 8.46933 7.71842 7.63662
C 7.87604 6.88512 6.50631
H 5.48701 7.86658 7.16719
H 5.996 6.4512 8.03818
H 7.34977 9.01327 9.00589
H 9.54566 7.81108 7.75437
H 7.66285 7.44114 5.56702
H 8.25983 5.82009 6.46122
10
 Atoms. Timestep: 1340
C 6.29164 7.39534 7.73002
C 7.41414 8.15844 8.25182
C 8.54543 7.68939 7.60798
C 7.88184 6.90182 6.51251
H 5.44863 7.85403 7.22752
H 6.03016 6.41363 8.22201
H 7.34206 8.98198 8.97899
H 9.6095 7.75424 7.90837
H 7.73792 7.49175 5.58638
H 8.1575 5.85442 6.35174
10
 Atoms. Timestep: 1360
C 6.28809 7.36396 7.73494
C 7.45107 8.19305 8.1576
C 8.53571 7.66815 7.63878
C 7.87588 6.91182 6.53772
H 5.37239 7.87157 7.30244
H 6.13589 6.46536 8.3768
H 7.39265 8.90482 9.00534
H 9.5806 7.78614 7.9212
H 7.74092 7.47215 5.63332
H 7.99709 5.89807 6.23572
10
 Atoms. Timestep: 1380
C 6.32196 7.35521 7.69763
C 7.45496 8.25887 8.22853
C 8.52452 7.63432 7.63969
C 7.85312 6.88067 6.50037
H 5.36463 7.74345 7.38508
H 6.16098 6.55131 8.35865
H 7.45714 9.02258 9.01044
H 9.5931 7.80945 7.81577
H 7.67182 7.55697 5.63953
H 7.94892 5.76187 6.28227
10
 Atoms. Timestep: 1400
C 6.34056 7.41634 7.73993
C 7.47731 8.23467 8.2993
C 8.48726 7.65438 7.60756
C 7.85147 6.84655 6.47314
H 5.39329 7.73538 7.28589
H 6.16783 6.45157 8.3134
H 7.44629 9.12317 8.92771
H 9.57735 7.75977 7.70923
H 7.59147 7.46358 5.59149
H 8.0082 5.77487 6.34165
10
 Atoms. Timestep: 1420
C 6.33081 7.42782 7.78791
C 7.50253 8.17778 8.28928
C 8.49322 7.69301 7.53833
C 7.79886 6.86238 6.53999
H 5.51345 7.90909 7.20707
H 6.18835 6.40197 8.20798
H 7.4447 9.09902 8.91316
H 9.56475 7.75205 7.70104
H 7.56196 7.24196 5.56091
H 8.09827 5.84997 6.36575
10
 Atoms. Timestep: 1440
C 6.28376 7.40852 7.79675
C 7.51048 8.18956 8.26221
C 8.54006 7.72886 7.49617
C 7.7836 6.83324 6.54096
H 5.51437 8.00821 7.32767
H 6.0213 6.48331 8.21124
H 7.55345 8.93937 9.06403
H 9.62439 7.84418 7.64197
H 7.51549 7.2355 5.54344
H 8.1876 5.74837 6.5241
10
 Atoms. Timestep: 1460
C 6.3099 7.42015 7.75156
C 7.53883 8.18834 8.25988
C 8.51782 7.75773 7.48365
C 7.81867 6.78994 6.53886
H 5.40453 8.01168 7.46018
H 5.82604 6.58771 8.37692
H 7.64289 8.7374 9.17387
H 9.58531 8.00454 7.47618
H 7.51482 7.2066 5.58249
H 8.03906 5.73512 6.61569
10
 Atoms. Timestep: 1480
C 6.32839 7.44859 7.7601
C 7.52446 8.1364 8.30125
C 8.50526 7.76236 7.42888
C 7.80712 6.78645 6.55839
H 5.50849 8.05881 7.34219
H 5.96354 6.69648 8.50642
H 7.6394 8.71821 9.26233
H 9.5243 8.15779 7.34078
H 7.61009 7.06426 5.5204
H 7.88684 5.72163 6.62519
10
 Atoms. Timestep: 1500
C 6.32548 7.46421 7.83626
C 7.58819 8.09329 8.33185
C 8.48061 7.80315 7.41915
C 7.74107 6.7918 6.52177
H 5.71657 8.03215 7.14556
H 5.97174 6.69439 8.44596
H 7.57353 8.75381 9.19287
H 9.4828 8.19716 7.25309
H 7.71969 6.96297 5.4128
H 7.84755 5.66482 6.78453
10
 Atoms. Timestep: 1520
C 6.3648 7.43021 7.87156
C 7.59576 8.11477 8.37736
C 8.48171 7.79484 7.34421
C 7.71263 6.80457 6.52024
H 5.79373 7.9951 7.08006
H 5.65729 6.66003 8.36165
H 7.69367 8.79965 9.21049
H 9.50321 8.1974 7.20208
H 7.70597 6.88215 5.44723
H 7.84072 5.81933 6.90725
10
 Atoms. Timestep: 1540
C 6.32713 7.41078 7.86868
C 7.63287 8.11293 8.33405
C 8.44114 7.82912 7.35451
C 7.76349 6.79535 6.55029
H 5.80527 8.0516 7.16291
H 5.58465 6.7783 8.39749
H 7.87133 8.70885 9.24365
H 9.4319 8.17043 7.10174
H 7.58986 6.8247 5.44353
H 7.85324 5.79706 6.89454
10
 Atoms. Timestep: 1560
C 6.32431 7.46699 7.83789
C 7.58905 8.0882 8.3422
C 8.47335 7.83873 7.30612
C 7.74513 6.74877 6.58128
H 5.72943 8.12511 7.22261
H 5.82025 6.85376 8.53808
H 7.87616 8.57943 9.29576
H 9.45836 8.29099 7.05824
H 7.51096 6.85976 5.49672
H 7.93781 5.65486 6.87272
10
 Atoms. Timestep: 1580
C 6.35626 7.52388 7.84897
C 7.64649 8.08296 8.29531
C 8.47252 7.83334 7.31473
C 7.6995 6.7104 6.57165
H 5.58105 8.13243 7.27573
H 5.92296 6.79738 8.61634
H 7.67977 8.51293 9.27281
H 9.4205 8.326 7.1017
H 7.46747 6.83919 5.55198
H 8.00364 5.70854 6.8865
10
 Atoms. Timestep: 1600
C 6.35773 7.49657 7.89335
C 7.62855 8.1301 8.30018
C 8.49355 7.79493 7.28003
C 7.69744 6.74419 6.56063
H 5.60895 8.07575 7.40002
H 5.86573 6.74682 8.51973
H 7.72824 8.6815 9.27937
H 9.50173 8.19116 7.10476
H 7.40453 6.76263 5.47831
H 7.95116 5.76731 6.9017
10
 Atoms. Timestep: 1620
C 6.34305 7.41019 7.91986
C 7.6472 8.18031 8.28845
C 8.47698 7.8075 7.31391
C 7.6854 6.78706 6.5503
H 5.6714 8.09338 7.4072
H 5.8494 6.66327 8.50515
H 7.9354 8.86406 9.08068
H 9.54343 7.969 7.08099
H 7.40445 6.79556 5.45734
H 7.8041 5.72439 6.92256
10
 Atoms. Timestep: 1640
C 6.36135 7.42485 7.94789
C 7.66456 8.19958 8.27547
C 8.47773 7.76213 7.29595
C 7.64883 6.76954 6.55104
H 5.60679 8.0358 7.34776
H 5.93206 6.59385 8.60468
H 7.9224 8.98646 8.9822
H 9.54601 7.97287 7.15503
H 7.45328 6.97988 5.54081
H 7.74865 5.71453 6.83646
10
 Atoms. Timestep: 1660
C 6.38507 7.50653 7.97448
C 7.65973 8.199 8.23381
C 8.50398 7.70198 7.31201
C 7.62484 6.72683 6.55751
H 5.537 7.87409 7.44683
H 6.11058 6.72322 8.66704
H 7.74162 9.00031 9.00948
H 9.51074 8.05597 7.15922
H 7.38767 7.09389 5.51891
H 7.7947 5.6665 6.62068
10
 Atoms. Timestep: 1680
C 6.39056 7.49153 7.95794
C 7.64581 8.24822 8.19353
C 8.5219 7.6745 7.36732
C 7.6243 6.7186 6.55899
H 5.46413 7.93722 7.57755
H 6.22882 6.79757 8.76917
H 7.73789 8.97307 8.98814
H 9.54696 7.98749 7.0734
H 7.20402 7.09598 5.57177
H 7.84673 5.63161 6.44236
10
 Atoms. Timestep: 1700
C 6.37264 7.4379 7.96198
C 7.63745 8.29435 8.17451
C 8.51762 7.66006 7.33205
C 7.63845 6.73538 6.54709
H 5.44585 8.06171 7.71728
H 6.2135 6.70586 8.80415
H 7.86312 9.08079 8.90407
H 9.60535 7.80753 7.1539
H 7.12221 7.13891 5.73237
H 7.87704 5.65903 6.48342
10
 Atoms. Timestep: 1720
C 6.38942 7.47016 8.03447
C 7.66933 8.25733 8.13455
C 8.49665 7.68618 7.29638
C 7.62438 6.74515 6.56817
H 5.46809 7.95218 7.78271
H 6.17718 6.58227 8.62237
H 7.87852 9.18207 8.722
H 9.55797 7.67501 7.32807
H 7.10509 7.19003 5.6898
H 7.85842 5.6855 6.54259
10
 Atoms. Timestep: 1740
C 6.40839 7.50109 8.06966
C 7.66058 8.27793 8.15855
C 8.52717 7.65888 7.27719
C 7.56232 6.7422 6.57927
H 5.44012 7.91541 7.77694
H 6.34224 6.51851 8.53115
H 7.80417 9.23191 8.65578
H 9.65118 7.6859 7.32473
H 7.15784 7.11842 5.58754
H 7.77778 5.66923 6.50482
10
 Atoms. Timestep: 1760
C 6.417 7.49135 8.0436
C 7.69745 8.32387 8.14019
C 8.50392 7.63067 7.35327
C 7.54877 6.72731 6.53808
H 5.38763 7.93563 7.82232
H 6.51641 6.56636 8.66219
H 7.79379 9.22653 8.73076
H 9.57091 7.73582 7.10602
H 7.18436 7.09244 5.61926
H 7.66809 5.62396 6.49756
10
 Atoms. Timestep: 1780
C 6.45027 7.48245 8.02127
C 7.66403 8.3434 8.13269
C 8.48526 7.5942 7.31762
C 7.5698 6.71954 6.54641
H 5.46685 7.85024 7.90267
H 6.42201 6.74862 8.83022
H 7.92689 9.20142 8.83485
H 9.50486 7.77985 7.0358
H 7.17303 7.17854 5.63297
H 7.61416 5.62382 6.54455
10
 Atoms. Timestep: 1800
C 6.42437 7.48988 8.09553
C 7.7046 8.28423 8.09972
C 8.48735 7.66837 7.2566
C 7.56096 6.70196 6.56538
H 5.44327 7.90011 7.78451
H 6.30143 6.80029 8.94155
H 7.95983 9.07153 8.77504
H 9.57794 7.786 7.1176
H 7.12355 7.17816 5.62129
H 7.65429 5.61729 6.54569
10
 Atoms. Timestep: 1820
C 6.41069 7.47849 8.11475
C 7.72139 8.24303 8.13545
C 8.53128 7.6996 7.16815
C 7.49681 6.72509 6.61192
H 5.53725 8.01011 7.63085
H 6.22598 6.7738 8.93798
H 7.96207 9.09572 8.77066
H 9.64735 7.80398 7.11158
H 7.04046 6.99668 5.68366
H 7.74984 5.66252 6.5727
10
 Atoms. Timestep: 1840
C 6.44008 7.50911 8.09386
C 7.77569 8.23153 8.17176
C 8.47653 7.70932 7.19008
C 7.51305 6.70399 6.58508
H 5.6097 8.03797 7.68408
H 6.1178 6.76842 8.81905
H 7.9746 9.11868 8.82746
H 9.48783 7.84106 6.86678
H 6.90689 6.89976 5.70676
H 7.79513 5.63039 6.74015
10
 Atoms. Timestep: 1860
C 6.47337 7.5416 8.07161
C 7.77831 8.25638 8.2377
C 8.42117 7.68344 7.16482
C 7.54301 6.65052 6.58261
H 5.62259 8.14203 7.72574
H 6.12991 6.76192 8.77022
H 8.08256 9.04996 8.91893
H 9.34956 8.00333 6.63096
H 6.92149 6.84566 5.65055
H 7.72276 5.62548 6.85211
10
 Atoms. Timestep: 1880
C 6.45724 7.54474 8.08345
C 7.81603 8.21613 8.20318
C 8.41637 7.7362 7.12754
C 7.48412 6.63578 6.6347
H 5.65256 8.23452 7.67954
H 6.20027 6.79344 8.83804
H 8.15167 8.90495 8.96314
H 9.28597 8.17669 6.62126
H 7.15797 6.72586 5.60407
H 7.63299 5.58745 6.88976
10
 Atoms. Timestep: 1900
C 6.43722 7.56442 8.15987
C 7.8075 8.16219 8.18203
C 8.43698 7.77594 7.04555
C 7.46804 6.65636 6.61927
H 5.67822 8.12281 7.6611
H 6.08044 6.92178 8.95494
H 8.22029 8.81938 9.00309
H 9.35867 8.17252 6.63796
H 7.25312 6.62357 5.56004
H 7.6348 5.60645 7.03156
10
 Atoms. Timestep: 1920
C 6.4691 7.52691 8.17424
C 7.82002 8.1569 8.1827
C 8.39636 7.76931 7.02176
C 7.48902 6.71528 6.59486
H 5.68431 8.01366 7.61516
H 5.95737 7.10486 9.09871
H 8.2469 8.72827 8.98662
H 9.39087 8.01717 6.60123
H 7.13118 6.51253 5.54376
H 7.66635 5.83311 7.20215
10
 Atoms. Timestep: 1940
C 6.49046 7.50768 8.16528
C 7.82868 8.16576 8.19347
C 8.3785 7.78306 7.02316
C 7.47386 6.70776 6.5834
H 5.70564 7.96715 7.49465
H 6.08642 7.25978 9.17357
H 8.2766 8.66315 9.03478
H 9.34795 7.95383 6.53829
H 7.01559 6.49807 5.59731
H 7.66281 5.89244 7.25858
10
 Atoms. Timestep: 1960
C 6.5025 7.59036 8.19295
C 7.81932 8.15965 8.18677
C 8.39664 7.7861 6.983
C 7.45458 6.64067 6.60057
H 5.7018 7.91765 7.54733
H 6.15891 7.26382 9.15811
H 8.28049 8.62714 9.11724
H 9.3055 8.13251 6.51327
H 7.02286 6.55867 5.6168
H 7.6162 5.65954 7.15654
10
 Atoms. Timestep: 1980
C 6.50943 7.61333 8.19456
C 7.88126 8.16749 8.14036
C 8.37745 7.76175 6.99908
C 7.4381 6.62388 6.66553
H 5.68156 7.99017 7.63462
H 6.10935 7.15881 9.14177
H 8.28345 8.629 9.01598
H 9.19677 8.27585 6.46493
H 7.06071 6.58122 5.61786
H 7.55465 5.58624 7.01668
10
 Atoms. Timestep: 2000
C 6.4963 7.56118 8.19555
C 7.88656 8.20511 8.19625
C 8.37202 7.71002 6.99089
C 7.41284 6.63935 6.65647
H 5.76297 8.22939 7.65259
H 6.14055 6.97719 9.08399
H 8.4511 8.87116 8.88201
H 9.14537 8.15079 6.31279
H 6.99723 6.5943 5.6287
H 7.62045 5.70323 7.09394
10
 Atoms. Timestep: 2020
C 6.52001 7.55689 8.23031
C 7.93242 8.20097 8.17466
C 8.3507 7.72951 7.03106
C 7.38404 6.64761 6.61798
H 5.82792 8.2902 7.78584
H 6.11658 6.87908 8.93288
H 8.38289 9.08048 8.71125
H 9.12943 7.89607 6.32949
H 6.85774 6.56368 5.6682
H 7.68645 5.70059 7.1373
10
 Atoms. Timestep: 2040
C 6.58217 7.61026 8.24209
C 7.928 8.22178 8.15364
C 8.35572 7.69049 6.94781
C 7.34621 6.64493 6.67632
H 5.73331 8.19348 7.93298
H 6.15652 6.84211 8.93451
H 8.21449 9.08831 8.72613
H 9.3725 7.91011 6.47863
H 6.74441 6.60078 5.76837
H 7.63012 5.58043 6.92922
10
 Atoms. Timestep: 2060
C 6.54836 7.6225 8.27161
C 7.90083 8.25367 8.04192
C 8.41882 7.68806 6.97415
C 7.32102 6.58106 6.67993
H 5.62367 8.19129 7.98235
H 6.49772 6.89061 9.1542
H 8.26825 8.99816 8.7492
H 9.41458 7.89918 6.56859
H 6.62725 6.81601 5.82994
H 7.55835 5.55305 6.79906
10
 Atoms. Timestep: 2080
C 6.55974 7.56243 8.26832
C 7.82746 8.32742 7.99734
C 8.44037 7.60711 7.01247
C 7.3229 6.62866 6.67547
H 5.60618 8.0893 8.15172
H 6.6845 7.1155 9.19823
H 8.46402 9.0109 8.65606
H 9.36998 7.75875 6.50654
H 6.61269 6.95917 5.91195
H 7.48384 5.53264 6.74289
10
 Atoms. Timestep: 2100
C 6.60514 7.58835 8.32181
C 7.87918 8.35515 7.96084
C 8.38701 7.55135 7.04287
C 7.32821 6.66437 6.6392
H 5.56604 7.93508 8.26218
H 6.67002 7.01758 9.30162
H 8.29309 9.20134 8.47485
H 9.36172 7.57885 6.48564
H 6.65959 6.99099 5.87099
H 7.37635 5.54078 6.70546
10
 Atoms. Timestep: 2120
C 6.65619 7.60634 8.37699
C 7.90002 8.36443 7.97728
C 8.41626 7.54529 7.00806