ITEM: TIMESTEP
0
ITEM: NUMBER OF ATOMS
10
ITEM: BOX BOUNDS pp pp pp
0.0000000000000000e+00 1.5000000000000000e+01
0.0000000000000000e+00 1.5000000000000000e+01
0.0000000000000000e+00 1.5000000000000000e+01
ITEM: ATOMS id type x y z
10 2 9.85943 7.70172 7.38378
4 1 8.71556 7.70237 7.2636
7 2 5.73561 7.69554 8.6516
8 2 8.4359 7.05191 9.24695
9 2 8.46797 8.29094 6.35224
1 1 6.6042 7.29821 6.59244
3 1 7.95193 7.49734 8.35043
2 1 6.6054 7.51222 8.00439
6 2 7.25466 6.56093 6.25583
5 2 6.1079 7.85808 5.73345
ITEM: TIMESTEP
100
ITEM: NUMBER OF ATOMS
10
ITEM: BOX BOUNDS pp pp pp
0.0000000000000000e+00 1.5000000000000000e+01
0.0000000000000000e+00 1.5000000000000000e+01
0.0000000000000000e+00 1.5000000000000000e+01
ITEM: ATOMS id type x y z
10 2 9.424 7.03264 6.64971
4 1 8.6341 7.64937 7.05381
7 2 5.87156 8.0589 8.478
8 2 8.53624 7.54681 9.43477
9 2 8.62669 8.69083 6.77458
1 1 6.58556 7.2466 6.62545
3 1 8.03902 7.49447 8.4626
2 1 6.75843 7.60609 8.04493
6 2 6.87447 6.20812 6.26838
5 2 5.68834 7.70355 6.16281
ITEM: TIMESTEP
200
ITEM: NUMBER OF ATOMS
10
ITEM: BOX BOUNDS pp pp pp
0.0000000000000000e+00 1.5000000000000000e+01
0.0000000000000000e+00 1.5000000000000000e+01
0.0000000000000000e+00 1.5000000000000000e+01
ITEM: ATOMS id type x y z
10 2 8.79065 6.53891 6.68667
4 1 8.60112 7.58095 6.93412
7 2 5.95424 7.29886 8.9859
8 2 8.66299 7.90673 9.24477
9 2 9.12053 8.43738 6.46507
1 1 6.58532 7.24367 6.71835
3 1 8.10632 7.74114 8.31587
2 1 6.73301 7.56912 8.20782
6 2 6.21035 6.23627 6.46626
5 2 6.23067 7.9926 5.98335
ITEM: TIMESTEP
300
ITEM: NUMBER OF ATOMS
10
ITEM: BOX BOUNDS pp pp pp
0.0000000000000000e+00 1.5000000000000000e+01
0.0000000000000000e+00 1.5000000000000000e+01
0.0000000000000000e+00 1.5000000000000000e+01
ITEM: ATOMS id type x y z
10 2 9.06311 6.44929 6.74654
4 1 8.55908 7.43531 6.90711
7 2 6.18203 7.2549 9.13506
8 2 8.78383 8.3272 8.98972
9 2 8.856 8.06711 6.02458
1 1 6.51762 7.32478 6.79605
3 1 8.09302 7.84569 8.26492
2 1 6.78068 7.46479 8.26397
6 2 6.13166 6.41879 6.31209
5 2 6.40495 8.27933 6.28869
ITEM: TIMESTEP
400
ITEM: NUMBER OF ATOMS
10
ITEM: BOX BOUNDS pp pp pp
0.0000000000000000e+00 1.5000000000000000e+01
0.0000000000000000e+00 1.5000000000000000e+01
0.0000000000000000e+00 1.5000000000000000e+01
ITEM: ATOMS id type x y z
10 2 9.0281 6.47451 6.49788
4 1 8.49844 7.41392 6.74476
7 2 6.10586 7.87719 9.07003
8 2 8.81899 7.89691 9.12411
9 2 8.78228 8.36848 6.3059
1 1 6.47344 7.27293 6.88939
3 1 8.17562 7.6984 8.26531
2 1 6.8557 7.69157 8.28527
6 2 6.32291 6.22044 6.66919
5 2 6.04663 7.92156 6.11349
ITEM: TIMESTEP
500
ITEM: NUMBER OF ATOMS
10
ITEM: BOX BOUNDS pp pp pp
0.0000000000000000e+00 1.5000000000000000e+01
0.0000000000000000e+00 1.5000000000000000e+01
0.0000000000000000e+00 1.5000000000000000e+01
ITEM: ATOMS id type x y z
10 2 9.05695 6.60272 6.32562
4 1 8.49509 7.39176 6.76979
7 2 6.2935 8.27975 9.11489
8 2 8.93341 7.70891 9.03355
9 2 8.75041 8.27162 6.21689
1 1 6.4334 7.259 6.91061
3 1 8.2119 7.6198 8.22196
2 1 6.85475 7.80166 8.25993
6 2 6.46157 6.14948 6.91593
5 2 5.65733 7.77425 6.30833
ITEM: TIMESTEP
600
ITEM: NUMBER OF ATOMS
10
ITEM: BOX BOUNDS pp pp pp
0.0000000000000000e+00 1.5000000000000000e+01
0.0000000000000000e+00 1.5000000000000000e+01
0.0000000000000000e+00 1.5000000000000000e+01
ITEM: ATOMS id type x y z
10 2 8.90625 6.22081 6.78328
4 1 8.46478 7.26893 6.7302
7 2 6.42177 7.81656 9.29985
8 2 8.97554 8.36817 8.7317
9 2 8.76099 8.0277 5.97311
1 1 6.41124 7.31775 6.9466
3 1 8.24808 7.80064 8.09855
2 1 6.92829 7.64061 8.371
6 2 5.80539 6.4248 6.75487
5 2 5.93974 8.19436 6.46811
ITEM: TIMESTEP
700
ITEM: NUMBER OF ATOMS
10
ITEM: BOX BOUNDS pp pp pp
0.0000000000000000e+00 1.5000000000000000e+01
0.0000000000000000e+00 1.5000000000000000e+01
0.0000000000000000e+00 1.5000000000000000e+01
ITEM: ATOMS id type x y z
10 2 8.5755 6.18346 6.73146
4 1 8.4094 7.28678 6.69047
7 2 6.50333 7.56125 9.25136
8 2 9.12615 8.33805 8.64032
9 2 9.0098 7.73817 5.84135
1 1 6.31901 7.30274 7.10795
3 1 8.31794 7.88164 8.07361
2 1 7.02132 7.65637 8.2704
6 2 5.37929 6.6865 7.33167
5 2 6.12386 7.94744 6.23824
ITEM: TIMESTEP
800
ITEM: NUMBER OF ATOMS
10
ITEM: BOX BOUNDS pp pp pp
0.0000000000000000e+00 1.5000000000000000e+01
0.0000000000000000e+00 1.5000000000000000e+01
0.0000000000000000e+00 1.5000000000000000e+01
ITEM: ATOMS id type x y z
10 2 8.10313 6.09454 6.73245
4 1 8.28895 7.18038 6.60742
7 2 6.65013 7.79777 9.40445
8 2 9.19628 8.54618 8.19774
9 2 8.99907 7.49331 5.85476
1 1 6.32187 7.32732 7.20695
3 1 8.35745 7.90633 7.95593
2 1 7.09249 7.69843 8.40701
6 2 5.61103 6.50099 7.15472
5 2 6.19978 8.11245 6.48103
ITEM: TIMESTEP
900
ITEM: NUMBER OF ATOMS
10
ITEM: BOX BOUNDS pp pp pp
0.0000000000000000e+00 1.5000000000000000e+01
0.0000000000000000e+00 1.5000000000000000e+01
0.0000000000000000e+00 1.5000000000000000e+01
ITEM: ATOMS id type x y z
10 2 8.50261 6.10512 6.51709
4 1 8.22184 7.13086 6.62108
7 2 6.79294 8.33218 9.33441
8 2 9.44106 7.99887 8.35143
9 2 8.32188 7.58097 5.608
1 1 6.28657 7.3057 7.28848
3 1 8.42719 7.78411 7.87533
2 1 7.15917 7.92244 8.37828
6 2 5.71277 6.41018 7.55748
5 2 5.78412 7.93395 6.54155
ITEM: TIMESTEP
1000
ITEM: NUMBER OF ATOMS
10
ITEM: BOX BOUNDS pp pp pp
0.0000000000000000e+00 1.5000000000000000e+01
0.0000000000000000e+00 1.5000000000000000e+01
0.0000000000000000e+00 1.5000000000000000e+01
ITEM: ATOMS id type x y z
10 2 8.65741 6.10818 6.32653
4 1 8.14849 7.04204 6.56552
7 2 7.00808 8.80631 9.10141
8 2 9.42025 7.68311 8.36678
9 2 7.81096 7.75891 5.85796
1 1 6.28524 7.30604 7.36123
3 1 8.46403 7.68382 7.86736
2 1 7.23356 8.08528 8.31576
6 2 6.00084 6.26446 7.64446
5 2 5.43858 7.89599 6.9326
ITEM: TIMESTEP
1100
ITEM: NUMBER OF ATOMS
10
ITEM: BOX BOUNDS pp pp pp
0.0000000000000000e+00 1.5000000000000000e+01
0.0000000000000000e+00 1.5000000000000000e+01
0.0000000000000000e+00 1.5000000000000000e+01
ITEM: ATOMS id type x y z
10 2 8.1154 5.89946 6.5109
4 1 8.0657 7.00129 6.53132
7 2 7.18001 8.47713 9.32099
8 2 9.51412 7.99271 8.11242
9 2 8.24566 7.38367 5.47431
1 1 6.2669 7.34337 7.50668
3 1 8.47793 7.82572 7.77687
2 1 7.29543 8.02163 8.32541
6 2 5.81776 6.39629 7.78657
5 2 5.61523 7.91865 6.84217
ITEM: TIMESTEP
1200
ITEM: NUMBER OF ATOMS
10
ITEM: BOX BOUNDS pp pp pp
0.0000000000000000e+00 1.5000000000000000e+01
0.0000000000000000e+00 1.5000000000000000e+01
0.0000000000000000e+00 1.5000000000000000e+01
ITEM: ATOMS id type x y z
10 2 8.09972 5.83306 6.79694
4 1 7.97091 6.90543 6.53044
7 2 7.27651 8.37606 9.42503
8 2 9.37075 8.45631 7.73185
9 2 8.18705 7.23203 5.4733
1 1 6.26759 7.39063 7.57357
3 1 8.45877 7.85483 7.60301
2 1 7.40381 7.9629 8.43236
6 2 5.58464 6.57562 7.83488
5 2 5.99882 8.06426 6.79066
ITEM: TIMESTEP
1300
ITEM: NUMBER OF ATOMS
10
ITEM: BOX BOUNDS pp pp pp
0.0000000000000000e+00 1.5000000000000000e+01
0.0000000000000000e+00 1.5000000000000000e+01
0.0000000000000000e+00 1.5000000000000000e+01
ITEM: ATOMS id type x y z
10 2 8.1911 5.84112 6.42552
4 1 7.9391 6.88291 6.5216
7 2 7.40943 8.92853 9.20873
8 2 9.54114 8.01398 7.68927
9 2 7.69742 7.26588 5.55995
1 1 6.29719 7.39081 7.62347
3 1 8.4782 7.71382 7.61946
2 1 7.41513 8.13765 8.39035
6 2 5.99894 6.40876 8.01413
5 2 5.50826 8.01058 7.06212
ITEM: TIMESTEP
1400
ITEM: NUMBER OF ATOMS
10
ITEM: BOX BOUNDS pp pp pp
0.0000000000000000e+00 1.5000000000000000e+01
0.0000000000000000e+00 1.5000000000000000e+01
0.0000000000000000e+00 1.5000000000000000e+01
ITEM: ATOMS id type x y z
10 2 8.0082 5.77487 6.34165
4 1 7.85147 6.84655 6.47314
7 2 7.44629 9.12317 8.92771
8 2 9.57735 7.75977 7.70923
9 2 7.59147 7.46358 5.59149
1 1 6.34056 7.41634 7.73993
3 1 8.48726 7.65438 7.60756
2 1 7.47731 8.23467 8.2993
6 2 6.16783 6.45157 8.3134
5 2 5.39329 7.73538 7.28589
ITEM: TIMESTEP
1500
ITEM: NUMBER OF ATOMS
10
ITEM: BOX BOUNDS pp pp pp
0.0000000000000000e+00 1.5000000000000000e+01
0.0000000000000000e+00 1.5000000000000000e+01
0.0000000000000000e+00 1.5000000000000000e+01
ITEM: ATOMS id type x y z
10 2 7.84755 5.66482 6.78453
4 1 7.74107 6.7918 6.52177
7 2 7.57353 8.75381 9.19287
8 2 9.4828 8.19716 7.25309
9 2 7.71969 6.96297 5.4128
1 1 6.32548 7.46421 7.83626
3 1 8.48061 7.80315 7.41915
2 1 7.58819 8.09329 8.33185
6 2 5.97174 6.69439 8.44596
5 2 5.71657 8.03215 7.14556
ITEM: TIMESTEP
1600
ITEM: NUMBER OF ATOMS
10
ITEM: BOX BOUNDS pp pp pp
0.0000000000000000e+00 1.5000000000000000e+01
0.0000000000000000e+00 1.5000000000000000e+01
0.0000000000000000e+00 1.5000000000000000e+01
ITEM: ATOMS id type x y z
10 2 7.95116 5.76731 6.9017
4 1 7.69744 6.74419 6.56063
7 2 7.72824 8.6815 9.27937
8 2 9.50173 8.19116 7.10476
9 2 7.40453 6.76263 5.47831
1 1 6.35773 7.49657 7.89335
3 1 8.49355 7.79493 7.28003
2 1 7.62855 8.1301 8.30018
6 2 5.86573 6.74682 8.51973
5 2 5.60895 8.07575 7.40002
ITEM: TIMESTEP
1700
ITEM: NUMBER OF ATOMS
10
ITEM: BOX BOUNDS pp pp pp
0.0000000000000000e+00 1.5000000000000000e+01
0.0000000000000000e+00 1.5000000000000000e+01
0.0000000000000000e+00 1.5000000000000000e+01
ITEM: ATOMS id type x y z
10 2 7.87704 5.65903 6.48342
4 1 7.63845 6.73538 6.54709
7 2 7.86312 9.08079 8.90407
8 2 9.60535 7.80753 7.1539
9 2 7.12221 7.13891 5.73237
1 1 6.37264 7.4379 7.96198
3 1 8.51762 7.66006 7.33205
2 1 7.63745 8.29435 8.17451
6 2 6.2135 6.70586 8.80415
5 2 5.44585 8.06171 7.71728
ITEM: TIMESTEP
1800
ITEM: NUMBER OF ATOMS
10
ITEM: BOX BOUNDS pp pp pp
0.0000000000000000e+00 1.5000000000000000e+01
0.0000000000000000e+00 1.5000000000000000e+01
0.0000000000000000e+00 1.5000000000000000e+01
ITEM: ATOMS id type x y z
10 2 7.65429 5.61729 6.54569
4 1 7.56096 6.70196 6.56538
7 2 7.95983 9.07153 8.77504
8 2 9.57794 7.786 7.1176
9 2 7.12355 7.17816 5.62129
1 1 6.42437 7.48988 8.09553
3 1 8.48735 7.66837 7.2566
2 1 7.7046 8.28423 8.09972
6 2 6.30143 6.80029 8.94155
5 2 5.44327 7.90011 7.78451
ITEM: TIMESTEP
1900
ITEM: NUMBER OF ATOMS
10
ITEM: BOX BOUNDS pp pp pp
0.0000000000000000e+00 1.5000000000000000e+01
0.0000000000000000e+00 1.5000000000000000e+01
0.0000000000000000e+00 1.5000000000000000e+01
ITEM: ATOMS id type x y z
10 2 7.6348 5.60645 7.03156
4 1 7.46804 6.65636 6.61927
7 2 8.22029 8.81938 9.00309
8 2 9.35867 8.17252 6.63796
9 2 7.25312 6.62357 5.56004
1 1 6.43722 7.56442 8.15987
3 1 8.43698 7.77594 7.04555
2 1 7.8075 8.16219 8.18203
6 2 6.08044 6.92178 8.95494
5 2 5.67822 8.12281 7.6611
ITEM: TIMESTEP
2000
ITEM: NUMBER OF ATOMS
10
ITEM: BOX BOUNDS pp pp pp
0.0000000000000000e+00 1.5000000000000000e+01
0.0000000000000000e+00 1.5000000000000000e+01
0.0000000000000000e+00 1.5000000000000000e+01
ITEM: ATOMS id type x y z
10 2 7.62045 5.70323 7.09394
4 1 7.41284 6.63935 6.65647
7 2 8.4511 8.87116 8.88201
8 2 9.14537 8.15079 6.31279
9 2 6.99723 6.5943 5.6287
1 1 6.4963 7.56118 8.19555
3 1 8.37202 7.71002 6.99089
2 1 7.88656 8.20511 8.19625
6 2 6.14055 6.97719 9.08399
5 2 5.76297 8.22939 7.65259
ITEM: TIMESTEP
2100
ITEM: NUMBER OF ATOMS
10
ITEM: BOX BOUNDS pp pp pp
0.0000000000000000e+00 1.5000000000000000e+01
0.0000000000000000e+00 1.5000000000000000e+01
0.0000000000000000e+00 1.5000000000000000e+01
ITEM: ATOMS id type x y z
10 2 7.37635 5.54078 6.70546
4 1 7.32821 6.66437 6.6392
7 2 8.29309 9.20134 8.47485
8 2 9.36172 7.57885 6.48564
9 2 6.65959 6.99099 5.87099
1 1 6.60514 7.58835 8.32181
3 1 8.38701 7.55135 7.04287
2 1 7.87918 8.35515 7.96084
6 2 6.67002 7.01758 9.30162
5 2 5.56604 7.93508 8.26218
ITEM: TIMESTEP
2200
ITEM: NUMBER OF ATOMS
10
ITEM: BOX BOUNDS pp pp pp
0.0000000000000000e+00 1.5000000000000000e+01
0.0000000000000000e+00 1.5000000000000000e+01
0.0000000000000000e+00 1.5000000000000000e+01
ITEM: ATOMS id type x y z
10 2 7.47508 5.52977 6.53159
4 1 7.20571 6.56662 6.74491
7 2 8.32482 9.25898 8.36813
8 2 9.31302 7.47613 6.45257
9 2 6.3997 7.00583 6.10432
1 1 6.66201 7.65295 8.39632
3 1 8.37855 7.56591 6.92859
2 1 7.90741 8.33548 7.88667
6 2 6.9155 6.91838 9.12614
5 2 5.77373 8.30511 8.5673
ITEM: TIMESTEP
2300
ITEM: NUMBER OF ATOMS
10
ITEM: BOX BOUNDS pp pp pp
0.0000000000000000e+00 1.5000000000000000e+01
0.0000000000000000e+00 1.5000000000000000e+01
0.0000000000000000e+00 1.5000000000000000e+01
ITEM: ATOMS id type x y z
10 2 7.37236 5.58936 7.19405
4 1 7.15148 6.58919 6.76936
7 2 8.64729 8.92714 8.5238
8 2 9.04995 7.84761 6.01145
9 2 6.45015 6.48746 5.95057
1 1 6.77651 7.7193 8.44609
3 1 8.2224 7.61534 6.73897
2 1 8.02262 8.23671 7.96066
6 2 6.73052 7.16615 9.42486
5 2 5.83574 8.23903 8.29376
ITEM: TIMESTEP
2400
ITEM: NUMBER OF ATOMS
10
ITEM: BOX BOUNDS pp pp pp
0.0000000000000000e+00 1.5000000000000000e+01
0.0000000000000000e+00 1.5000000000000000e+01
0.0000000000000000e+00 1.5000000000000000e+01
ITEM: ATOMS id type x y z
10 2 7.35629 5.5801 7.20394
4 1 7.06939 6.56678 6.80259
7 2 8.79135 9.04151 8.31665
8 2 8.82039 7.84573 5.85226
9 2 6.20343 6.59053 6.10717
1 1 6.80801 7.67013 8.47854
3 1 8.19211 7.58945 6.7478
2 1 8.12054 8.27311 7.91676
6 2 6.9172 7.29533 9.47588
5 2 5.89507 8.26999 8.25898
ITEM: TIMESTEP
2500
ITEM: NUMBER OF ATOMS
10
ITEM: BOX BOUNDS pp pp pp
0.0000000000000000e+00 1.5000000000000000e+01
0.0000000000000000e+00 1.5000000000000000e+01
0.0000000000000000e+00 1.5000000000000000e+01
ITEM: ATOMS id type x y z
10 2 7.06646 5.45834 6.91556
4 1 7.00573 6.56586 6.85332
7 2 8.61018 9.2912 7.959
8 2 8.93598 7.5032 6.00443
9 2 6.03124 6.97029 6.43906
1 1 6.91533 7.73591 8.52941
3 1 8.22736 7.48302 6.78781
2 1 8.06292 8.34253 7.74704
6 2 7.21807 7.01512 9.29474
5 2 5.99405 8.21795 8.77079
ITEM: TIMESTEP
2600
ITEM: NUMBER OF ATOMS
10
ITEM: BOX BOUNDS pp pp pp
0.0000000000000000e+00 1.5000000000000000e+01
0.0000000000000000e+00 1.5000000000000000e+01
0.0000000000000000e+00 1.5000000000000000e+01
ITEM: ATOMS id type x y z
10 2 6.97014 5.46761 7.18438
4 1 6.92504 6.57264 6.94668
7 2 8.7706 9.16887 7.94056
8 2 8.90731 7.51722 5.83097
9 2 6.01082 6.80894 6.41503
1 1 7.03731 7.77705 8.57771
3 1 8.14324 7.47896 6.66464
2 1 8.0889 8.34736 7.72477
6 2 7.29094 6.99718 9.27943
5 2 6.00729 8.20415 8.75581
ITEM: TIMESTEP
2700
ITEM: NUMBER OF ATOMS
10
ITEM: BOX BOUNDS pp pp pp
0.0000000000000000e+00 1.5000000000000000e+01
0.0000000000000000e+00 1.5000000000000000e+01
0.0000000000000000e+00 1.5000000000000000e+01
ITEM: ATOMS id type x y z
10 2 7.24945 5.69635 7.59883
4 1 6.90902 6.54999 7.03717
7 2 9.19645 8.76236 7.94671
8 2 8.31175 7.80136 5.54171
9 2 5.90788 6.54579 6.49565
1 1 7.077 7.80659 8.59714
3 1 7.92868 7.55015 6.53578
2 1 8.26849 8.23266 7.71454
6 2 7.20632 7.24426 9.57472
5 2 6.15294 8.33351 8.42368
ITEM: TIMESTEP
2800
ITEM: NUMBER OF ATOMS
10
ITEM: BOX BOUNDS pp pp pp
0.0000000000000000e+00 1.5000000000000000e+01
0.0000000000000000e+00 1.5000000000000000e+01
0.0000000000000000e+00 1.5000000000000000e+01
ITEM: ATOMS id type x y z
10 2 6.98594 5.59058 7.55833
4 1 6.83037 6.60626 7.06025
7 2 9.11536 8.96399 7.62388
8 2 8.16692 7.38926 5.49407
9 2 5.7911 6.7645 6.84033
1 1 7.22676 7.80171 8.64881
3 1 7.91749 7.48272 6.5675
2 1 8.24206 8.26383 7.56002
6 2 7.49763 7.25423 9.54164
5 2 6.26692 8.33027 8.81126
ITEM: TIMESTEP
2900
ITEM: NUMBER OF ATOMS
10
ITEM: BOX BOUNDS pp pp pp
0.0000000000000000e+00 1.5000000000000000e+01
0.0000000000000000e+00 1.5000000000000000e+01
0.0000000000000000e+00 1.5000000000000000e+01
ITEM: ATOMS id type x y z
10 2 6.69388 5.58318 7.24286
4 1 6.73894 6.62531 7.19744
7 2 8.77713 9.14936 7.41459
8 2 8.35712 7.09469 5.58022
9 2 5.80729 7.18015 7.03746
1 1 7.3854 7.85296 8.6754
3 1 7.91938 7.34059 6.53677
2 1 8.13512 8.30649 7.44497
6 2 7.77792 6.99821 9.268
5 2 6.63766 8.4623 9.21848
ITEM: TIMESTEP
3000
ITEM: NUMBER OF ATOMS
10
ITEM: BOX BOUNDS pp pp pp
0.0000000000000000e+00 1.5000000000000000e+01
0.0000000000000000e+00 1.5000000000000000e+01
0.0000000000000000e+00 1.5000000000000000e+01
ITEM: ATOMS id type x y z
10 2 6.87993 5.57845 7.51099
4 1 6.71456 6.66302 7.27643
7 2 9.16429 8.88501 7.3518
8 2 8.02627 7.27605 5.38343
9 2 5.68403 6.86791 7.08201
1 1 7.45227 7.88322 8.67901
3 1 7.73754 7.38459 6.46238
2 1 8.23785 8.22278 7.4355
6 2 7.88448 7.16757 9.39292
5 2 6.63165 8.52338 9.0479
ITEM: TIMESTEP
3100
ITEM: NUMBER OF ATOMS
10
ITEM: BOX BOUNDS pp pp pp
0.0000000000000000e+00 1.5000000000000000e+01
0.0000000000000000e+00 1.5000000000000000e+01
0.0000000000000000e+00 1.5000000000000000e+01
ITEM: ATOMS id type x y z
10 2 7.06216 5.73033 7.72663
4 1 6.68805 6.66476 7.28541
7 2 9.32295 8.56655 7.22359
8 2 7.59494 7.46877 5.39529
9 2 5.55775 6.66332 7.10784
1 1 7.50571 7.89655 8.66391
3 1 7.59977 7.4483 6.48803
2 1 8.35527 8.10846 7.38214
6 2 8.02696 7.55972 9.56279
5 2 6.66649 8.52283 8.95594
ITEM: TIMESTEP
3200
ITEM: NUMBER OF ATOMS
10
ITEM: BOX BOUNDS pp pp pp
0.0000000000000000e+00 1.5000000000000000e+01
0.0000000000000000e+00 1.5000000000000000e+01
0.0000000000000000e+00 1.5000000000000000e+01
ITEM: ATOMS id type x y z
10 2 6.64541 5.56898 7.49051
4 1 6.64273 6.67581 7.41291
7 2 9.01272 8.87522 6.99672
8 2 7.64792 7.23784 5.4237
9 2 5.64305 7.08022 7.30624
1 1 7.61743 7.9189 8.65545
3 1 7.63773 7.34354 6.50233
2 1 8.26691 8.14904 7.30185
6 2 8.18156 7.23597 9.30579
5 2 7.00458 8.69804 9.1308
ITEM: TIMESTEP
3300
ITEM: NUMBER OF ATOMS
10
ITEM: BOX BOUNDS pp pp pp
0.0000000000000000e+00 1.5000000000000000e+01
0.0000000000000000e+00 1.5000000000000000e+01
0.0000000000000000e+00 1.5000000000000000e+01
ITEM: ATOMS id type x y z
10 2 6.26801 5.69095 7.46749
4 1 6.58702 6.73035 7.5143
7 2 8.80315 9.08875 6.8858
8 2 7.77001 6.98924 5.42636
9 2 5.66946 7.32488 7.42323
1 1 7.81412 7.90573 8.61024
3 1 7.59704 7.20611 6.50593
2 1 8.15168 8.2219 7.22797
6 2 8.27807 7.07677 9.19681
5 2 7.43611 8.66488 9.33865
ITEM: TIMESTEP
3400
ITEM: NUMBER OF ATOMS
10
ITEM: BOX BOUNDS pp pp pp
0.0000000000000000e+00 1.5000000000000000e+01
0.0000000000000000e+00 1.5000000000000000e+01
0.0000000000000000e+00 1.5000000000000000e+01
ITEM: ATOMS id type x y z
10 2 6.77115 5.78647 7.95143
4 1 6.53667 6.80344 7.60643
7 2 9.23261 8.38359 6.6983
8 2 7.19297 7.18435 5.45258
9 2 5.41975 6.86743 7.48396
1 1 7.91484 7.88963 8.58409
3 1 7.33897 7.34772 6.51486
2 1 8.31146 8.11576 7.12849
6 2 8.64974 7.461 9.25982
5 2 7.24614 8.59785 9.03969
ITEM: TIMESTEP
3500
ITEM: NUMBER OF ATOMS
10
ITEM: BOX BOUNDS pp pp pp
0.0000000000000000e+00 1.5000000000000000e+01
0.0000000000000000e+00 1.5000000000000000e+01
0.0000000000000000e+00 1.5000000000000000e+01
ITEM: ATOMS id type x y z
10 2 6.86558 5.7234 7.84985
4 1 6.56657 6.7849 7.69313
7 2 9.30124 8.17056 6.53043
8 2 6.88988 7.25094 5.47545
9 2 5.5693 7.05296 7.98694
1 1 7.96126 7.94968 8.52814
3 1 7.23708 7.44091 6.54563
2 1 8.32471 7.94825 7.0408
6 2 8.53787 7.44599 9.30229
5 2 7.4224 8.83379 8.89782
ITEM: TIMESTEP
3600
ITEM: NUMBER OF ATOMS
10
ITEM: BOX BOUNDS pp pp pp
0.0000000000000000e+00 1.5000000000000000e+01
0.0000000000000000e+00 1.5000000000000000e+01
0.0000000000000000e+00 1.5000000000000000e+01
ITEM: ATOMS id type x y z
10 2 6.29395 5.83965 8.05797
4 1 6.55641 6.84383 7.80299
7 2 8.94885 8.63728 6.41924
8 2 7.03118 6.90763 5.55181
9 2 5.66265 7.48735 7.96095
1 1 8.09296 7.9234 8.48142
3 1 7.23757 7.26653 6.50823
2 1 8.23579 8.05036 6.9914
6 2 8.67098 7.13142 9.01655
5 2 7.78006 8.71195 9.1782
ITEM: TIMESTEP
3700
ITEM: NUMBER OF ATOMS
10
ITEM: BOX BOUNDS pp pp pp
0.0000000000000000e+00 1.5000000000000000e+01
0.0000000000000000e+00 1.5000000000000000e+01
0.0000000000000000e+00 1.5000000000000000e+01
ITEM: ATOMS id type x y z
10 2 6.26187 5.89416 8.19393
4 1 6.5391 6.94498 7.84602
7 2 8.74554 8.7507 6.32918
8 2 6.99072 6.81024 5.49789
9 2 5.69211 7.6064 7.93722
1 1 8.19034 7.879 8.45245
3 1 7.20347 7.18164 6.56411
2 1 8.16125 8.06282 6.96222
6 2 8.70816 7.01617 8.84938
5 2 8.16061 8.73167 9.13261
ITEM: TIMESTEP
3800
ITEM: NUMBER OF ATOMS
10
ITEM: BOX BOUNDS pp pp pp
0.0000000000000000e+00 1.5000000000000000e+01
0.0000000000000000e+00 1.5000000000000000e+01
0.0000000000000000e+00 1.5000000000000000e+01
ITEM: ATOMS id type x y z
10 2 6.70836 5.88424 8.00038
4 1 6.55195 6.93967 7.91143
7 2 9.01803 8.05834 6.15705
8 2 6.46546 7.32659 5.67311
9 2 5.54873 7.2423 8.33494
1 1 8.21298 7.93975 8.43084
3 1 7.05263 7.35957 6.60165
2 1 8.25391 7.8192 6.86907
6 2 8.89758 7.39122 9.10609
5 2 8.05697 8.96817 8.73946
ITEM: TIMESTEP
3900
ITEM: NUMBER OF ATOMS
10
ITEM: BOX BOUNDS pp pp pp
0.0000000000000000e+00 1.5000000000000000e+01
0.0000000000000000e+00 1.5000000000000000e+01
0.0000000000000000e+00 1.5000000000000000e+01
ITEM: ATOMS id type x y z
10 2 6.68674 5.9688 8.1864
4 1 6.49606 7.05845 8.0001
7 2 8.9702 7.99693 6.03846
8 2 6.33548 7.23931 5.83229
9 2 5.53246 7.33319 8.31866
1 1 8.35231 7.88388 8.32507
3 1 6.98026 7.35489 6.64161
2 1 8.21785 7.74394 6.83446
6 2 9.31581 7.64444 8.8177
5 2 8.00439 8.79035 8.88809
ITEM: TIMESTEP
4000
ITEM: NUMBER OF ATOMS
10
ITEM: BOX BOUNDS pp pp pp
0.0000000000000000e+00 1.5000000000000000e+01
0.0000000000000000e+00 1.5000000000000000e+01
0.0000000000000000e+00 1.5000000000000000e+01
ITEM: ATOMS id type x y z
10 2 6.25909 6.15195 8.39887
4 1 6.58279 7.11502 8.12359
7 2 8.68637 8.31853 5.90712
8 2 6.34963 6.70465 5.80879
9 2 5.7958 7.87483 8.42731
1 1 8.45436 7.88919 8.24615
3 1 6.90583 7.21917 6.70132
2 1 8.13003 7.84177 6.76541
6 2 9.00902 6.97851 8.51065
5 2 8.58608 8.80058 8.81748
ITEM: TIMESTEP
4100
ITEM: NUMBER OF ATOMS
10
ITEM: BOX BOUNDS pp pp pp
0.0000000000000000e+00 1.5000000000000000e+01
0.0000000000000000e+00 1.5000000000000000e+01
0.0000000000000000e+00 1.5000000000000000e+01
ITEM: ATOMS id type x y z
10 2 6.31458 6.17958 8.67737
4 1 6.5793 7.17025 8.19698
7 2 8.58365 8.1955 5.8289
8 2 6.22299 6.83111 5.97077
9 2 5.95493 7.9575 8.52158
1 1 8.51511 7.82492 8.14681
3 1 6.85428 7.22568 6.75496
2 1 8.08741 7.81587 6.66964
6 2 9.05532 7.02819 8.64141
5 2 8.77595 8.80781 8.63862
ITEM: TIMESTEP
4200
ITEM: NUMBER OF ATOMS
10
ITEM: BOX BOUNDS pp pp pp
0.0000000000000000e+00 1.5000000000000000e+01
0.0000000000000000e+00 1.5000000000000000e+01
0.0000000000000000e+00 1.5000000000000000e+01
ITEM: ATOMS id type x y z
10 2 6.79266 6.22147 8.63095
4 1 6.60196 7.20828 8.2549
7 2 8.67865 7.56843 5.67528
8 2 5.98925 7.28353 6.07334
9 2 5.83663 7.79966 8.84875
1 1 8.54542 7.81494 8.08084
3 1 6.80372 7.38429 6.78341
2 1 8.06852 7.63236 6.655
6 2 9.33984 7.27275 8.64878
5 2 8.36928 8.83491 8.36704
ITEM: TIMESTEP
4300
ITEM: NUMBER OF ATOMS
10
ITEM: BOX BOUNDS pp pp pp
0.0000000000000000e+00 1.5000000000000000e+01
0.0000000000000000e+00 1.5000000000000000e+01
0.0000000000000000e+00 1.5000000000000000e+01
ITEM: ATOMS id type x y z
10 2 6.74566 6.24679 8.75758
4 1 6.6356 7.2833 8.34521
7 2 8.59119 7.59 5.66884
8 2 5.96881 7.07876 6.05941
9 2 6.09989 8.01371 8.95779
1 1 8.57567 7.79832 8.01111
3 1 6.72299 7.34442 6.79996
2 1 8.04912 7.63255 6.58813
6 2 9.23846 7.13089 8.53107
5 2 8.57967 8.80833 8.4478
ITEM: TIMESTEP
4400
ITEM: NUMBER OF ATOMS
10
ITEM: BOX BOUNDS pp pp pp
0.0000000000000000e+00 1.5000000000000000e+01
0.0000000000000000e+00 1.5000000000000000e+01
0.0000000000000000e+00 1.5000000000000000e+01
ITEM: ATOMS id type x y z
10 2 6.38692 6.58515 9.12088
4 1 6.67279 7.33449 8.37062
7 2 8.30124 8.1485 5.65045
8 2 5.99486 6.73631 6.1096
9 2 6.54879 8.36143 8.73974
1 1 8.6367 7.76848 7.91571
3 1 6.70466 7.19028 6.89061
2 1 7.96741 7.68446 6.5835
6 2 9.05616 6.81568 8.30605
5 2 8.94665 8.70663 8.39963
ITEM: TIMESTEP
4500
ITEM: NUMBER OF ATOMS
10
ITEM: BOX BOUNDS pp pp pp
0.0000000000000000e+00 1.5000000000000000e+01
0.0000000000000000e+00 1.5000000000000000e+01
0.0000000000000000e+00 1.5000000000000000e+01
ITEM: ATOMS id type x y z
10 2 6.82662 6.54135 9.1302
4 1 6.71553 7.39604 8.4643
7 2 8.29499 7.78243 5.45302
8 2 5.79412 7.08034 6.35167
9 2 6.46606 8.36247 8.92485
1 1 8.64383 7.75531 7.86031
3 1 6.66552 7.29473 6.91219
2 1 7.89983 7.52193 6.51965
6 2 9.14398 6.89857 8.28068
5 2 9.05 8.74681 8.20986
ITEM: TIMESTEP
4600
ITEM: NUMBER OF ATOMS
10
ITEM: BOX BOUNDS pp pp pp
0.0000000000000000e+00 1.5000000000000000e+01
0.0000000000000000e+00 1.5000000000000000e+01
0.0000000000000000e+00 1.5000000000000000e+01
ITEM: ATOMS id type x y z
10 2 7.20912 6.52632 8.86866
4 1 6.7842 7.48764 8.50924
7 2 8.21771 6.99608 5.61703
8 2 5.61017 7.60521 6.52358
9 2 6.34657 8.12101 9.28663
1 1 8.68603 7.73428 7.71614
3 1 6.58466 7.46097 6.98326
2 1 7.84571 7.3374 6.54814
6 2 9.51836 7.09293 8.08916
5 2 8.81847 8.75676 7.96322
ITEM: TIMESTEP
4700
ITEM: NUMBER OF ATOMS
10
ITEM: BOX BOUNDS pp pp pp
0.0000000000000000e+00 1.5000000000000000e+01
0.0000000000000000e+00 1.5000000000000000e+01
0.0000000000000000e+00 1.5000000000000000e+01
ITEM: ATOMS id type x y z
10 2 6.71335 6.71127 9.19856
4 1 6.90184 7.54664 8.54235
7 2 8.13032 7.37624 5.46983
8 2 5.51267 7.17608 6.59765
9 2 6.74883 8.55084 9.01144
1 1 8.71491 7.65723 7.6433
3 1 6.54677 7.32932 7.10692
2 1 7.77279 7.43624 6.50206
6 2 9.37541 6.8672 8.06019
5 2 9.02553 8.72182 7.78351
ITEM: TIMESTEP
4800
ITEM: NUMBER OF ATOMS
10
ITEM: BOX BOUNDS pp pp pp
0.0000000000000000e+00 1.5000000000000000e+01
0.0000000000000000e+00 1.5000000000000000e+01
0.0000000000000000e+00 1.5000000000000000e+01
ITEM: ATOMS id type x y z
10 2 6.63316 6.95677 9.42365
4 1 6.92762 7.62877 8.56562
7 2 7.92514 7.55188 5.34497
8 2 5.67424 6.76736 6.91044
9 2 6.83507 8.6544 8.84088
1 1 8.72605 7.6085 7.59323
3 1 6.55601 7.26608 7.17302
2 1 7.70773 7.52969 6.45355
6 2 9.11254 6.64257 7.95828
5 2 9.43939 8.4488 7.69827
ITEM: TIMESTEP
4900
ITEM: NUMBER OF ATOMS
10
ITEM: BOX BOUNDS pp pp pp
0.0000000000000000e+00 1.5000000000000000e+01
0.0000000000000000e+00 1.5000000000000000e+01
0.0000000000000000e+00 1.5000000000000000e+01
ITEM: ATOMS id type x y z
10 2 7.00605 6.83718 9.31955
4 1 6.97936 7.65458 8.60606
7 2 7.72929 7.13961 5.44236
8 2 5.47032 7.27738 6.97488
9 2 6.59714 8.68079 8.98864
1 1 8.73942 7.59067 7.53612
3 1 6.56223 7.43833 7.17321
2 1 7.66927 7.30245 6.49607
6 2 9.46911 6.79287 7.69565
5 2 9.15038 8.57598 7.59918
ITEM: TIMESTEP
5000
ITEM: NUMBER OF ATOMS
10
ITEM: BOX BOUNDS pp pp pp
0.0000000000000000e+00 1.5000000000000000e+01
0.0000000000000000e+00 1.5000000000000000e+01
0.0000000000000000e+00 1.5000000000000000e+01
ITEM: ATOMS id type x y z
10 2 7.13134 6.73383 9.19489
4 1 7.05661 7.70727 8.63048
7 2 7.61342 6.7493 5.51324
8 2 5.51137 7.73201 6.87215
9 2 6.77545 8.52696 9.24452
1 1 8.72325 7.59988 7.41267
3 1 6.54877 7.53949 7.26534
2 1 7.59041 7.12367 6.53354
6 2 9.56174 6.99047 7.77071
5 2 9.0164 8.66555 7.2413
ITEM: TIMESTEP
5100
ITEM: NUMBER OF ATOMS
10
ITEM: BOX BOUNDS pp pp pp
0.0000000000000000e+00 1.5000000000000000e+01
0.0000000000000000e+00 1.5000000000000000e+01
0.0000000000000000e+00 1.5000000000000000e+01
ITEM: ATOMS id type x y z
10 2 7.01179 7.23566 9.50837
4 1 7.19992 7.80545 8.63884
7 2 7.49244 7.08227 5.34505
8 2 5.45375 7.15742 7.07849
9 2 7.20479 8.88897 8.94239
1 1 8.74523 7.53065 7.3559
3 1 6.44679 7.34714 7.38157
2 1 7.50565 7.29976 6.4718
6 2 9.18129 6.57809 7.8193
5 2 9.39438 8.37957 7.10674
ITEM: TIMESTEP
5200
ITEM: NUMBER OF ATOMS
10
ITEM: BOX BOUNDS pp pp pp
0.0000000000000000e+00 1.5000000000000000e+01
0.0000000000000000e+00 1.5000000000000000e+01
0.0000000000000000e+00 1.5000000000000000e+01
ITEM: ATOMS id type x y z
10 2 7.21159 7.469 9.71337
4 1 7.22946 7.90144 8.63747
7 2 7.28857 7.31087 5.42177
8 2 5.43223 6.97175 7.36786
9 2 7.41145 8.96186 8.55066
1 1 8.69037 7.41225 7.26556
3 1 6.50176 7.3111 7.4553
2 1 7.44436 7.33439 6.48907
6 2 9.13937 6.54355 7.65425
5 2 9.44505 8.20791 7.0967
ITEM: TIMESTEP
5300
ITEM: NUMBER OF ATOMS
10
ITEM: BOX BOUNDS pp pp pp
0.0000000000000000e+00 1.5000000000000000e+01
0.0000000000000000e+00 1.5000000000000000e+01
0.0000000000000000e+00 1.5000000000000000e+01
ITEM: ATOMS id type x y z
10 2 7.46292 7.02365 9.28445
4 1 7.29761 7.87461 8.66205
7 2 7.22252 6.53105 5.64356
8 2 5.37134 7.61196 7.37198
9 2 7.37752 8.89221 9.11834
1 1 8.69147 7.48869 7.21932
3 1 6.4871 7.5878 7.39763
2 1 7.385 7.05513 6.57079
6 2 9.44328 6.70364 7.49419
5 2 9.07936 8.42011 6.87774
ITEM: TIMESTEP
5400
ITEM: NUMBER OF ATOMS
10
ITEM: BOX BOUNDS pp pp pp
0.0000000000000000e+00 1.5000000000000000e+01
0.0000000000000000e+00 1.5000000000000000e+01
0.0000000000000000e+00 1.5000000000000000e+01
ITEM: ATOMS id type x y z
10 2 7.62154 7.16477 9.38536
4 1 7.36105 7.9549 8.62908
7 2 7.22073 6.56314 5.55434
8 2 5.39178 7.58869 7.47828
9 2 7.33106 8.92718 9.07479
1 1 8.68676 7.40039 7.16265
3 1 6.45379 7.57359 7.49737
2 1 7.32282 7.0566 6.57511
6 2 9.4684 6.65996 7.38313
5 2 9.14397 8.40344 6.82783
ITEM: TIMESTEP
5500
ITEM: NUMBER OF ATOMS
10
ITEM: BOX BOUNDS pp pp pp
0.0000000000000000e+00 1.5000000000000000e+01
0.0000000000000000e+00 1.5000000000000000e+01
0.0000000000000000e+00 1.5000000000000000e+01
ITEM: ATOMS id type x y z
10 2 7.4557 7.63527 9.62744
4 1 7.44427 8.01499 8.58638
7 2 7.06508 7.08188 5.50694
8 2 5.38271 7.14486 7.77419
9 2 7.55436 9.16229 8.52729
1 1 8.67107 7.32956 7.08956
3 1 6.48755 7.3727 7.64339
2 1 7.2757 7.24506 6.54395
6 2 9.04494 6.40318 7.59143
5 2 9.34976 8.01869 6.68202
ITEM: TIMESTEP
5600
ITEM: NUMBER OF ATOMS
10
ITEM: BOX BOUNDS pp pp pp
0.0000000000000000e+00 1.5000000000000000e+01
0.0000000000000000e+00 1.5000000000000000e+01
0.0000000000000000e+00 1.5000000000000000e+01
ITEM: ATOMS id type x y z
10 2 7.54141 7.44455 9.52209
4 1 7.52274 8.06219 8.60355
7 2 6.78318 6.65993 5.68718
8 2 5.42344 7.44266 7.89656
9 2 7.72524 9.12881 8.70249
1 1 8.64723 7.32268 7.03756
3 1 6.48579 7.49426 7.63484
2 1 7.20284 7.11362 6.58891
6 2 9.21727 6.50322 7.36242
5 2 9.28185 8.0844 6.52913
ITEM: TIMESTEP
5700
ITEM: NUMBER OF ATOMS
10
ITEM: BOX BOUNDS pp pp pp
0.0000000000000000e+00 1.5000000000000000e+01
0.0000000000000000e+00 1.5000000000000000e+01
0.0000000000000000e+00 1.5000000000000000e+01
ITEM: ATOMS id type x y z
10 2 7.85339 7.29385 9.29146
4 1 7.57889 8.04452 8.59248
7 2 6.64187 6.15966 6.00968
8 2 5.50361 8.02657 7.69661
9 2 7.70678 9.04072 8.98694
1 1 8.59885 7.32566 6.94791
3 1 6.5184 7.71043 7.61445
2 1 7.14408 6.88075 6.74161
6 2 9.51721 6.59023 6.92262
5 2 8.85976 8.34078 6.60301
ITEM: TIMESTEP
5800
ITEM: NUMBER OF ATOMS
10
ITEM: BOX BOUNDS pp pp pp
0.0000000000000000e+00 1.5000000000000000e+01
0.0000000000000000e+00 1.5000000000000000e+01
0.0000000000000000e+00 1.5000000000000000e+01
ITEM: ATOMS id type x y z
10 2 8.02369 7.66813 9.50655