LAMMPS (2 Aug 2023 - Update 2)
#13 Butadiene
units           metal
boundary        p p p
atom_style      atomic

neighbor        2.0 bin
neigh_modify    delay 0 every 1 check yes

read_data       restart.lmp
Reading data file ...
  orthogonal box = (0 0 0) to (15 15 15)
  1 by 1 by 3 MPI processor grid
  reading atoms ...
  10 atoms
  reading velocities ...
  10 velocities
  read_data CPU = 0.001 seconds
mass            1 12.0
mass            2 2

variable        sysvol          equal vol
variable        sysmass         equal mass(all)/6.0221367e+23
variable        sysdensity      equal v_sysmass/v_sysvol/1.0e-24
variable	out_freq 	equal 100

pair_style      deepmd ../files/frozen_model_1_compressed.pb ../files/frozen_model_2_compressed.pb ../files/frozen_model_3_compressed.pb ../files/frozen_model_3_compressed.pb out_file md.out out_freq 10 atomic relative 1.0
Summary of lammps deepmd module ...
  >>> Info of deepmd-kit:
  installed to:       /rs1/researchers/w/wjpfaend/rahul/MLP/DeePMD-kit/deepmd_cpu
  source:             v2.2.8-dirty
  source branch:      master
  source commit:      b875ea8
  source commit at:   2024-01-22 22:28:58 -0500
  support model ver.: 1.1 
  build variant:      cpu
  build with tf inc:  /rs1/researchers/w/wjpfaend/rahul/MLP/DeePMD-kit/tensorflow/lib/python3.11/site-packages/tensorflow/include;/rs1/researchers/w/wjpfaend/rahul/MLP/DeePMD-kit/tensorflow/lib/python3.11/site-packages/tensorflow/include
  build with tf lib:  /rs1/researchers/w/wjpfaend/rahul/MLP/DeePMD-kit/tensorflow/lib/python3.11/site-packages/tensorflow/libtensorflow_cc.so.2
  set tf intra_op_parallelism_threads: 0
  set tf inter_op_parallelism_threads: 0
  >>> Info of lammps module:
  use deepmd-kit at:  /rs1/researchers/w/wjpfaend/rahul/MLP/DeePMD-kit/deepmd_cpu
  source:             v2.2.8-dirty
  source branch:      master
  source commit:      b875ea8
  source commit at:   2024-01-22 22:28:58 -0500
  build float prec:   double
  build with tf inc:  /rs1/researchers/w/wjpfaend/rahul/MLP/DeePMD-kit/tensorflow/lib/python3.11/site-packages/tensorflow/include;/rs1/researchers/w/wjpfaend/rahul/MLP/DeePMD-kit/tensorflow/lib/python3.11/site-packages/tensorflow/include
  build with tf lib:  /rs1/researchers/w/wjpfaend/rahul/MLP/DeePMD-kit/tensorflow/lib/python3.11/site-packages/tensorflow/libtensorflow_cc.so.2
pair_coeff	* *

#
velocity        all create 300.0 2345678 rot no dist gaussian
fix             1 all nvt temp 300.0 300.0 0.05
fix             2 all plumed plumedfile plumed.dat outfile PLUMED.log

timestep        0.0005
thermo_style    custom step pe ke etotal v_sysdensity temp press vol
thermo          10

dump            10 all custom 100 btd.dump id type x y z
dump		101 all xyz 20 btd.xyz
dump_modify	101 element C H

fix		extra all print 20 "$(step), $(ke), $(pe), $(etotal), $(temp), $(press), $(vol)" file logfile screen no

restart	        20000 dump.restart

run             50000

CITE-CITE-CITE-CITE-CITE-CITE-CITE-CITE-CITE-CITE-CITE-CITE-CITE

Your simulation uses code contributions which should be cited:

- USER-DEEPMD package:

@article{Wang_ComputPhysCommun_2018_v228_p178,
  author = {Wang, Han and Zhang, Linfeng and Han, Jiequn and E, Weinan},
  doi = {10.1016/j.cpc.2018.03.016},
  url = {https://doi.org/10.1016/j.cpc.2018.03.016},
  year = 2018,
  month = {jul},
  publisher = {Elsevier {BV}},
  volume = 228,
  journal = {Comput. Phys. Commun.},
  title = {{DeePMD-kit: A deep learning package for many-body potential energy representation and molecular dynamics}},
  pages = {178--184}
}
@misc{Zeng_JChemPhys_2023_v159_p054801,
  title  = {{DeePMD-kit v2: A software package for deep potential models}},
  author =   {Jinzhe Zeng and Duo Zhang and Denghui Lu and Pinghui Mo and Zeyu Li
         and Yixiao Chen and Mari{\'a}n Rynik and Li'ang Huang and Ziyao Li and 
         Shaochen Shi and Yingze Wang and Haotian Ye and Ping Tuo and Jiabin
         Yang and Ye Ding and Yifan Li and Davide Tisi and Qiyu Zeng and Han 
         Bao and Yu Xia and Jiameng Huang and Koki Muraoka and Yibo Wang and 
         Junhan Chang and Fengbo Yuan and Sigbj{\o}rn L{\o}land Bore and Chun
         Cai and Yinnian Lin and Bo Wang and Jiayan Xu and Jia-Xin Zhu and 
         Chenxing Luo and Yuzhi Zhang and Rhys E A Goodall and Wenshuo Liang
         and Anurag Kumar Singh and Sikai Yao and Jingchao Zhang and Renata
         Wentzcovitch and Jiequn Han and Jie Liu and Weile Jia and Darrin M
         York and Weinan E and Roberto Car and Linfeng Zhang and Han Wang},
  journal =  {J. Chem. Phys.},
  volume =   159,
  issue =    5,  
  year =    2023,
  pages  =   054801,
  doi =      {10.1063/5.0155600},
}

CITE-CITE-CITE-CITE-CITE-CITE-CITE-CITE-CITE-CITE-CITE-CITE-CITE

Generated 0 of 1 mixed pair_coeff terms from geometric mixing rule
Neighbor list info ...
  update: every = 1 steps, delay = 0 steps, check = yes
  max neighbors/atom: 2000, page size: 100000
  master list distance cutoff = 8
  ghost atom cutoff = 8
  binsize = 4, bins = 4 4 4
  1 neighbor lists, perpetual/occasional/extra = 1 0 0
  (1) pair deepmd, perpetual
      attributes: full, newton on
      pair build: full/bin/atomonly
      stencil: full/bin/3d
      bin: standard
Per MPI rank memory allocation (min/avg/max) = 2.958 | 2.999 | 3.083 Mbytes
   Step         PotEng         KinEng         TotEng      v_sysdensity       Temp          Press          Volume    
         0  -54.848058      0.34900239    -54.499056      0.029520714    300           -1797.4176      3375         
        10  -54.599308      0.59586789    -54.00344       0.029520714    512.20385     -486.19828      3375         
        20  -54.70285       0.647783      -54.055067      0.029520714    556.82971      1388.924       3375         
        30  -54.770796      0.6912615     -54.079535      0.029520714    594.20352      1035.8143      3375         
        40  -54.785162      0.64972895    -54.135433      0.029520714    558.50244     -628.37654      3375         
        50  -54.662722      0.52250604    -54.140216      0.029520714    449.14252     -1368.0086      3375         
        60  -54.706494      0.50493966    -54.201554      0.029520714    434.04258     -30.667936      3375         
        70  -54.550894      0.31021378    -54.24068       0.029520714    266.65758      1448.5897      3375         
        80  -54.722686      0.46947122    -54.253215      0.029520714    403.55415      555.77099      3375         
        90  -54.582721      0.29249112    -54.29023       0.029520714    251.42331     -879.74143      3375         
       100  -54.733826      0.42495057    -54.308875      0.029520714    365.28452     -920.25752      3375         
       110  -54.923762      0.57356696    -54.350195      0.029520714    493.03412     -19.202457      3375         
       120  -54.819028      0.44921333    -54.369815      0.029520714    386.14061      803.31696      3375         
       130  -54.955082      0.57025569    -54.384826      0.029520714    490.18778      996.77777      3375         
       140  -54.891039      0.470599      -54.42044       0.029520714    404.52359     -416.54744      3375         
       150  -54.937327      0.4890674     -54.44826       0.029520714    420.39889     -1488.7318      3375         
       160  -55.015208      0.52575031    -54.489458      0.029520714    451.93127     -286.28831      3375         
       170  -55.056991      0.55384295    -54.503148      0.029520714    476.07951      929.77865      3375         
       180  -55.042263      0.5367697     -54.505493      0.029520714    461.40346      910.37894      3375         
       190  -55.101296      0.54819195    -54.553104      0.029520714    471.22194     -173.48028      3375         
       200  -55.00628       0.41375174    -54.592528      0.029520714    355.65809     -945.87285      3375         
       210  -55.004034      0.38837486    -54.615659      0.029520714    333.84429     -324.20354      3375         
       220  -55.000783      0.37752534    -54.623258      0.029520714    324.51813      908.22068      3375         
       230  -54.992607      0.35178567    -54.640822      0.029520714    302.39248      447.12309      3375         
       240  -55.000351      0.33965188    -54.660699      0.029520714    291.96236     -738.16776      3375         
       250  -55.089606      0.41004262    -54.679563      0.029520714    352.46975     -608.03539      3375         
       260  -55.136917      0.42744642    -54.709471      0.029520714    367.42994      222.39356      3375         
       270  -55.031798      0.31395855    -54.71784       0.029520714    269.87656      640.09713      3375         
       280  -55.00905       0.29720778    -54.711843      0.029520714    255.47772      236.69114      3375         
       290  -54.916153      0.19061513    -54.725538      0.029520714    163.85143     -591.24264      3375         
       300  -54.990231      0.25257766    -54.737653      0.029520714    217.11398     -498.87591      3375         
       310  -55.106963      0.35655889    -54.750404      0.029520714    306.49552      633.81798      3375         
       320  -55.122689      0.36435895    -54.75833       0.029520714    313.20039      722.48426      3375         
       330  -55.063072      0.3177522     -54.74532       0.029520714    273.13755     -174.09519      3375         
       340  -55.157797      0.40422181    -54.753575      0.029520714    347.46622     -525.26675      3375         
       350  -55.195937      0.4248875     -54.77105       0.029520714    365.23031     -396.24834      3375         
       360  -55.061299      0.27758211    -54.783717      0.029520714    238.60763     -34.702119      3375         
       370  -55.06406       0.27463622    -54.789424      0.029520714    236.07536      507.11847      3375         
       380  -55.183118      0.39114605    -54.791972      0.029520714    336.2264       249.34988      3375         
       390  -55.157897      0.36164375    -54.796253      0.029520714    310.86643     -333.64725      3375         
       400  -55.142841      0.33432072    -54.808521      0.029520714    287.37974     -176.14152      3375         
       410  -55.21336       0.38671474    -54.826645      0.029520714    332.41727      40.038429      3375         
       420  -55.156033      0.3319436     -54.824089      0.029520714    285.33639     -78.352963      3375         
       430  -55.089058      0.27251301    -54.816545      0.029520714    234.25027      256.97136      3375         
       440  -54.976928      0.14321822    -54.833709      0.029520714    123.10937      200.1242       3375         
       450  -55.11698       0.27543648    -54.841543      0.029520714    236.76326     -433.03704      3375         
       460  -55.16456       0.31718248    -54.847378      0.029520714    272.64783     -177.48845      3375         
       470  -55.059349      0.20939171    -54.849958      0.029520714    179.99164      575.518        3375         
       480  -55.040346      0.1975317     -54.842814      0.029520714    169.79686      369.46507      3375         
       490  -55.125877      0.29137373    -54.834504      0.029520714    250.46281     -355.35931      3375         
       500  -55.071808      0.23366061    -54.838147      0.029520714    200.85302     -682.9141       3375         
       510  -55.093035      0.25128378    -54.841751      0.029520714    216.00177     -407.02025      3375         
       520  -55.164641      0.33022287    -54.834418      0.029520714    283.85725      623.40386      3375         
       530  -55.098404      0.28436712    -54.814037      0.029520714    244.43997      1085.069       3375         
       540  -55.140109      0.34560203    -54.794507      0.029520714    297.07707     -271.85626      3375         
       550  -55.132643      0.35344851    -54.779195      0.029520714    303.82185     -980.04278      3375         
       560  -55.193917      0.42966848    -54.764248      0.029520714    369.34         53.792264      3375         
       570  -55.160442      0.42268955    -54.737753      0.029520714    363.34097      687.75398      3375         
       580  -55.158975      0.45793416    -54.701041      0.029520714    393.63698      233.36327      3375         
       590  -55.060794      0.37604802    -54.684746      0.029520714    323.24823     -533.33491      3375         
       600  -55.013659      0.34222638    -54.671433      0.029520714    294.17539     -992.26975      3375         
       610  -55.090908      0.43140799    -54.6595        0.029520714    370.83527      128.39951      3375         
       620  -55.077133      0.4455096     -54.631623      0.029520714    382.95692      1302.6675      3375         
       630  -54.929326      0.34325316    -54.586073      0.029520714    295.058        205.75868      3375         
       640  -54.873013      0.3033157     -54.569698      0.029520714    260.72805     -756.59349      3375         
       650  -54.99347       0.42947521    -54.563995      0.029520714    369.17387     -377.26371      3375         
       660  -55.045722      0.49618192    -54.54954       0.029520714    426.51449      56.589466      3375         
       670  -54.901307      0.3806343     -54.520673      0.029520714    327.19056      563.93963      3375         
       680  -54.851592      0.35820218    -54.49339       0.029520714    307.90807      717.7565       3375         
       690  -54.935858      0.44598645    -54.489871      0.029520714    383.36681     -614.61907      3375         
       700  -54.829319      0.35098274    -54.478336      0.029520714    301.7023      -689.38881      3375         
       710  -54.731454      0.26726059    -54.464194      0.029520714    229.73532      506.20298      3375         
       720  -54.7132        0.24919857    -54.464001      0.029520714    214.20934      83.975998      3375         
       730  -54.784044      0.34358824    -54.440455      0.029520714    295.34603     -365.31216      3375         
       740  -54.809123      0.3759381     -54.433185      0.029520714    323.15375     -113.47563      3375         
       750  -54.698159      0.28276391    -54.415395      0.029520714    243.06186     -273.17922      3375         
       760  -54.855147      0.44959233    -54.405555      0.029520714    386.46641      583.84679      3375         
       770  -54.83746       0.45090577    -54.386554      0.029520714    387.59543      943.94143      3375         
       780  -54.797827      0.42087399    -54.376953      0.029520714    361.78032     -639.75136      3375         
       790  -54.886707      0.52251872    -54.364188      0.029520714    449.15341     -1205.35        3375         
       800  -54.948545      0.58034877    -54.368196      0.029520714    498.86372      196.06352      3375         
       810  -54.777833      0.39680394    -54.381029      0.029520714    341.08988      735.94585      3375         
       820  -54.755832      0.42054967    -54.335282      0.029520714    361.50153      628.75146      3375         
       830  -54.834816      0.47820768    -54.356608      0.029520714    411.06396      165.46944      3375         
       840  -54.792656      0.42483258    -54.367824      0.029520714    365.18309     -1005.3662      3375         
       850  -55.041152      0.6459699     -54.395182      0.029520714    555.27118     -550.42504      3375         
       860  -54.921762      0.49056264    -54.4312        0.029520714    421.6842       886.13552      3375         
       870  -54.816407      0.41454046    -54.401867      0.029520714    356.33606      769.08301      3375         
       880  -54.990739      0.56700843    -54.42373       0.029520714    487.39646     -440.58005      3375         
       890  -55.06009       0.57676621    -54.483324      0.029520714    495.78418     -1104.0054      3375         
       900  -55.128583      0.58547446    -54.543108      0.029520714    503.26972     -396.46863      3375         
       910  -55.160261      0.55602375    -54.604237      0.029520714    477.95411      899.0575       3375         
       920  -55.040416      0.42756904    -54.612847      0.029520714    367.53534      1127.5407      3375         
       930  -54.999166      0.34835696    -54.650809      0.029520714    299.44519     -351.92642      3375         
       940  -55.054113      0.36661941    -54.687494      0.029520714    315.14347     -1428.2931      3375         
       950  -55.113916      0.39766482    -54.716252      0.029520714    341.82988     -369.77599      3375         
       960  -55.016337      0.29356108    -54.722776      0.029520714    252.34304      1032.1608      3375         
       970  -55.051688      0.3358259     -54.715862      0.029520714    288.67358      1149.3561      3375         
       980  -55.112948      0.38907756    -54.72387       0.029520714    334.44833     -335.27531      3375         
       990  -55.00217       0.26595467    -54.736216      0.029520714    228.61276     -1402.768       3375         
      1000  -55.01995       0.27355627    -54.746394      0.029520714    235.14704     -338.43627      3375         
      1010  -54.982462      0.24075762    -54.741704      0.029520714    206.95356      1033.7801      3375         
      1020  -55.023516      0.29455902    -54.728956      0.029520714    253.20086      973.78405      3375         
      1030  -55.029073      0.29872893    -54.730344      0.029520714    256.78528     -169.93061      3375         
      1040  -55.032756      0.30029615    -54.73246       0.029520714    258.13246     -1303.8094      3375         
      1050  -55.211331      0.47409684    -54.737234      0.029520714    407.53031     -705.53079      3375         
      1060  -55.156987      0.39755535    -54.759432      0.029520714    341.73578      1045.8387      3375         
      1070  -54.989749      0.27030752    -54.719441      0.029520714    232.35444      1098.1334      3375         
      1080  -55.093498      0.399834      -54.693664      0.029520714    343.69449     -159.08989      3375         
      1090  -55.100114      0.38125922    -54.718854      0.029520714    327.72774     -1025.5471      3375         
      1100  -55.11465       0.38777984    -54.72687       0.029520714    333.33282     -585.24758      3375         
      1110  -55.173792      0.42664923    -54.747143      0.029520714    366.74467      539.17783      3375         
      1120  -55.024369      0.29810542    -54.726264      0.029520714    256.24932      699.98999      3375         
      1130  -55.091744      0.38734023    -54.704404      0.029520714    332.95494     -68.787284      3375         
      1140  -55.16715       0.44545757    -54.721693      0.029520714    382.91219     -606.91991      3375         
      1150  -55.07256       0.33656829    -54.735992      0.029520714    289.31173     -262.45017      3375         
      1160  -55.033561      0.27803157    -54.755529      0.029520714    238.99398      417.21475      3375         
      1170  -55.046561      0.30946172    -54.7371        0.029520714    266.01112      582.57446      3375         
      1180  -55.033139      0.31062019    -54.722519      0.029520714    267.00693     -97.804318      3375         
      1190  -54.935383      0.19810154    -54.737282      0.029520714    170.28669     -689.03505      3375         
      1200  -55.086835      0.34336091    -54.743474      0.029520714    295.15062     -434.61509      3375         
      1210  -55.148905      0.40199325    -54.746912      0.029520714    345.55057      485.73647      3375         
      1220  -55.016677      0.28705569    -54.729621      0.029520714    246.75105      926.34232      3375         
      1230  -55.018857      0.2938589     -54.724998      0.029520714    252.59904      341.69331      3375         
      1240  -55.086199      0.35585111    -54.730348      0.029520714    305.88711     -831.32289      3375         
      1250  -55.141931      0.40544592    -54.736485      0.029520714    348.51846     -1067.483       3375         
      1260  -55.089604      0.35667001    -54.732934      0.029520714    306.59103      51.690122      3375         
      1270  -55.074058      0.36521931    -54.708839      0.029520714    313.93995      1008.0355      3375         
      1280  -55.169894      0.46681131    -54.703083      0.029520714    401.26772      654.65193      3375         
      1290  -55.175068      0.4627621     -54.712306      0.029520714    397.78705     -424.76852      3375         
      1300  -55.067577      0.34459496    -54.722982      0.029520714    296.21141     -831.25561      3375         
      1310  -55.089008      0.35761733    -54.731391      0.029520714    307.40534     -140.61333      3375         
      1320  -54.983161      0.27381106    -54.709349      0.029520714    235.36606      723.77142      3375         
      1330  -55.143246      0.44237701    -54.700869      0.029520714    380.26417      129.33654      3375         
      1340  -55.153256      0.43816049    -54.715095      0.029520714    376.63967     -683.72664      3375         
      1350  -54.989574      0.26650706    -54.723067      0.029520714    229.0876      -215.22529      3375         
      1360  -54.986514      0.25312447    -54.73339       0.029520714    217.58401      678.84637      3375         
      1370  -55.058337      0.32331691    -54.73502       0.029520714    277.92094      673.18708      3375         
      1380  -55.020457      0.3035734     -54.716883      0.029520714    260.94956     -85.382624      3375         
      1390  -54.984387      0.27025557    -54.714132      0.029520714    232.30979     -1103.3024      3375         
      1400  -55.125881      0.40331878    -54.722562      0.029520714    346.68998     -733.26636      3375         
      1410  -55.054474      0.32713205    -54.727342      0.029520714    281.20041      854.22853      3375         
      1420  -55.056271      0.33477988    -54.721491      0.029520714    287.77443      1000.3424      3375         
      1430  -55.063242      0.3532103     -54.710032      0.029520714    303.61709      145.09356      3375         
      1440  -55.119303      0.41605257    -54.70325       0.029520714    357.63586     -529.51477      3375         
      1450  -55.138442      0.42946401    -54.708978      0.029520714    369.16424     -534.26026      3375         
      1460  -55.102336      0.3872708     -54.715065      0.029520714    332.89525     -117.85479      3375         
      1470  -55.019434      0.30829287    -54.711141      0.029520714    265.00638      64.733676      3375         
      1480  -55.159797      0.45725029    -54.702547      0.029520714    393.04913      75.511809      3375         
      1490  -55.137289      0.43281599    -54.704473      0.029520714    372.04558      199.15423      3375         
      1500  -55.04148       0.32716208    -54.714318      0.029520714    281.22623      196.6265       3375         
      1510  -55.162169      0.43602939    -54.726139      0.029520714    374.8078      -58.176023      3375         
      1520  -55.000132      0.28103353    -54.719098      0.029520714    241.57444     -263.24855      3375         
      1530  -54.997209      0.27933043    -54.717879      0.029520714    240.11047     -56.800277      3375         
      1540  -55.045249      0.31688401    -54.728365      0.029520714    272.39127      430.79625      3375         
      1550  -55.118392      0.38377976    -54.734612      0.029520714    329.89438     -158.58404      3375         
      1560  -55.08386       0.34558269    -54.738277      0.029520714    297.06045     -474.84958      3375         
      1570  -55.070238      0.32811861    -54.742119      0.029520714    282.04844      77.302196      3375         
      1580  -54.92263       0.17998686    -54.742643      0.029520714    154.71544      514.30772      3375         
      1590  -55.023249      0.28063995    -54.742609      0.029520714    241.23613      290.60366      3375         
      1600  -55.180386      0.43245816    -54.747928      0.029520714    371.73799     -151.49283      3375         
      1610  -55.145137      0.39429593    -54.750841      0.029520714    338.934       -689.00806      3375         
      1620  -55.106826      0.3535635     -54.753263      0.029520714    303.9207      -138.16929      3375         
      1630  -54.998686      0.24248521    -54.756201      0.029520714    208.43858      735.7876       3375         
      1640  -55.139473      0.38494841    -54.754525      0.029520714    330.89895     -114.59979      3375         
      1650  -55.186978      0.43312771    -54.75385       0.029520714    372.31353     -511.86598      3375         
      1660  -55.185434      0.42161674    -54.763817      0.029520714    362.41878      278.52714      3375         
      1670  -55.028915      0.25367905    -54.775236      0.029520714    218.06072      538.49942      3375         
      1680  -55.155658      0.3777036     -54.777955      0.029520714    324.67136     -16.894942      3375         
      1690  -55.080555      0.2979837     -54.782572      0.029520714    256.14469     -508.04032      3375         
      1700  -55.086861      0.30294309    -54.783918      0.029520714    260.40775     -611.23575      3375         
      1710  -55.17082       0.38091371    -54.789906      0.029520714    327.43075      65.840611      3375         
      1720  -55.107989      0.30403995    -54.803949      0.029520714    261.3506       798.57264      3375         
      1730  -55.023599      0.21319152    -54.810408      0.029520714    183.25793      352.40425      3375         
      1740  -55.05429       0.25095131    -54.803339      0.029520714    215.71598     -335.35478      3375         
      1750  -55.137729      0.32692357    -54.810806      0.029520714    281.0212      -260.85004      3375         
      1760  -55.097694      0.27513944    -54.822554      0.029520714    236.50792     -230.44469      3375         
      1770  -55.118294      0.29569057    -54.822604      0.029520714    254.17353     -58.852254      3375         
      1780  -55.022958      0.21209029    -54.810867      0.029520714    182.31132      464.71947      3375         
      1790  -55.129339      0.32512814    -54.80421       0.029520714    279.47786      260.0144       3375         
      1800  -55.175623      0.367253      -54.80837       0.029520714    315.6881      -106.99106      3375         
      1810  -55.155853      0.34050885    -54.815344      0.029520714    292.69901     -229.01033      3375         
      1820  -55.064782      0.24194392    -54.822838      0.029520714    207.97329     -379.48475      3375         
      1830  -55.147203      0.35121619    -54.795987      0.029520714    301.90296      43.008595      3375         
      1840  -55.22271       0.44399579    -54.778714      0.029520714    381.65565      494.6999       3375         
      1850  -55.13883       0.35458453    -54.784246      0.029520714    304.79836     -116.49564      3375         
      1860  -55.090458      0.30364179    -54.786816      0.029520714    261.00835     -415.0261       3375         
      1870  -55.120399      0.33642789    -54.783972      0.029520714    289.19104      233.15848      3375         
      1880  -55.149177      0.38498927    -54.764187      0.029520714    330.93406      502.91194      3375         
      1890  -55.067093      0.32390203    -54.743191      0.029520714    278.4239       172.32194      3375         
      1900  -55.101731      0.35991831    -54.741813      0.029520714    309.38325     -617.95056      3375         
      1910  -55.126718      0.39010523    -54.736613      0.029520714    335.33171     -871.99517      3375         
      1920  -55.093394      0.36822625    -54.725168      0.029520714    316.5247       126.01004      3375         
      1930  -54.874929      0.16067805    -54.714251      0.029520714    138.11772      1005.2236      3375         
      1940  -54.935729      0.22882815    -54.706901      0.029520714    196.69906      467.43748      3375         
      1950  -55.012465      0.33228127    -54.680183      0.029520714    285.62664     -287.27262      3375         
      1960  -54.995612      0.33016007    -54.665451      0.029520714    283.80327     -586.12525      3375         
      1970  -54.924254      0.27738938    -54.646864      0.029520714    238.44196     -251.68791      3375         
      1980  -54.91926       0.28232578    -54.636934      0.029520714    242.68526      491.98929      3375         
      1990  -55.066481      0.46017835    -54.606302      0.029520714    395.56607      335.31299      3375         
      2000  -55.08475       0.52049305    -54.564257      0.029520714    447.41216     -403.68954      3375         
      2010  -54.952637      0.41593579    -54.536701      0.029520714    357.53548     -485.30977      3375         
      2020  -54.855977      0.32491822    -54.531059      0.029520714    279.29741      360.53271      3375         
      2030  -55.06109       0.53702273    -54.524067      0.029520714    461.62096      490.70566      3375         
      2040  -54.956404      0.47107736    -54.485327      0.029520714    404.93479      149.94255      3375         
      2050  -55.055283      0.58462367    -54.47066       0.029520714    502.53839     -177.14724      3375         
      2060  -55.070977      0.59244763    -54.478529      0.029520714    509.26382     -665.24087      3375         
      2070  -55.051377      0.55898018    -54.492397      0.029520714    480.49543     -289.5061       3375         
      2080  -54.915531      0.4163596     -54.499171      0.029520714    357.89978      443.0993       3375         
      2090  -54.958749      0.46749941    -54.491249      0.029520714    401.85921      401.18469      3375         
      2100  -55.033364      0.52976277    -54.503602      0.029520714    455.38035      184.82994      3375         
      2110  -55.016614      0.48130774    -54.535306      0.029520714    413.72875     -234.40403      3375         
      2120  -55.067504      0.4911831     -54.576321      0.029520714    422.21754     -806.51908      3375         
      2130  -54.827458      0.23435598    -54.593102      0.029520714    201.45075     -44.301437      3375         
      2140  -54.877525      0.31141243    -54.566113      0.029520714    267.68793      902.49233      3375         
      2150  -55.046065      0.45515691    -54.590908      0.029520714    391.24967      215.1965       3375         
      2160  -55.052722      0.43061425    -54.622107      0.029520714    370.15298     -512.96877      3375         
      2170  -54.910923      0.27016929    -54.640754      0.029520714    232.23562     -82.221628      3375         
      2180  -54.977513      0.32017091    -54.657343      0.029520714    275.21666      116.53849      3375         
      2190  -55.030684      0.37185525    -54.658829      0.029520714    319.64415      433.82015      3375         
      2200  -55.016331      0.3497221     -54.666609      0.029520714    300.61866      122.18432      3375         
      2210  -55.044648      0.35974925    -54.684898      0.029520714    309.23793     -864.41571      3375         
      2220  -55.016282      0.32183207    -54.69445       0.029520714    276.64458     -406.49604      3375         
      2230  -55.111703      0.41220074    -54.699502      0.029520714    354.32485      864.87369      3375         
      2240  -55.131781      0.42113043    -54.710651      0.029520714    362.00075      742.43022      3375         
      2250  -55.198499      0.47384235    -54.724657      0.029520714    407.31155     -591.21612      3375         
      2260  -55.066589      0.32770815    -54.738881      0.029520714    281.69562     -851.41456      3375         
      2270  -55.154462      0.41374608    -54.740716      0.029520714    355.65322     -215.39335      3375         
      2280  -55.044487      0.30556045    -54.738926      0.029520714    262.65762      732.73862      3375         
      2290  -55.074674      0.32826746    -54.746407      0.029520714    282.1764       874.15826      3375         
      2300  -55.138367      0.38142982    -54.756937      0.029520714    327.87439     -298.23286      3375         
      2310  -55.171177      0.4040112     -54.767166      0.029520714    347.28518     -874.24654      3375         
      2320  -55.027809      0.25012843    -54.777681      0.029520714    215.00864      112.01893      3375         
      2330  -55.004765      0.22912724    -54.775638      0.029520714    196.95616      251.04366      3375         
      2340  -55.122474      0.35684776    -54.765626      0.029520714    306.74382     -312.11051      3375         
      2350  -55.092909      0.329581      -54.763328      0.029520714    283.30551     -50.157742      3375         
      2360  -55.076228      0.30608068    -54.770148      0.029520714    263.1048       204.75587      3375         
      2370  -55.019823      0.24009495    -54.779728      0.029520714    206.38393      487.14797      3375         
      2380  -55.076778      0.2947382     -54.78204       0.029520714    253.35488      330.54973      3375         
      2390  -55.036183      0.27874296    -54.757441      0.029520714    239.60549     -455.16891      3375         
      2400  -55.182964      0.43547363    -54.74749       0.029520714    374.33007     -577.63887      3375         
      2410  -55.131084      0.37787382    -54.75321       0.029520714    324.81768      210.47518      3375         
      2420  -55.117988      0.3607644     -54.757223      0.029520714    310.11054      223.15002      3375         
      2430  -55.109667      0.34929441    -54.760372      0.029520714    300.25102      75.998208      3375         
      2440  -55.070407      0.31677844    -54.753629      0.029520714    272.30052     -51.536433      3375         
      2450  -55.05809       0.30962866    -54.748462      0.029520714    266.15462     -200.23171      3375         
      2460  -55.219805      0.46887371    -54.750932      0.029520714    403.04054     -96.096204      3375         
      2470  -55.20127       0.4477552     -54.753515      0.029520714    384.88722     -155.00225      3375         
      2480  -54.963983      0.22172282    -54.74226       0.029520714    190.59138      88.181957      3375         
      2490  -55.036988      0.29704641    -54.739942      0.029520714    255.339        592.18055      3375         
      2500  -55.124543      0.37708179    -54.747461      0.029520714    324.13685      319.60111      3375         
      2510  -55.18019       0.42958357    -54.750607      0.029520714    369.26702     -593.8584       3375         
      2520  -54.971696      0.22715211    -54.744544      0.029520714    195.25836     -542.8382       3375         
      2530  -55.018676      0.27932397    -54.739352      0.029520714    240.10492      107.27497      3375         
      2540  -54.987928      0.25486637    -54.733062      0.029520714    219.08134      591.82193      3375         
      2550  -55.109563      0.37531339    -54.73425       0.029520714    322.61675      161.34452      3375         
      2560  -55.12327       0.38787296    -54.735397      0.029520714    333.41286     -491.54837      3375         
      2570  -55.086746      0.35033513    -54.73641       0.029520714    301.14561     -369.95393      3375         
      2580  -54.977847      0.26492167    -54.712925      0.029520714    227.7248       604.56428      3375         
      2590  -55.043425      0.34576251    -54.697663      0.029520714    297.21502      502.66261      3375         
      2600  -55.114903      0.43031654    -54.684587      0.029520714    369.89707     -608.433        3375         
      2610  -55.086511      0.41240173    -54.674109      0.029520714    354.49763     -528.38381      3375         
      2620  -55.193867      0.53684678    -54.65702       0.029520714    461.46971      371.34106      3375         
      2630  -55.024199      0.38727844    -54.63692       0.029520714    332.90182      735.2657       3375         
      2640  -55.006318      0.39559929    -54.610719      0.029520714    340.05437     -8.7093942      3375         
      2650  -54.975646      0.38650444    -54.589142      0.029520714    332.2365      -876.68908      3375         
      2660  -55.201328      0.63737248    -54.563956      0.029520714    547.8809      -585.89676      3375         
      2670  -55.021631      0.49052407    -54.531107      0.029520714    421.65104      667.03869      3375         
      2680  -54.886636      0.3730325     -54.513604      0.029520714    320.65611      689.81429      3375         
      2690  -54.933638      0.4376846     -54.495953      0.029520714    376.2306      -362.92203      3375         
      2700  -54.935548      0.47288201    -54.462666      0.029520714    406.48605     -574.4908       3375         
      2710  -54.918632      0.47885722    -54.439775      0.029520714    411.6223       39.070939      3375         
      2720  -54.812431      0.37799012    -54.434441      0.029520714    324.91765      735.57933      3375         
      2730  -54.8975        0.4867782     -54.410722      0.029520714    418.43111      440.64042      3375         
      2740  -54.870608      0.48468011    -54.385928      0.029520714    416.62761     -433.02913      3375         
      2750  -54.942688      0.56136222    -54.381325      0.029520714    482.54301     -542.86968      3375         
      2760  -54.788837      0.41222036    -54.376616      0.029520714    354.34172     -201.89688      3375         
      2770  -54.940337      0.56730163    -54.373036      0.029520714    487.64849      160.24799      3375         
      2780  -54.961584      0.58926546    -54.372318      0.029520714    506.52844      319.23275      3375         
      2790  -55.019131      0.65118657    -54.367944      0.029520714    559.7554      -95.907211      3375         
      2800  -54.963742      0.5725534     -54.391189      0.029520714    492.16287      172.59429      3375         
      2810  -54.979074      0.5516665     -54.427408      0.029520714    474.20864      499.96727      3375         
      2820  -54.95232       0.49342122    -54.458899      0.029520714    424.14141     -576.10824      3375         
      2830  -54.939612      0.46969389    -54.469918      0.029520714    403.74556     -817.25732      3375         
      2840  -55.086276      0.55932777    -54.526949      0.029520714    480.79422      413.0736       3375         
      2850  -55.045808      0.46334419    -54.582464      0.029520714    398.28741      651.08672      3375         
      2860  -55.03598       0.41598521    -54.619995      0.029520714    357.57796      235.33138      3375         
      2870  -54.932076      0.28061329    -54.651463      0.029520714    241.21321     -198.9466       3375         
      2880  -55.02801       0.35010574    -54.677904      0.029520714    300.94843     -834.72625      3375         
      2890  -55.058156      0.36250844    -54.695648      0.029520714    311.6097      -231.40108      3375         
      2900  -55.099809      0.38354433    -54.716265      0.029520714    329.69201      585.26577      3375         
      2910  -54.989654      0.25449776    -54.735156      0.029520714    218.76448      180.19114      3375         
      2920  -55.005561      0.27738749    -54.728173      0.029520714    238.44033      208.30764      3375         
      2930  -55.091437      0.3522834     -54.739154      0.029520714    302.82033      542.70987      3375         
      2940  -55.131013      0.3742469     -54.756766      0.029520714    321.7         -386.16067      3375         
      2950  -55.037913      0.27604022    -54.761873      0.029520714    237.28223     -853.77142      3375         
      2960  -55.051548      0.29118418    -54.760364      0.029520714    250.29988     -97.094696      3375         
      2970  -55.210475      0.44605297    -54.764422      0.029520714    383.424        120.17609      3375         
      2980  -55.071773      0.3027113     -54.769062      0.029520714    260.20851      436.2202       3375         
      2990  -55.119026      0.33818105    -54.780845      0.029520714    290.69805      575.16813      3375         
      3000  -55.189631      0.39691194    -54.792719      0.029520714    341.18271     -378.53016      3375         
      3010  -55.165667      0.38625015    -54.779417      0.029520714    332.01791     -379.80872      3375         
      3020  -55.027962      0.24678272    -54.781179      0.029520714    212.13269      318.60815      3375         
      3030  -55.126233      0.33139042    -54.794842      0.029520714    284.86087     -415.06046      3375         
      3040  -55.156013      0.35667047    -54.799342      0.029520714    306.59143     -284.68041      3375         
      3050  -55.136971      0.34055104    -54.79642       0.029520714    292.73528      747.07056      3375         
      3060  -55.096172      0.29449199    -54.80168       0.029520714    253.14324      303.22226      3375         
      3070  -55.058443      0.25337356    -54.80507       0.029520714    217.79813     -123.65494      3375         
      3080  -55.094306      0.28670181    -54.807604      0.029520714    246.44686     -390.76503      3375         
      3090  -55.089807      0.27986502    -54.809942      0.029520714    240.57001     -778.52641      3375         
      3100  -55.108745      0.30596146    -54.802783      0.029520714    263.00232      308.24101      3375         
      3110  -55.030338      0.2346293     -54.795708      0.029520714    201.68569      941.2685       3375         
      3120  -55.070574      0.27164737    -54.798926      0.029520714    233.50617     -222.1583       3375         
      3130  -55.097844      0.29907613    -54.798768      0.029520714    257.08374     -306.27199      3375         
      3140  -55.129131      0.34391081    -54.78522       0.029520714    295.62331      112.13114      3375         
      3150  -55.083112      0.31106043    -54.772052      0.029520714    267.38536      162.84749      3375         
      3160  -55.183649      0.43366722    -54.749981      0.029520714    372.77729      279.3453       3375         
      3170  -55.185669      0.448727      -54.736942      0.029520714    385.72257     -456.11211      3375         
      3180  -54.966754      0.23678965    -54.729964      0.029520714    203.54272     -828.1425       3375         
      3190  -55.091152      0.37086078    -54.720291      0.029520714    318.78932      268.7425       3375         
      3200  -55.227679      0.52099822    -54.706681      0.029520714    447.8464       1000.434       3375         
      3210  -55.122029      0.45161984    -54.670409      0.029520714    388.20923      156.15367      3375         
      3220  -55.005558      0.36334726    -54.64221       0.029520714    312.33074     -539.97066      3375         
      3230  -55.145012      0.51194656    -54.633066      0.029520714    440.06566     -840.8778       3375         
      3240  -54.992302      0.36688068    -54.625421      0.029520714    315.36805     -44.108783      3375         
      3250  -54.944301      0.33102147    -54.61328       0.029520714    284.54372      919.70281      3375         
      3260  -54.941816      0.36748892    -54.574327      0.029520714    315.89089      384.29279      3375         
      3270  -54.947761      0.39836457    -54.549397      0.029520714    342.43139     -327.9174       3375         
      3280  -54.876281      0.333565      -54.542716      0.029520714    286.73013     -146.21126      3375         
      3290  -55.014943      0.48758581    -54.527357      0.029520714    419.12533     -90.256871      3375         
      3300  -54.965538      0.46127185    -54.504266      0.029520714    396.50604      39.081401      3375         
      3310  -54.777481      0.3034194     -54.474061      0.029520714    260.81719      371.16932      3375         
      3320  -54.970442      0.52146697    -54.448975      0.029520714    448.24934     -412.80899      3375         
      3330  -54.955548      0.52156974    -54.433979      0.029520714    448.33768     -532.7495       3375         
      3340  -54.882947      0.45780479    -54.425142      0.029520714    393.52578      428.07971      3375         
      3350  -54.885396      0.46831552    -54.41708       0.029520714    402.56073      442.89898      3375         
      3360  -55.123928      0.75167462    -54.372253      0.029520714    646.13421      289.60594      3375         
      3370  -55.020989      0.64393618    -54.377053      0.029520714    553.52301      270.78881      3375         
      3380  -54.930823      0.53310084    -54.397722      0.029520714    458.24973     -1155.7693      3375         
      3390  -54.933052      0.51338012    -54.419672      0.029520714    441.29794     -792.79639      3375         
      3400  -54.983307      0.56420945    -54.419098      0.029520714    484.99048      609.22848      3375         
      3410  -54.878775      0.42779046    -54.450984      0.029520714    367.72567      713.55678      3375         
      3420  -54.92239       0.43266703    -54.489723      0.029520714    371.91753      306.90807      3375         
      3430  -55.028319      0.49588025    -54.532439      0.029520714    426.25517     -423.60104      3375         
      3440  -54.942055      0.36021678    -54.581838      0.029520714    309.63981     -656.00424      3375         
      3450  -54.980215      0.36711916    -54.613096      0.029520714    315.57305      419.27585      3375         
      3460  -55.009741      0.37848971    -54.631251      0.029520714    325.3471       581.72352      3375         
      3470  -55.027759      0.35411655    -54.673642      0.029520714    304.3961      -583.6226       3375         
      3480  -54.943357      0.24033756    -54.703019      0.029520714    206.59247     -522.15904      3375         
      3490  -55.056579      0.33136413    -54.725215      0.029520714    284.83827      296.03463      3375         
      3500  -55.062387      0.32502362    -54.737363      0.029520714    279.38802      749.98119      3375         
      3510  -55.058754      0.32419138    -54.734563      0.029520714    278.67263      580.14203      3375         
      3520  -55.073539      0.33014428    -54.743394      0.029520714    283.7897      -632.53679      3375         
      3530  -55.13687       0.37841698    -54.758453      0.029520714    325.28457     -1129.64        3375         
      3540  -55.172776      0.40388653    -54.768889      0.029520714    347.17802      238.14169      3375         
      3550  -55.136533      0.36210641    -54.774426      0.029520714    311.26413      763.68897      3375         
      3560  -55.127782      0.35017139    -54.777611      0.029520714    301.00486      68.308616      3375         
      3570  -55.055156      0.27754525    -54.777611      0.029520714    238.57595     -271.95403      3375         
      3580  -55.169788      0.38278078    -54.787008      0.029520714    329.03567     -285.95485      3375         
      3590  -55.219428      0.42002733    -54.7994        0.029520714    361.05254      46.569805      3375         
      3600  -55.145092      0.34002039    -54.805072      0.029520714    292.27914      481.81665      3375         
      3610  -55.080102      0.29223676    -54.787865      0.029520714    251.20467     -59.008335      3375         
      3620  -55.117422      0.32198743    -54.795434      0.029520714    276.77813     -687.3936       3375         
      3630  -55.028401      0.22037204    -54.808029      0.029520714    189.43025      25.627779      3375         
      3640  -55.083344      0.26697679    -54.816367      0.029520714    229.49137      444.58096      3375         
      3650  -55.059476      0.25356177    -54.805915      0.029520714    217.95991      345.08907      3375         
      3660  -55.060908      0.26255378    -54.798354      0.029520714    225.68938      329.3668       3375         
      3670  -55.05189       0.25278634    -54.799103      0.029520714    217.29336     -607.05836      3375         
      3680  -55.042519      0.24189341    -54.800626      0.029520714    207.92988     -827.31827      3375         
      3690  -55.072907      0.26576825    -54.807139      0.029520714    228.45252      414.58579      3375         
      3700  -55.083095      0.30477657    -54.778318      0.029520714    261.9838       454.59007      3375         
      3710  -55.153156      0.39999675    -54.75316       0.029520714    343.8344       150.84135      3375         
      3720  -55.011437      0.25633864    -54.755098      0.029520714    220.34689      68.951669      3375         
      3730  -55.143435      0.38530331    -54.758132      0.029520714    331.20401     -571.09169      3375         
      3740  -55.154289      0.40450907    -54.74978       0.029520714    347.71315     -0.9297796      3375         
      3750  -55.110988      0.41733328    -54.693654      0.029520714    358.73676      770.91817      3375         
      3760  -55.120463      0.44635531    -54.674107      0.029520714    383.68389     -158.33643      3375         
      3770  -55.104201      0.42459016    -54.679611      0.029520714    364.97472     -726.32335      3375         
      3780  -55.116842      0.4403407     -54.676502      0.029520714    378.51377     -99.403282      3375         
      3790  -55.128542      0.46104751    -54.667495      0.029520714    396.31319      251.3503       3375         
      3800  -55.05248       0.41810572    -54.634375      0.029520714    359.40074      785.79915      3375         
      3810  -54.921619      0.28867121    -54.632948      0.029520714    248.13974     -112.61472      3375         
      3820  -54.996136      0.35917549    -54.636961      0.029520714    308.74472     -1255.9424      3375         
      3830  -55.078668      0.44797697    -54.630691      0.029520714    385.07785     -167.67811      3375         
      3840  -54.957971      0.34741637    -54.610555      0.029520714    298.63667      994.49299      3375         
      3850  -54.884755      0.28918126    -54.595574      0.029520714    248.57818      680.97885      3375         
      3860  -54.994637      0.40296385    -54.591673      0.029520714    346.38489     -83.585211      3375         
      3870  -54.927359      0.3420989     -54.58526       0.029520714    294.06581     -829.49637      3375         
      3880  -54.984134      0.40559367    -54.57854       0.029520714    348.64546     -453.74473      3375         
      3890  -54.975879      0.42542256    -54.550457      0.029520714    365.69024      857.577        3375         
      3900  -54.866196      0.33210481    -54.534091      0.029520714    285.47496      672.06106      3375         
      3910  -54.913211      0.39309064    -54.52012       0.029520714    337.89795     -798.8584       3375         
      3920  -54.983153      0.4795884     -54.503564      0.029520714    412.25082     -1024.0794      3375         
      3930  -55.075868      0.58858866    -54.487279      0.029520714    505.94667      239.54255      3375         
      3940  -55.025405      0.5605516     -54.464853      0.029520714    481.84621      1159.7911      3375         
      3950  -55.065035      0.64994248    -54.415092      0.029520714    558.68599      453.79511      3375         
      3960  -54.824178      0.41995031    -54.404228      0.029520714    360.98634     -991.7127       3375         
      3970  -54.9398        0.52363742    -54.416163      0.029520714    450.11504     -947.4352       3375         
      3980  -55.002153      0.57760277    -54.42455       0.029520714    496.50327      877.78355      3375         
      3990  -55.008915      0.60542515    -54.403489      0.029520714    520.4192       862.85599      3375         
      4000  -54.894226      0.48897042    -54.405256      0.029520714    420.31553     -355.32095      3375         
      4010  -54.941569      0.50631924    -54.43525       0.029520714    435.22846     -655.3946       3375         
      4020  -54.924611      0.46088097    -54.46373       0.029520714    396.17004     -286.97943      3375         
      4030  -54.899761      0.4018607     -54.4979        0.029520714    345.43663      418.03687      3375         
      4040  -54.916266      0.39341296    -54.522853      0.029520714    338.17501      617.58119      3375         
      4050  -54.979813      0.44887007    -54.530943      0.029520714    385.84555     -473.44883      3375         
      4060  -54.989245      0.41180157    -54.577443      0.029520714    353.98173     -604.95752      3375         
      4070  -54.897819      0.27761982    -54.620199      0.029520714    238.64005      561.88077      3375         
      4080  -55.0559        0.40732255    -54.648577      0.029520714    350.1316       454.33951      3375         
      4090  -55.102027      0.44611552    -54.655911      0.029520714    383.47776      101.35651      3375         
      4100  -55.11824       0.42942275    -54.688817      0.029520714    369.12878     -30.888388      3375         
      4110  -55.025032      0.29644696    -54.728585      0.029520714    254.82372     -703.08836      3375         
      4120  -55.131679      0.37800683    -54.753672      0.029520714    324.93201     -341.79175      3375         
      4130  -55.110215      0.33132869    -54.778886      0.029520714    284.80781      386.66528      3375         
      4140  -55.174875      0.40077852    -54.774097      0.029520714    344.5064       271.68708      3375         
      4150  -55.238074      0.4489235     -54.78915       0.029520714    385.89148      278.97892      3375         
      4160  -55.099362      0.28595928    -54.813403      0.029520714    245.80859     -181.76646      3375         
      4170  -55.095649      0.25924764    -54.836402      0.029520714    222.84744     -739.43638      3375         
      4180  -55.155039      0.32316017    -54.831879      0.029520714    277.78621      84.246074      3375         
      4190  -55.131169      0.31072807    -54.820441      0.029520714    267.09966      671.60491      3375         
      4200  -55.064147      0.23365613    -54.83049       0.029520714    200.84917      277.27318      3375         
      4210  -55.207846      0.36532429    -54.842522      0.029520714    314.03019     -258.10653      3375         
      4220  -55.095349      0.2433974     -54.851952      0.029520714    209.22269     -358.71808      3375         
      4230  -55.02654       0.17929807    -54.847242      0.029520714    154.12336     -7.6986336      3375         
      4240  -55.086981      0.25058867    -54.836392      0.029520714    215.40425      360.55212      3375         
      4250  -55.175214      0.33570801    -54.839506      0.029520714    288.57224     -281.101        3375         
      4260  -55.099336      0.25885951    -54.840476      0.029520714    222.51382     -690.0989       3375         
      4270  -55.183107      0.34290995    -54.840197      0.029520714    294.76298      386.65422      3375         
      4280  -55.11867       0.29193329    -54.826737      0.029520714    250.9438       992.71553      3375         
      4290  -55.037064      0.22919621    -54.807867      0.029520714    197.01545      263.53251      3375         
      4300  -55.188853      0.38534919    -54.803504      0.029520714    331.24346     -658.8151       3375         
      4310  -55.187365      0.38398889    -54.803377      0.029520714    330.07414     -1017.4426      3375         
      4320  -55.129199      0.33924334    -54.789956      0.029520714    291.61119      22.877834      3375         
      4330  -55.098927      0.33370638    -54.765221      0.029520714    286.85166      1360.2877      3375         
      4340  -55.23431       0.47952034    -54.75479       0.029520714    412.19231      220.89767      3375         
      4350  -55.045521      0.29782495    -54.747696      0.029520714    256.00823     -1064.6246      3375         
      4360  -55.139844      0.39615718    -54.743687      0.029520714    340.53392     -343.2898       3375         
      4370  -55.130108      0.39143801    -54.73867       0.029520714    336.47736      358.05474      3375         
      4380  -55.035124      0.32316839    -54.711956      0.029520714    277.79327      399.57374      3375         
      4390  -55.054965      0.37078745    -54.684178      0.029520714    318.72629      49.748933      3375         
      4400  -54.998369      0.31639906    -54.68197       0.029520714    271.97441     -949.61945      3375         
      4410  -55.00748       0.32979273    -54.677688      0.029520714    283.48751      37.500752      3375         
      4420  -54.980429      0.31438015    -54.666049      0.029520714    270.23896      1580.1144      3375         
      4430  -55.081674      0.45458766    -54.627087      0.029520714    390.76036      222.85997      3375         
      4440  -54.930826      0.33036534    -54.600461      0.029520714    283.97973     -966.95605      3375         
      4450  -54.967928      0.37926966    -54.588658      0.029520714    326.01753     -942.72406      3375         
      4460  -54.968556      0.39724983    -54.571306      0.029520714    341.47315     -319.82705      3375         
      4470  -55.033063      0.47879465    -54.554269      0.029520714    411.56851      1094.7112      3375         
      4480  -54.981809      0.4740535     -54.507755      0.029520714    407.49305      1060.9907      3375         
      4490  -55.064086      0.59567572    -54.468411      0.029520714    512.03866     -713.02911      3375         
      4500  -55.007939      0.55262894    -54.45531       0.029520714    475.03595     -652.87664      3375         
      4510  -54.990333      0.52852565    -54.461807      0.029520714    454.31693      211.68768      3375         
      4520  -54.985257      0.54324135    -54.442015      0.029520714    466.96644     -157.05192      3375         
      4530  -54.9648        0.57450465    -54.390296      0.029520714    493.84015      80.493321      3375         
      4540  -55.113728      0.70332697    -54.410401      0.029520714    604.57491      264.02928      3375         
      4550  -54.842651      0.41397057    -54.42868       0.029520714    355.84619     -104.78059      3375         
      4560  -54.983902      0.53518605    -54.448716      0.029520714    460.04216      17.419824      3375         
      4570  -54.93945       0.46015746    -54.479293      0.029520714    395.54811      198.83387      3375         
      4580  -54.896679      0.42544465    -54.471234      0.029520714    365.70923     -264.44059      3375         
      4590  -54.921757      0.4163371     -54.50542       0.029520714    357.88044     -260.2826       3375         
      4600  -55.027006      0.47377381    -54.553232      0.029520714    407.25264     -185.51114      3375         
      4610  -54.897442      0.29484358    -54.602598      0.029520714    253.44547      3.2714226      3375         
      4620  -54.795581      0.18211018    -54.613471      0.029520714    156.54063      617.63562      3375         
      4630  -55.078724      0.43669586    -54.642029      0.029520714    375.38068      769.82344      3375         
      4640  -55.09824       0.41277521    -54.685465      0.029520714    354.81866     -346.29365      3375         
      4650  -55.138343      0.39929358    -54.739049      0.029520714    343.22995     -733.10515      3375         
      4660  -55.114514      0.33421309    -54.780301      0.029520714    287.28722     -279.84546      3375         
      4670  -55.074675      0.29029237    -54.784382      0.029520714    249.53328      28.16372       3375         
      4680  -55.125002      0.33211663    -54.792885      0.029520714    285.48512      684.03924      3375         
      4690  -55.233418      0.41484635    -54.818572      0.029520714    356.59901      17.774037      3375         
      4700  -55.181417      0.33894215    -54.842475      0.029520714    291.35229     -744.26989      3375         
      4710  -55.149104      0.30011798    -54.848986      0.029520714    257.9793       310.27511      3375         
      4720  -55.186984      0.35480415    -54.83218       0.029520714    304.98715      668.84441      3375         
      4730  -55.146092      0.31379144    -54.832301      0.029520714    269.73291     -260.69333      3375         
      4740  -55.091591      0.2450338     -54.846558      0.029520714    210.62933     -668.09209      3375         
      4750  -55.142051      0.28437031    -54.857681      0.029520714    244.44272     -398.82605      3375         
      4760  -55.207989      0.34503556    -54.862954      0.029520714    296.59014      587.18018      3375         
      4770  -55.047217      0.20081784    -54.8464        0.029520714    172.6216       1289.1249      3375         
      4780  -55.057688      0.21241415    -54.845274      0.029520714    182.58971     -199.87116      3375         
      4790  -55.072583      0.22362397    -54.848959      0.029520714    192.22559     -1382.3844      3375         
      4800  -55.139089      0.29260757    -54.846481      0.029520714    251.52341     -529.34119      3375         
      4810  -55.075217      0.23241295    -54.842804      0.029520714    199.78054      738.64948      3375         
      4820  -55.080483      0.25005475    -54.830428      0.029520714    214.94531      1014.4458      3375         
      4830  -55.113894      0.3059107     -54.807983      0.029520714    262.95868     -2.9596131      3375         
      4840  -55.077759      0.2729333     -54.804826      0.029520714    234.61155     -965.28707      3375         
      4850  -55.173637      0.37153542    -54.802102      0.029520714    319.36923     -361.48841      3375         
      4860  -55.103748      0.31350467    -54.790244      0.029520714    269.48641      724.75873      3375         
      4870  -55.111277      0.35714155    -54.754135      0.029520714    306.99636      550.42428      3375         
      4880  -55.126606      0.39781794    -54.728789      0.029520714    341.9615      -443.09751      3375         
      4890  -55.12933       0.40537593    -54.723954      0.029520714    348.4583      -737.17902      3375         
      4900  -55.065         0.34765734    -54.717342      0.029520714    298.8438      -0.51965146     3375         
      4910  -55.166215      0.45227803    -54.713937      0.029520714    388.77501      640.0512       3375         
      4920  -55.07322       0.39236016    -54.68086       0.029520714    337.27003      492.11782      3375         
      4930  -55.062732      0.40707792    -54.655654      0.029520714    349.92132     -469.37728      3375         
      4940  -55.011837      0.350462      -54.661375      0.029520714    301.25467     -765.25781      3375         
      4950  -55.087172      0.41983427    -54.667338      0.029520714    360.88658      198.93098      3375         
      4960  -55.023355      0.3634338     -54.659922      0.029520714    312.40514      382.72663      3375         
      4970  -54.873601      0.25296907    -54.620632      0.029520714    217.45043      246.97796      3375         
      4980  -54.89064       0.27526753    -54.615373      0.029520714    236.61803      91.539313      3375         
      4990  -54.943247      0.32358004    -54.619667      0.029520714    278.14712     -300.0077       3375         
      5000  -55.118109      0.50349655    -54.614612      0.029520714    432.8021      -200.78163      3375         
      5010  -54.896859      0.28624383    -54.610615      0.029520714    246.05318      457.82862      3375         
      5020  -54.926689      0.35307228    -54.573617      0.029520714    303.49845      180.25278      3375         
      5030  -55.057351      0.49084858    -54.566502      0.029520714    421.92999     -151.72494      3375         
      5040  -55.026936      0.46784427    -54.559091      0.029520714    402.15565     -591.02816      3375         
      5050  -55.037661      0.48333419    -54.554327      0.029520714    415.47067     -635.94516      3375         
      5060  -55.029425      0.47524118    -54.554184      0.029520714    408.51397      546.62588      3375         
      5070  -54.923914      0.38544781    -54.538466      0.029520714    331.32823      1156.035       3375         
      5080  -55.067626      0.53756063    -54.530066      0.029520714    462.08333      414.09932      3375         
      5090  -55.203643      0.6614711     -54.542172      0.029520714    568.5959      -865.15988      3375         
      5100  -54.94698       0.3870027     -54.559977      0.029520714    332.6648      -1112.5423      3375         
      5110  -55.051681      0.48301835    -54.568663      0.029520714    415.19918     -44.704303      3375         
      5120  -55.055202      0.47092563    -54.584277      0.029520714    404.80435      866.74516      3375         
      5130  -54.902723      0.28763295    -54.61509       0.029520714    247.24726      242.68092      3375         
      5140  -54.894688      0.25495467    -54.639733      0.029520714    219.15724     -315.12344      3375         
      5150  -55.076422      0.41134212    -54.665079      0.029520714    353.58679     -221.2965       3375         
      5160  -55.00618       0.30210385    -54.704076      0.029520714    259.68634      216.68684      3375         
      5170  -54.922567      0.20557144    -54.716995      0.029520714    176.70776      526.69965      3375         
      5180  -55.031469      0.30264138    -54.728827      0.029520714    260.1484      -151.49267      3375         
      5190  -54.983943      0.2292201     -54.754723      0.029520714    197.03598     -794.3897       3375         
      5200  -55.079148      0.30194995    -54.777198      0.029520714    259.55405     -253.68548      3375         
      5210  -55.160016      0.35571785    -54.804298      0.029520714    305.77256      733.97251      3375         
      5220  -55.116105      0.29233053    -54.823775      0.029520714    251.28527      779.36394      3375         
      5230  -55.149666      0.33481169    -54.814854      0.029520714    287.80177      68.666583      3375         
      5240  -55.245336      0.4158712     -54.829465      0.029520714    357.47995     -662.53316      3375         
      5250  -55.199868      0.34583313    -54.854034      0.029520714    297.27572     -798.22176      3375         
      5260  -55.225623      0.35246702    -54.873156      0.029520714    302.97817     -142.52062      3375         
      5270  -55.240351      0.35456548    -54.885786      0.029520714    304.78199      579.18735      3375         
      5280  -55.162824      0.28269675    -54.880128      0.029520714    243.00414      396.25544      3375         
      5290  -55.196517      0.31087334    -54.885644      0.029520714    267.22454     -41.886726      3375         
      5300  -55.193944      0.29453854    -54.899405      0.029520714    253.18326     -72.647936      3375         
      5310  -55.152975      0.24413372    -54.908841      0.029520714    209.85563     -295.65996      3375         
      5320  -55.120947      0.21525479    -54.905692      0.029520714    185.0315      -12.713089      3375         
      5330  -55.114815      0.22256946    -54.892246      0.029520714    191.31914      382.0444       3375         
      5340  -55.079189      0.1848089     -54.89438       0.029520714    158.86043     -248.9719       3375         
      5350  -55.12638       0.22840322    -54.897977      0.029520714    196.3338      -325.37553      3375         
      5360  -55.121324      0.22457744    -54.896746      0.029520714    193.04519      343.18376      3375         
      5370  -55.049857      0.16210151    -54.887755      0.029520714    139.34132      349.17782      3375         
      5380  -55.14607       0.27584972    -54.87022       0.029520714    237.11848      301.92863      3375         
      5390  -55.202764      0.34209061    -54.860673      0.029520714    294.05868     -234.05101      3375         
      5400  -55.14578       0.29165028    -54.85413       0.029520714    250.70053     -1019.0921      3375         
      5410  -55.203967      0.35284419    -54.851123      0.029520714    303.30238     -233.27572      3375         
      5420  -55.152551      0.3221345     -54.830417      0.029520714    276.90455      909.44725      3375         
      5430  -55.100467      0.29921487    -54.801252      0.029520714    257.20299      559.14049      3375         
      5440  -55.221577      0.43134549    -54.790232      0.029520714    370.78155     -200.86798      3375         
      5450  -55.234699      0.44628576    -54.788413      0.029520714    383.6241      -426.97314      3375         
      5460  -55.082999      0.29879518    -54.784204      0.029520714    256.84223     -284.77404      3375         
      5470  -55.048293      0.27629073    -54.772002      0.029520714    237.49757     -26.24969       3375         
      5480  -55.144378      0.37801986    -54.766358      0.029520714    324.94321      437.77438      3375         
      5490  -55.071991      0.32267581    -54.749316      0.029520714    277.36986     -80.328932      3375         
      5500  -55.057885      0.31538393    -54.742501      0.029520714    271.10181     -494.6503       3375         
      5510  -55.062482      0.31630497    -54.746177      0.029520714    271.89353      371.24752      3375         
      5520  -54.950022      0.20316501    -54.746857      0.029520714    174.63921      437.65474      3375         
      5530  -54.968279      0.23912847    -54.72915       0.029520714    205.55315     -19.659852      3375         
      5540  -55.085969      0.3652009     -54.720768      0.029520714    313.92412     -55.728623      3375         
      5550  -55.014663      0.30282896    -54.711834      0.029520714    260.30965     -613.18172      3375         
      5560  -55.022055      0.31319831    -54.708857      0.029520714    269.22306     -321.68843      3375         
      5570  -55.132162      0.42162207    -54.71054       0.029520714    362.42337      770.91181      3375         
      5580  -55.046468      0.36046393    -54.686004      0.029520714    309.85226      494.86326      3375         
      5590  -55.145942      0.47280989    -54.673132      0.029520714    406.42405     -109.25941      3375         
      5600  -55.18505       0.50130308    -54.683746      0.029520714    430.9166      -288.19101      3375         
      5610  -55.097625      0.40125079    -54.696374      0.029520714    344.91235     -584.60338      3375         
      5620  -55.076205      0.38247342    -54.693732      0.029520714    328.77146     -146.482        3375         
      5630  -55.166128      0.48528746    -54.68084       0.029520714    417.14969      526.65807      3375         
      5640  -55.150487      0.46443018    -54.686057      0.029520714    399.22092      107.23296      3375         
      5650  -55.075889      0.3775407     -54.698349      0.029520714    324.53133     -273.24602      3375         
      5660  -55.076841      0.36385365    -54.712987      0.029520714    312.76604      2.891993       3375         
      5670  -55.003124      0.27685664    -54.726267      0.029520714    237.98402      154.57168      3375         
      5680  -55.000979      0.29846223    -54.702516      0.029520714    256.55603      228.49399      3375         
      5690  -55.005638      0.29646131    -54.709176      0.029520714    254.83606      116.26978      3375         
      5700  -54.972551      0.25428169    -54.718269      0.029520714    218.57875     -628.3442       3375         
      5710  -54.990753      0.27240015    -54.718352      0.029520714    234.15325     -573.98425      3375         
      5720  -54.994709      0.27825165    -54.716457      0.029520714    239.18316      728.35452      3375         
      5730  -54.982793      0.27191154    -54.710881      0.029520714    233.73325      945.9593       3375         
      5740  -55.117116      0.4138254     -54.703291      0.029520714    355.7214      -322.86926      3375         
      5750  -55.13226       0.42522327    -54.707037      0.029520714    365.51893     -476.64667      3375         
      5760  -55.089857      0.37228942    -54.717567      0.029520714    320.01737     -162.18928      3375         
      5770  -55.109536      0.41630441    -54.693231      0.029520714    357.85234     -137.86795      3375         
      5780  -55.19346       0.50583334    -54.687627      0.029520714    434.81078      307.45698      3375         
      5790  -55.138621      0.43397983    -54.704641      0.029520714    373.04601     -270.55965      3375         
      5800  -55.13957       0.42181524    -54.717755      0.029520714    362.58941     -269.65862      3375         
      5810  -55.153323      0.43365312    -54.71967       0.029520714    372.76517      920.91903      3375         
      5820  -55.12898       0.40143825    -54.727541      0.029520714    345.0735       426.64776      3375         
      5830  -55.091774      0.36069255    -54.731081      0.029520714    310.04878     -769.29674      3375         
      5840  -55.055033      0.31276182    -54.742271      0.029520714    268.84786     -663.26603      3375         
      5850  -55.007163      0.25028234    -54.756881      0.029520714    215.14094     -315.14453      3375         
      5860  -54.977614      0.21231482    -54.765299      0.029520714    182.50432      583.38613      3375         
      5870  -55.051297      0.29290521    -54.758391      0.029520714    251.77926      945.11074      3375         
      5880  -55.011205      0.24629407    -54.764911      0.029520714    211.71265     -69.834067      3375         
      5890  -55.013688      0.24752272    -54.766165      0.029520714    212.76879     -556.34539      3375         
      5900  -55.113655      0.34731837    -54.766336      0.029520714    298.55242     -49.199353      3375         
      5910  -55.094074      0.32041435    -54.77366       0.029520714    275.42592      118.86724      3375         
      5920  -55.056976      0.29338163    -54.763594      0.029520714    252.18879     -128.19077      3375         
      5930  -55.194803      0.44284691    -54.751956      0.029520714    380.66809     -85.49643       3375         
      5940  -55.212709      0.45132983    -54.76138       0.029520714    387.95995     -13.189313      3375         
      5950  -55.089496      0.32526819    -54.764228      0.029520714    279.59825      288.15327      3375         
      5960  -55.226859      0.4687588     -54.758101      0.029520714    402.94177      343.64494      3375         
      5970  -55.206111      0.44696094    -54.75915       0.029520714    384.20448     -199.66003      3375         
      5980  -55.06257       0.29899766    -54.763572      0.029520714    257.01628     -747.01218      3375         
      5990  -55.173457      0.39828903    -54.775168      0.029520714    342.36645     -158.79311      3375         
      6000  -55.184345      0.39509936    -54.789246      0.029520714    339.62463      292.35587      3375         
      6010  -54.978331      0.1839597     -54.794371      0.029520714    158.13047      95.496275      3375         
      6020  -55.072201      0.29096131    -54.78124       0.029520714    250.10829      494.19518      3375         
      6030  -55.14239       0.35075048    -54.79164       0.029520714    301.50265      342.81762      3375         
      6040  -54.965156      0.16013803    -54.805018      0.029520714    137.65352     -465.47521      3375         
      6050  -55.058809      0.24532271    -54.813486      0.029520714    210.87768     -272.16921      3375         
      6060  -55.088373      0.27360146    -54.814771      0.029520714    235.18589     -76.873352      3375         
      6070  -55.046969      0.24017986    -54.80679       0.029520714    206.45692     -124.53149      3375         
      6080  -55.101169      0.2987058     -54.802464      0.029520714    256.76541      400.81623      3375         
      6090  -55.199168      0.39007023    -54.809098      0.029520714    335.30163      131.90834      3375         
      6100  -55.123385      0.30608023    -54.817304      0.029520714    263.10442     -248.53766      3375         
      6110  -55.129548      0.32258086    -54.806967      0.029520714    277.28824      237.0439       3375         
      6120  -55.117055      0.32011266    -54.796942      0.029520714    275.16659      322.37396      3375         
      6130  -55.155879      0.35954034    -54.796338      0.029520714    309.05835     -541.41944      3375         
      6140  -55.230423      0.43386132    -54.796561      0.029520714    372.94414     -754.80274      3375         
      6150  -55.162507      0.36306562    -54.799441      0.029520714    312.08865      196.83661      3375         
      6160  -55.077945      0.29163761    -54.786307      0.029520714    250.68964      771.62321      3375         
      6170  -55.104155      0.32032826    -54.783827      0.029520714    275.35191      694.60575      3375         
      6180  -55.138924      0.3502742     -54.78865       0.029520714    301.09324     -175.27998      3375         
      6190  -55.058301      0.2690702     -54.789231      0.029520714    231.29085     -1315.2745      3375         
      6200  -55.129644      0.34124493    -54.788399      0.029520714    293.33174     -449.26224      3375         
      6210  -54.993088      0.21258122    -54.780507      0.029520714    182.73332      1000.3247      3375         
      6220  -55.036091      0.27386218    -54.762229      0.029520714    235.41001      282.82423      3375         
      6230  -55.073797      0.31544313    -54.758354      0.029520714    271.1527      -271.38161      3375         
      6240  -54.93794       0.17970228    -54.758237      0.029520714    154.47082     -48.910154      3375         
      6250  -55.005419      0.25048134    -54.754938      0.029520714    215.312        28.816409      3375         
      6260  -55.169784      0.42661934    -54.743165      0.029520714    366.71898      744.98815      3375         
      6270  -55.076744      0.36916495    -54.707579      0.029520714    317.33159      442.48714      3375         
      6280  -54.963682      0.28685519    -54.676827      0.029520714    246.5787      -1354.1179      3375         
      6290  -55.22842       0.55735001    -54.67107       0.029520714    479.09415     -1078.7715      3375         
      6300  -55.129272      0.47035041    -54.658922      0.029520714    404.3099       747.41581      3375         
      6310  -55.055018      0.39848794    -54.65653       0.029520714    342.53743      971.27241      3375         
      6320  -55.153323      0.53574945    -54.617574      0.029520714    460.52646      394.37942      3375         
      6330  -55.151123      0.5484038     -54.602719      0.029520714    471.40405     -213.98931      3375         
      6340  -54.952409      0.35108333    -54.601326      0.029520714    301.78876     -921.27108      3375         
      6350  -55.147336      0.54308488    -54.604251      0.029520714    466.83194     -608.67394      3375         
      6360  -55.054         0.44343956    -54.61056       0.029520714    381.17753      455.13898      3375         
[...]
     48420  -55.280227      0.29220268    -54.988024      0.029520714    251.17537     -965.74495      3375         
     48430  -55.254623      0.26086387    -54.993759      0.029520714    224.23675     -418.47904      3375         
     48440  -55.118705      0.12373144    -54.994973      0.029520714    106.35868      509.115        3375         
     48450  -55.150229      0.1853249     -54.964905      0.029520714    159.30398      401.65525      3375         
     48460  -55.274585      0.3246647     -54.94992       0.029520714    279.0795       447.14683      3375         
     48470  -55.210324      0.26262254    -54.947701      0.029520714    225.74849     -145.03696      3375         
     48480  -55.099091      0.15605685    -54.943034      0.029520714    134.14537     -714.08642      3375         
     48490  -55.123522      0.19336543    -54.930157      0.029520714    166.21556      190.39387      3375         
     48500  -55.176704      0.28236719    -54.894337      0.029520714    242.72085      583.57786      3375         
     48510  -55.17917       0.32973825    -54.849432      0.029520714    283.44068     -641.94625      3375         
     48520  -55.099149      0.26976263    -54.829387      0.029520714    231.88606     -618.49983      3375         
     48530  -55.074734      0.25363088    -54.821103      0.029520714    218.01932      468.02828      3375         
     48540  -55.113898      0.31897357    -54.794925      0.029520714    274.18744      992.41001      3375         
     48550  -55.202417      0.45723459    -54.745182      0.029520714    393.03563      898.47879      3375         
     48560  -55.058297      0.3242286     -54.734068      0.029520714    278.70463     -944.25432      3375         
     48570  -54.950816      0.21924682    -54.731569      0.029520714    188.46302     -2001.3897      3375         
     48580  -55.214312      0.48500525    -54.729306      0.029520714    416.9071      -21.672477      3375         
     48590  -55.165469      0.44321876    -54.722251      0.029520714    380.98773      1338.4274      3375         
     48600  -54.985358      0.29572314    -54.689635      0.029520714    254.20153      625.26027      3375         
     48610  -55.021176      0.33584862    -54.685328      0.029520714    288.69311      316.58733      3375         
     48620  -55.149046      0.45368331    -54.695363      0.029520714    389.98298     -408.47825      3375         
     48630  -55.071314      0.36898595    -54.702328      0.029520714    317.17773     -730.48892      3375         
     48640  -54.95291       0.26253872    -54.690371      0.029520714    225.67644      75.809052      3375         
     48650  -55.036286      0.36018112    -54.676105      0.029520714    309.60916     -139.80257      3375         
     48660  -55.120943      0.44610002    -54.674843      0.029520714    383.46444     -451.24557      3375         
     48670  -55.042372      0.362765      -54.679607      0.029520714    311.83024      675.13189      3375         
     48680  -54.968275      0.28137       -54.686905      0.029520714    241.86367      622.10363      3375         
     48690  -54.941608      0.25188908    -54.689719      0.029520714    216.52208     -21.262852      3375         
     48700  -55.094429      0.42939292    -54.665036      0.029520714    369.10313      261.42639      3375         
     48710  -55.13759       0.47590591    -54.661684      0.029520714    409.08538     -575.43288      3375         
     48720  -55.016215      0.34811778    -54.668098      0.029520714    299.2396      -1122.5693      3375         
     48730  -54.959646      0.28790033    -54.671746      0.029520714    247.4771      -103.60566      3375         
     48740  -55.084161      0.40742085    -54.676741      0.029520714    350.2161       802.4187       3375         
     48750  -55.14379       0.48155741    -54.662233      0.029520714    413.94336      975.99443      3375         
     48760  -55.022065      0.36378391    -54.658281      0.029520714    312.70609      506.19652      3375         
     48770  -54.958706      0.28693589    -54.67177       0.029520714    246.64808     -824.17629      3375         
     48780  -55.058119      0.37602163    -54.682098      0.029520714    323.22554     -1186.6916      3375         
     48790  -55.167991      0.48959423    -54.678397      0.029520714    420.85175     -94.798759      3375         
     48800  -55.148462      0.46868181    -54.679781      0.029520714    402.87559      553.51197      3375         
     48810  -55.021603      0.3343869     -54.687216      0.029520714    287.43663      229.78271      3375         
     48820  -54.949245      0.25280048    -54.696444      0.029520714    217.30552      219.1494       3375         
     48830  -55.068041      0.35665284    -54.711388      0.029520714    306.57627      281.08324      3375         
     48840  -55.140405      0.41579672    -54.724608      0.029520714    357.41593     -45.0978        3375         
     48850  -55.054017      0.3338194     -54.720198      0.029520714    286.94881     -103.53369      3375         
     48860  -55.040855      0.31140388    -54.729451      0.029520714    267.68059     -342.3823       3375         
     48870  -55.094152      0.34784748    -54.746305      0.029520714    299.00725     -716.38516      3375         
     48880  -55.053394      0.29271006    -54.760684      0.029520714    251.61151      43.507834      3375         
     48890  -54.986416      0.21651143    -54.769905      0.029520714    186.1117       1199.0751      3375         
     48900  -55.050215      0.27584393    -54.774371      0.029520714    237.1135       645.30643      3375         
     48910  -55.153908      0.37380889    -54.780099      0.029520714    321.32349     -409.78191      3375         
     48920  -55.041936      0.24786304    -54.794073      0.029520714    213.06132     -963.6553       3375         
     48930  -55.10148       0.28980983    -54.81167       0.029520714    249.11849     -914.63266      3375         
     48940  -55.240835      0.42006315    -54.820771      0.029520714    361.08333      201.75572      3375         
     48950  -55.151803      0.32907309    -54.82273       0.029520714    282.86891      1270.0649      3375         
     48960  -55.009369      0.18317315    -54.826196      0.029520714    157.45435      444.51881      3375         
     48970  -55.098706      0.26279834    -54.835907      0.029520714    225.89961     -330.05596      3375         
     48980  -55.231068      0.37599554    -54.855073      0.029520714    323.20312      67.839244      3375         
     48990  -55.244851      0.3697635     -54.875087      0.029520714    317.8461      -267.4742       3375         
     49000  -55.156592      0.28998037    -54.866611      0.029520714    249.26509     -766.22384      3375         
     49010  -55.085654      0.20596105    -54.879693      0.029520714    177.04267     -98.716185      3375         
     49020  -55.130071      0.23410591    -54.895965      0.029520714    201.2358       144.72504      3375         
     49030  -55.235396      0.32921987    -54.906176      0.029520714    282.99508      421.30691      3375         
     49040  -55.216149      0.29733741    -54.918812      0.029520714    255.58914      936.32476      3375         
     49050  -55.107224      0.18790965    -54.919314      0.029520714    161.52581     -125.98711      3375         
     49060  -55.123128      0.2118359     -54.911292      0.029520714    182.09265     -784.04217      3375         
     49070  -55.174437      0.24718311    -54.927254      0.029520714    212.47686     -187.18625      3375         
     49080  -55.188285      0.24818506    -54.9401        0.029520714    213.33813     -451.0283       3375         
     49090  -55.12363       0.18495046    -54.93868       0.029520714    158.98212     -37.375263      3375         
     49100  -55.150411      0.21359535    -54.936816      0.029520714    183.60506      1368.5668      3375         
     49110  -55.211406      0.27781682    -54.933589      0.029520714    238.80939      369.09015      3375         
     49120  -55.168548      0.23767993    -54.930868      0.029520714    204.30799     -939.49554      3375         
     49130  -55.122513      0.18631334    -54.9362        0.029520714    160.15364     -426.89317      3375         
     49140  -55.207611      0.26770408    -54.939907      0.029520714    230.11654     -238.32538      3375         
     49150  -55.214386      0.30815332    -54.906232      0.029520714    264.88643      387.41968      3375         
     49160  -55.187356      0.29404188    -54.893314      0.029520714    252.75633      864.08464      3375         
     49170  -55.101304      0.21043394    -54.89087       0.029520714    180.88753     -618.98269      3375         
     49180  -55.165045      0.28430139    -54.880744      0.029520714    244.38348     -580.9669       3375         
     49190  -55.234583      0.38043491    -54.854148      0.029520714    327.01917      1002.8375      3375         
     49200  -55.160863      0.34415196    -54.816711      0.029520714    295.8306       183.56222      3375         
     49210  -55.014613      0.23531907    -54.779294      0.029520714    202.27862     -828.09028      3375         
     49220  -55.065161      0.29171809    -54.773443      0.029520714    250.75882     -301.72875      3375         
     49230  -55.261195      0.50595167    -54.755243      0.029520714    434.9125      -106.11342      3375         
     49240  -55.079261      0.36074635    -54.718515      0.029520714    310.09502      545.73748      3375         
     49250  -54.853194      0.16487194    -54.688322      0.029520714    141.72276      1006.1367      3375         
     49260  -54.974821      0.29580698    -54.679014      0.029520714    254.2736      -656.16675      3375         
     49270  -55.091869      0.43106516    -54.660804      0.029520714    370.54058     -957.83081      3375         
     49280  -55.061914      0.41373652    -54.648177      0.029520714    355.645        512.39516      3375         
     49290  -54.990068      0.33759802    -54.65247       0.029520714    290.19688      194.6355       3375         
     49300  -54.904978      0.30660474    -54.598373      0.029520714    263.55527     -36.925202      3375         
     49310  -55.033937      0.44051885    -54.593418      0.029520714    378.66691      495.40177      3375         
     49320  -55.071291      0.47486015    -54.596431      0.029520714    408.18644     -525.38649      3375         
     49330  -54.924817      0.33035767    -54.59446       0.029520714    283.97312     -530.0374       3375         
     49340  -54.859426      0.27244875    -54.586977      0.029520714    234.19502      1072.9017      3375         
     49350  -55.169466      0.59183325    -54.577633      0.029520714    508.7357       337.26725      3375         
     49360  -55.182617      0.62037623    -54.56224       0.029520714    533.27105     -950.81439      3375         
     49370  -54.938787      0.35964815    -54.579138      0.029520714    309.15102     -568.32651      3375         
     49380  -54.982677      0.3741948     -54.608482      0.029520714    321.65522     -200.4112       3375         
     49390  -55.062167      0.46467009    -54.597497      0.029520714    399.42714      544.72329      3375         
     49400  -55.083691      0.51262918    -54.571062      0.029520714    440.65243      1479.381       3375         
     49410  -54.963142      0.3571929     -54.605949      0.029520714    307.0405      -402.62192      3375         
     49420  -54.950605      0.32760293    -54.623002      0.029520714    281.60517     -1468.9895      3375         
     49430  -55.182248      0.53668688    -54.645561      0.029520714    461.33226      270.37512      3375         
     49440  -55.075081      0.40946503    -54.665616      0.029520714    351.97326      790.37695      3375         
     49450  -54.922409      0.28070484    -54.641704      0.029520714    241.29191     -34.650811      3375         
     49460  -54.950692      0.2804715     -54.67022       0.029520714    241.09133     -403.96267      3375         
     49470  -55.025826      0.33763271    -54.688193      0.029520714    290.2267      -609.92747      3375         
     49480  -55.157254      0.43621935    -54.721035      0.029520714    374.97108      345.44266      3375         
     49490  -55.094353      0.37733497    -54.717018      0.029520714    324.35449      1245.6323      3375         
     49500  -54.960471      0.24181233    -54.718659      0.029520714    207.86018      182.4186       3375         
     49510  -55.012713      0.28447532    -54.728237      0.029520714    244.53299     -1157.837       3375         
     49520  -55.213899      0.46248438    -54.751414      0.029520714    397.54832     -947.03658      3375         
     49530  -55.165771      0.38127763    -54.784493      0.029520714    327.74357      185.70175      3375         
     49540  -55.016495      0.22410544    -54.79239       0.029520714    192.63946      870.21376      3375         
     49550  -55.15539       0.3841063     -54.771284      0.029520714    330.17507      969.33742      3375         
     49560  -55.19758       0.39823547    -54.799344      0.029520714    342.32041     -230.93119      3375         
     49570  -55.059246      0.23682782    -54.822418      0.029520714    203.57553     -1121.0063      3375         
     49580  -55.135356      0.29529725    -54.840058      0.029520714    253.83544     -225.91172      3375         
     49590  -55.184529      0.33557298    -54.848956      0.029520714    288.45618      682.08538      3375         
     49600  -55.19277       0.34841475    -54.844355      0.029520714    299.49487      120.75309      3375         
     49610  -55.167374      0.3034335     -54.86394       0.029520714    260.8293      -461.73276      3375         
     49620  -55.090622      0.20519416    -54.885428      0.029520714    176.38345     -279.1684       3375         
     49630  -55.140477      0.22953834    -54.910938      0.029520714    197.30954      263.1484       3375         
     49640  -55.165353      0.26965858    -54.895694      0.029520714    231.79662      872.02611      3375         
     49650  -55.158284      0.27080941    -54.887475      0.029520714    232.78586      262.50008      3375         
     49660  -55.099777      0.19019141    -54.909585      0.029520714    163.4872      -1091.6563      3375         
     49670  -55.169235      0.24338927    -54.925845      0.029520714    209.21571     -736.4615       3375         
     49680  -55.256011      0.30610739    -54.949904      0.029520714    263.12776      612.03253      3375         
     49690  -55.125204      0.1724675     -54.952737      0.029520714    148.25185      747.67077      3375         
     49700  -55.101492      0.16686889    -54.934623      0.029520714    143.43933      341.93326      3375         
     49710  -55.177278      0.21535644    -54.961922      0.029520714    185.11888     -417.41109      3375         
     49720  -55.250046      0.26543595    -54.98461       0.029520714    228.16688     -912.93391      3375         
     49730  -55.270487      0.25514483    -55.015342      0.029520714    219.3207      -160.1368       3375         
     49740  -55.167025      0.15345701    -55.013568      0.029520714    131.91057      744.57198      3375         
     49750  -55.216796      0.21683272    -54.999963      0.029520714    186.38788      262.01272      3375         
     49760  -55.235815      0.21332625    -55.022489      0.029520714    183.37374     -150.53542      3375         
     49770  -55.244268      0.19735771    -55.04691       0.029520714    169.6473      -43.890564      3375         
     49780  -55.259358      0.19079717    -55.068561      0.029520714    164.00791     -99.465478      3375         
     49790  -55.233434      0.17681475    -55.056619      0.029520714    151.98872      296.88751      3375         
     49800  -55.248287      0.19146573    -55.056821      0.029520714    164.58259      209.55204      3375         
     49810  -55.252947      0.18321879    -55.069728      0.029520714    157.49358     -1025.5563      3375         
     49820  -55.229145      0.15063161    -55.078513      0.029520714    129.48187     -629.4612       3375         
     49830  -55.231145      0.14470966    -55.086436      0.029520714    124.39141      1055.7128      3375         
     49840  -55.260592      0.18913207    -55.07146       0.029520714    162.5766       1015.6879      3375         
     49850  -55.301869      0.24792125    -55.053948      0.029520714    213.11136      68.907819      3375         
     49860  -55.144533      0.08216697    -55.062366      0.029520714    70.630149     -869.01982      3375         
     49870  -55.170645      0.10015181    -55.070493      0.029520714    86.089787     -1241.8833      3375         
     49880  -55.293248      0.23048537    -55.062762      0.029520714    198.1236       298.68223      3375         
     49890  -55.254905      0.22510105    -55.029804      0.029520714    193.49528      1417.9694      3375         
     49900  -55.175748      0.16900751    -55.00674       0.029520714    145.27767      120.95599      3375         
     49910  -55.171367      0.16774415    -55.003622      0.029520714    144.19169     -559.41477      3375         
     49920  -55.242503      0.2472427     -54.995261      0.029520714    212.52809     -174.66752      3375         
     49930  -55.196216      0.20917492    -54.987041      0.029520714    179.80529     -127.53509      3375         
     49940  -55.16228       0.21945282    -54.942827      0.029520714    188.6401       66.279434      3375         
     49950  -55.193496      0.27426916    -54.919227      0.029520714    235.75984     -60.09677       3375         
     49960  -55.20362       0.29432423    -54.909296      0.029520714    252.99904     -527.01782      3375         
     49970  -55.221779      0.32140036    -54.900378      0.029520714    276.27349      415.67757      3375         
     49980  -55.126175      0.22591969    -54.900255      0.029520714    194.19897      1057.9956      3375         
     49990  -55.029723      0.162311      -54.867412      0.029520714    139.5214      -58.513801      3375         
     50000  -55.190479      0.35162567    -54.838853      0.029520714    302.25495     -522.26495      3375         
Loop time of 81.9799 on 3 procs for 50000 steps with 10 atoms

Performance: 26.348 ns/day, 0.911 hours/ns, 609.906 timesteps/s, 6.099 katom-step/s
168.3% CPU use with 3 MPI tasks x no OpenMP threads

MPI task timing breakdown:
Section |  min time  |  avg time  |  max time  |%varavg| %total
---------------------------------------------------------------
Pair    | 26.875     | 44.155     | 78.284     | 363.2 | 53.86
Neigh   | 0.00056002 | 0.00070139 | 0.00096353 |   0.0 |  0.00
Comm    | 1.0396     | 35.089     | 52.361     | 406.5 | 42.80
Output  | 0.51733    | 0.52219    | 0.5266     |   0.5 |  0.64
Modify  | 1.8995     | 1.9877     | 2.098      |   5.9 |  2.42
Other   |            | 0.2251     |            |       |  0.27

Nlocal:        3.33333 ave          10 max           0 min
Histogram: 2 0 0 0 0 0 0 0 0 1
Nghost:        77.3333 ave          93 max          49 min
Histogram: 1 0 0 0 0 0 0 0 0 2
Neighs:              0 ave           0 max           0 min
Histogram: 3 0 0 0 0 0 0 0 0 0
FullNghs:           30 ave          90 max           0 min
Histogram: 2 0 0 0 0 0 0 0 0 1

Total # of neighbors = 90
Ave neighs/atom = 9
Neighbor list builds = 109
Dangerous builds = 0

write_data	restart.data
System init for write_data ...
Generated 0 of 1 mixed pair_coeff terms from geometric mixing rule
#
Total wall time: 0:01:23
