10
 Atoms. Timestep: 0
C 8.03294 9.21716 7.49199
C 8.02353 7.92282 7.17263
C 7.36509 6.91602 7.9886
C 6.59396 5.97692 7.3625
H 8.63592 9.89475 6.90938
H 7.57791 9.66165 8.43223
H 8.53322 7.61458 6.23326
H 7.68128 6.74909 9.0366
H 6.34207 6.0871 6.34665
H 6.26052 5.01534 7.83658
10
 Atoms. Timestep: 20
C 7.9656 9.17584 7.53861
C 8.06063 7.91515 7.17061
C 7.38712 6.88242 8.01139
C 6.66034 6.04789 7.32778
H 8.49502 9.89685 6.94994
H 7.45304 9.45385 8.40288
H 8.51971 7.69759 6.24044
H 7.7082 6.68889 9.01115
H 6.28152 6.17131 6.29264
H 6.22436 5.18375 7.70162
10
 Atoms. Timestep: 40
C 7.93239 9.18235 7.58676
C 8.07583 7.90743 7.22312
C 7.50078 6.8312 7.94931
C 6.62673 6.04772 7.26559
H 8.29244 10.096 6.9653
H 7.30168 9.38052 8.47484
H 8.51046 7.59462 6.24078
H 7.67171 6.75045 9.05376
H 6.40801 6.40761 6.19015
H 6.12532 5.17862 7.81546
10
 Atoms. Timestep: 60
C 7.88138 9.19803 7.62162
C 8.12906 7.95695 7.22948
C 7.54495 6.73044 7.90504
C 6.61777 6.07839 7.25571
H 8.09707 10.0854 7.0715
H 7.29009 9.41129 8.56108
H 8.58001 7.67431 6.24415
H 7.61688 6.71018 9.00461
H 6.48032 6.29427 6.2543
H 6.02061 5.2617 7.68224
10
 Atoms. Timestep: 80
C 7.8257 9.21674 7.67439
C 8.15897 7.95034 7.22943
C 7.57401 6.76874 7.90558
C 6.60311 6.03735 7.22399
H 8.09606 10.0745 7.08219
H 7.33658 9.37239 8.61176
H 8.67689 7.96857 6.295
H 7.67667 6.53567 8.95673
H 6.42981 6.14242 6.12533
H 5.93718 5.28742 7.6176
10
 Atoms. Timestep: 100
C 7.80985 9.17954 7.71601
C 8.14229 8.00166 7.27689
C 7.50935 6.76424 7.82482
C 6.65319 6.02125 7.19544
H 8.18732 10.0768 7.15606
H 7.25814 9.31951 8.6258
H 8.71072 7.98137 6.33003
H 7.79874 6.54633 8.8629
H 6.40887 6.20536 6.09816
H 6.07214 5.29056 7.73714
10
 Atoms. Timestep: 120
C 7.8094 9.18745 7.77262
C 8.10234 7.98872 7.26127
C 7.52859 6.80051 7.78415
C 6.66521 6.02003 7.14476
H 8.26006 10.1214 7.36244
H 7.06953 9.32315 8.62029
H 8.75374 7.81557 6.36266
H 7.79702 6.58186 8.84243
H 6.33525 6.25968 6.1705
H 6.27515 5.13813 7.75387
10
 Atoms. Timestep: 140
C 7.80602 9.18463 7.80755
C 8.08172 8.0225 7.19994
C 7.54176 6.79719 7.81727
C 6.67206 6.02695 7.1444
H 8.29542 10.0801 7.59913
H 7.00083 9.26491 8.52462
H 8.81009 7.88326 6.43331
H 7.76083 6.54603 8.83882
H 6.2203 6.22901 6.18769
H 6.42715 5.0291 7.49046
10
 Atoms. Timestep: 160
C 7.78141 9.1886 7.82093
C 8.08213 8.0453 7.21976
C 7.51003 6.7782 7.79671
C 6.68498 5.9928 7.14153
H 8.36936 10.1427 7.67547
H 6.98553 9.18313 8.54133
H 8.85967 8.02536 6.4463
H 7.87109 6.52532 8.80586
H 6.24063 6.33359 6.13773
H 6.44641 4.98055 7.40874
10
 Atoms. Timestep: 180
C 7.72692 9.15918 7.84009
C 8.09181 8.03011 7.28637
C 7.53792 6.7931 7.74979
C 6.69206 6.01231 7.0889
H 8.27143 10.1225 7.62606
H 6.98335 9.22972 8.67177
H 8.85511 8.02961 6.45206
H 8.00394 6.47226 8.71549
H 6.35308 6.38375 6.13842
H 6.36479 5.014 7.49431
10
 Atoms. Timestep: 200
C 7.69246 9.19622 7.89531
C 8.11074 8.048 7.31177
C 7.6058 6.72169 7.73644
C 6.70205 6.04643 7.03821
H 8.07583 10.0971 7.5129
H 6.98292 9.23969 8.72595
H 8.82189 8.00489 6.50234
H 7.98384 6.34943 8.6699
H 6.3229 6.30991 6.08372
H 6.27028 5.14498 7.50385
10
 Atoms. Timestep: 220
C 7.69182 9.21333 7.91257
C 8.11753 8.06506 7.35655
C 7.67225 6.6709 7.72665
C 6.69534 6.04443 7.02044
H 7.90609 10.189 7.45432
H 6.97084 9.17348 8.70789
H 8.78764 8.14673 6.522
H 7.90597 6.21031 8.69172
H 6.26008 6.36687 6.00675
H 6.23176 5.17121 7.40904
10
 Atoms. Timestep: 240
C 7.65041 9.16541 7.90582
C 8.14436 8.04416 7.39016
C 7.65916 6.67915 7.70123
C 6.71123 6.07174 7.01444
H 7.86041 10.2028 7.51277
H 6.92261 9.14653 8.73784
H 8.77695 8.24019 6.48138
H 7.94925 6.20158 8.66635
H 6.33418 6.56774 6.12605
H 6.28968 5.09848 7.2947
10
 Atoms. Timestep: 260
C 7.60502 9.17248 7.94503
C 8.14459 8.06806 7.37311
C 7.64135 6.70178 7.73344
C 6.71344 6.05435 6.96021
H 7.964 10.1255 7.59659
H 6.88105 9.11526 8.76912
H 8.83604 8.106 6.50961
H 8.13396 6.25944 8.59579
H 6.30839 6.66392 6.18933
H 6.37418 4.96979 7.15785
10
 Atoms. Timestep: 280
C 7.62637 9.18554 7.96643
C 8.06141 8.07826 7.37036
C 7.62383 6.695 7.72635
C 6.76602 6.05111 6.95143
H 8.02364 10.1528 7.73641
H 6.87206 9.10798 8.73502
H 8.87757 8.07716 6.67697
H 8.23487 6.21722 8.49406
H 6.1547 6.56697 6.15027
H 6.49542 5.03831 7.00881
10
 Atoms. Timestep: 300
C 7.63792 9.19765 7.99458
C 8.00372 8.06526 7.40523
C 7.64258 6.71201 7.6766
C 6.76109 6.03998 6.91942
H 8.09819 10.2266 7.85664
H 6.79586 9.19387 8.71614
H 8.92826 8.15926 6.76878
H 8.24253 6.08349 8.39137
H 6.11393 6.49705 6.14823
H 6.67335 4.97032 7.03282
10
 Atoms. Timestep: 320
C 7.56672 9.16902 8.03741
C 8.07418 8.11364 7.45585
C 7.64598 6.68136 7.59999
C 6.74516 6.06148 6.90909
H 8.13833 10.0637 7.85715
H 6.71489 9.26292 8.6983
H 8.93143 8.20624 6.76795
H 8.25259 6.11773 8.28721
H 6.1339 6.47763 6.16989
H 6.76058 4.93882 7.09439
10
 Atoms. Timestep: 340
C 7.51174 9.15634 8.06242
C 8.14082 8.08397 7.4841
C 7.71864 6.72564 7.55838
C 6.72348 6.0475 6.89761
H 8.03233 10.0948 7.89072
H 6.61243 9.1312 8.68843
H 8.97874 8.30408 6.85389
H 8.32339 6.15256 8.26781
H 6.04414 6.50494 6.13038
H 6.56493 4.95159 7.04269
10
 Atoms. Timestep: 360
C 7.51333 9.13953 8.05876
C 8.13812 8.13821 7.49105
C 7.74046 6.66041 7.51753
C 6.7316 6.05671 6.89713
H 7.75231 10.2108 8.01791
H 6.60524 8.89782 8.60868
H 9.12875 8.37333 7.0225
H 8.38837 6.07293 8.21349
H 6.06918 6.61432 6.20208
H 6.43916 5.08164 7.03754
10
 Atoms. Timestep: 380
C 7.44866 9.14578 8.0921
C 8.17571 8.13836 7.46008
C 7.79113 6.64713 7.51693
C 6.71475 6.09299 6.87327
H 7.62202 10.2433 8.11555
H 6.51742 8.76617 8.54226
H 9.22578 8.31714 7.14275
H 8.43676 5.96562 8.06833
H 6.13646 6.77815 6.2831
H 6.40411 5.00406 7.08275
10
 Atoms. Timestep: 400
C 7.41203 9.0973 8.08974
C 8.18373 8.1325 7.53224
C 7.80589 6.68218 7.48
C 6.73169 6.11616 6.8759
H 7.67772 10.114 8.15481
H 6.42902 8.81253 8.48363
H 9.17129 8.31099 7.15789
H 8.53098 6.00493 7.94409
H 6.06594 6.77017 6.32009
H 6.44899 5.03851 6.96119
10
 Atoms. Timestep: 420
C 7.42692 9.15303 8.12944
C 8.13665 8.1123 7.63128
C 7.78578 6.68933 7.41887
C 6.74469 6.03845 6.82559
H 7.86342 10.1718 8.1761
H 6.40479 8.94448 8.45085
H 9.13025 8.41456 7.20639
H 8.6328 6.08567 7.84187
H 5.92122 6.64084 6.37376
H 6.60726 5.00389 6.80893
10
 Atoms. Timestep: 440
C 7.41709 9.13636 8.14238
C 8.0766 8.11732 7.65098
C 7.79339 6.6846 7.38837
C 6.76954 6.07332 6.81361
H 7.94148 10.0876 8.20556
H 6.39085 9.19195 8.51743
H 9.13096 8.35615 7.40519
H 8.61394 6.03892 7.66263
H 5.82693 6.50272 6.4449
H 6.88013 4.97309 6.68125
10
 Atoms. Timestep: 460
C 7.36206 9.14506 8.16217
C 8.07543 8.07936 7.63858
C 7.8152 6.71038 7.38366
C 6.76902 6.09371 6.80998
H 7.99031 10.0318 8.27572
H 6.3379 9.27387 8.5392
H 9.13126 8.2476 7.57289
H 8.66433 6.02297 7.4844
H 5.81434 6.47294 6.52501
H 7.0556 4.99987 6.5254
10
 Atoms. Timestep: 480
C 7.37037 9.13576 8.15829
C 8.06785 8.11999 7.71895
C 7.81341 6.69091 7.34298
C 6.78403 6.05129 6.78916
H 7.92419 10.0506 8.40935
H 6.31579 9.11638 8.38702
H 9.16538 8.31478 7.6302
H 8.80056 6.14952 7.37236
H 5.83074 6.53434 6.60377
H 6.87336 5.0666 6.43003
10
 Atoms. Timestep: 500
C 7.33013 9.11645 8.17049
C 8.12637 8.07708 7.76839
C 7.87487 6.71839 7.29063
C 6.77565 6.0732 6.78224
H 7.73398 10.075 8.50823
H 6.23895 8.9456 8.19902
H 9.18494 8.39779 7.67261
H 8.80528 6.17752 7.32091
H 5.7993 6.65265 6.70672
H 6.71946 5.06077 6.41101
10
 Atoms. Timestep: 520
C 7.27918 9.06853 8.19756
C 8.17281 8.1153 7.78435
C 7.91718 6.71085 7.22379
C 6.76338 6.13593 6.78318
H 7.54439 10.0412 8.52572
H 6.19466 8.88297 8.10551
H 9.2271 8.30895 7.81972
H 8.78906 6.05302 7.23806
H 5.84173 6.69682 6.79765
H 6.73179 5.05339 6.46908
10
 Atoms. Timestep: 540
C 7.27864 9.09062 8.242
C 8.15899 8.13389 7.78124
C 7.90307 6.71892 7.18536
C 6.77158 6.09703 6.74819
H 7.52988 10.1129 8.61254
H 6.23198 8.85356 8.10124
H 9.24106 8.28919 8.01714
H 8.815 6.04911 7.14332
H 5.85858 6.64365 6.79142
H 6.77378 5.02875 6.48266
10
 Atoms. Timestep: 560
C 7.30142 9.06636 8.22535
C 8.11462 8.10134 7.80367
C 7.888 6.77077 7.18557
C 6.8079 6.08244 6.74301
H 7.63938 9.98686 8.7092
H 6.21176 8.9431 8.15403
H 9.17973 8.30048 8.04936
H 8.83316 6.26266 7.1043
H 5.75056 6.51845 6.70013
H 6.83777 5.083 6.42637
10
 Atoms. Timestep: 580
C 7.27534 9.08629 8.23568
C 8.09223 8.06759 7.83808
C 7.87423 6.80494 7.18434
C 6.81444 6.07422 6.73131
H 7.80426 9.84488 8.77168
H 6.17656 9.09628 8.18045
H 9.13986 8.24119 7.95064
H 8.85244 6.34458 7.06709
H 5.77255 6.41823 6.68725
H 7.04088 5.07658 6.29549
10
 Atoms. Timestep: 600
C 7.27742 9.08265 8.27422
C 8.0413 8.08331 7.8507
C 7.86124 6.77937 7.16524
C 6.84261 6.07836 6.71064
H 7.81307 9.8941 8.78603
H 6.20885 9.20934 8.18613
H 9.13186 8.2335 7.98554
H 8.83613 6.25405 6.98396
H 5.83739 6.33654 6.76165
H 7.1613 5.15036 6.18087
10
 Atoms. Timestep: 620
C 7.26519 9.05635 8.3027
C 8.04571 8.05371 7.83411
C 7.91232 6.78987 7.16874
C 6.85443 6.09653 6.68118
H 7.72069 9.97753 8.75016
H 6.18666 9.19204 8.17054
H 9.09985 8.26856 8.13633
H 8.84821 6.2976 6.94529
H 5.75694 6.30921 6.84993
H 7.0458 5.19627 6.11636
10
 Atoms. Timestep: 640
C 7.22095 9.04349 8.29139
C 8.09225 8.07748 7.90067
C 7.93039 6.77525 7.12946
C 6.8458 6.11014 6.66822
H 7.67528 9.88858 8.75079
H 6.13788 9.00548 8.10702
H 9.11843 8.22887 8.16218
H 8.93745 6.41467 6.9095
H 5.79896 6.43538 6.92281
H 6.91964 5.20883 6.09829
10
 Atoms. Timestep: 660
C 7.21312 9.03925 8.28266
C 8.09628 8.05417 7.94687
C 7.93968 6.81413 7.10163
C 6.84019 6.10653 6.67277
H 7.52046 9.89766 8.8606
H 6.15792 8.86459 8.04615
H 9.16403 8.23155 8.16842
H 8.94079 6.40345 6.79798
H 5.93208 6.55924 6.9281
H 6.87312 5.17905 6.06423
10
 Atoms. Timestep: 680
C 7.22962 9.0137 8.30376
C 8.08759 8.03545 7.93121
C 7.94539 6.82935 7.07146
C 6.87517 6.12748 6.68696
H 7.34009 9.91087 8.96191
H 6.18181 8.89925 7.99945
H 9.14752 8.22599 8.2521
H 8.8792 6.40181 6.74258
H 5.84893 6.52343 6.90603
H 6.89989 5.22276 6.06663
10
 Atoms. Timestep: 700
C 7.19447 9.018 8.34886
C 8.10264 8.08151 7.92282
C 7.94983 6.83893 7.05626
C 6.85214 6.10388 6.6491
H 7.48673 9.83326 9.04128
H 6.19052 8.99821 7.93874
H 9.09659 8.1122 8.32726
H 8.93311 6.45572 6.75247
H 5.78217 6.32958 6.92369
H 7.04035 5.23713 6.0433
10
 Atoms. Timestep: 720
C 7.2006 9.00226 8.35991
C 8.06991 8.07557 7.92681
C 7.89431 6.88165 7.05735
C 6.88851 6.10109 6.62395
H 7.61644 9.66888 9.04484
H 6.18763 9.15365 7.9582
H 9.06685 8.0943 8.39218
H 8.90306 6.52577 6.74376
H 5.88796 6.16784 6.92837
H 7.14209 5.2461 6.01355
10
 Atoms. Timestep: 740
C 7.22849 9.00751 8.35125
C 7.99565 7.99365 7.95434
C 7.89331 6.93195 7.0404
C 6.93686 6.09258 6.61949
H 7.62332 9.69862 9.13929
H 6.19473 9.26526 8.04084
H 9.02114 8.11437 8.39289
H 8.8496 6.6216 6.64746
H 5.87825 6.11909 6.94139
H 7.23104 5.24693 5.93429
10
 Atoms. Timestep: 760
C 7.20314 9.02685 8.36094
C 7.96635 7.98016 8.03738
C 7.93193 6.90487 6.95988
C 6.94796 6.0927 6.63002
H 7.60892 9.74212 9.1411
H 6.20586 9.22628 8.03947
H 8.97571 7.96274 8.41346
H 8.93192 6.78324 6.5066
H 5.88102 6.12121 6.96788
H 7.22428 5.35691 5.89119
10
 Atoms. Timestep: 780
C 7.16487 8.99016 8.38081
C 8.00386 7.9466 8.04028
C 7.96586 6.9633 6.9653
C 6.95135 6.10855 6.61231
H 7.51956 9.70951 9.05261
H 6.18548 9.13415 7.91608
H 8.93673 7.86722 8.63416
H 8.9242 6.90414 6.38541
H 5.99972 6.15168 7.09814
H 7.04271 5.40169 5.81038
10
 Atoms. Timestep: 800
C 7.1678 8.92604 8.39037
C 8.03015 7.96752 8.07173
C 7.94778 6.98573 6.9431
C 6.9824 6.12528 6.57962
H 7.34376 9.67861 9.13885
H 6.25692 9.05457 7.71765
H 8.87583 7.87436 8.78913
H 8.84075 6.96779 6.35415
H 6.14136 6.15335 7.28836
H 6.8966 5.46391 5.69192
10
 Atoms. Timestep: 820
C 7.14869 8.96152 8.38954
C 8.0335 7.94816 8.13418
C 7.96115 6.99756 6.88904
C 6.97187 6.11289 6.5782
H 7.12477 9.59372 9.36303
H 6.39518 9.0706 7.64342
H 8.9332 7.81939 8.72645
H 8.87529 7.06552 6.26666
H 6.15642 5.97321 7.33383
H 6.9479 5.57682 5.60986
10
 Atoms. Timestep: 840
C 7.1673 8.95075 8.39511
C 7.99764 7.90663 8.12488
C 7.95603 7.05213 6.90592
C 7.00203 6.1315 6.5991
H 7.03062 9.4096 9.34918
H 6.40424 9.20995 7.67981
H 8.92111 7.72625 8.69327
H 8.79723 7.17456 6.16656
H 6.17652 5.80258 7.18682
H 7.05628 5.65099 5.66326
10
 Atoms. Timestep: 860
C 7.18496 8.94232 8.44062
C 7.96339 7.908 8.09532
C 7.89027 7.09343 6.91059
C 7.07716 6.08904 6.54885
H 7.21044 9.37279 9.41347
H 6.36659 9.32903 7.71573
H 8.75431 7.64004 8.83354
H 8.65253 7.29288 6.19486
H 6.21651 5.80618 7.18892
H 7.22892 5.58229 5.57018
10
 Atoms. Timestep: 880
C 7.15257 8.91133 8.46056
C 7.91485 7.90421 8.13505
C 7.86088 7.12516 6.83986
C 7.12451 6.08454 6.52636
H 7.49087 9.42849 9.41081
H 6.41237 9.40249 7.85547
H 8.57854 7.52616 8.89891
H 8.68223 7.44003 6.17471
H 6.30059 5.74386 7.17451
H 7.34255 5.52753 5.60361
10
 Atoms. Timestep: 900
C 7.13668 8.90599 8.48977
C 7.84582 7.79885 8.12753
C 7.90667 7.20385 6.81692
C 7.14621 6.12147 6.54262
H 7.47804 9.49851 9.37312
H 6.42595 9.4203 7.90478
H 8.57755 7.39639 8.85102
H 8.7035 7.56105 6.09248
H 6.39376 5.64163 7.13988
H 7.33297 5.52118 5.6667
10
 Atoms. Timestep: 920
C 7.18441 8.90591 8.52557
C 7.79187 7.79934 8.1602
C 7.89976 7.2038 6.79548
C 7.19736 6.12674 6.50921
H 7.28124 9.39415 9.45202
H 6.4129 9.33668 7.78129
H 8.57509 7.31087 8.76741
H 8.5983 7.638 6.12366
H 6.49768 5.72827 7.26775
H 7.31839 5.59735 5.55409
10
 Atoms. Timestep: 940
C 7.16261 8.87728 8.50077
C 7.86776 7.79539 8.16806
C 7.86393 7.23657 6.81239
C 7.2206 6.1266 6.48428
H 7.09424 9.21772 9.55938
H 6.48951 9.33064 7.74899
H 8.48547 7.30898 8.92495
H 8.53871 7.73275 6.1018
H 6.57989 5.71822 7.27961
H 7.24673 5.69669 5.48124
10
 Atoms. Timestep: 960
C 7.10829 8.82857 8.48249
C 7.95031 7.80933 8.19607
C 7.89002 7.27141 6.81687
C 7.21194 6.13745 6.48053
H 6.95923 9.09513 9.57042
H 6.58751 9.39061 7.79033
H 8.38501 7.29863 9.06067
H 8.4381 7.84097 6.00141
H 6.62674 5.533 7.15309
H 7.16415 5.78104 5.45734
10
 Atoms. Timestep: 980
C 7.0997 8.82928 8.5639
C 7.91682 7.84469 8.21387
C 7.93103 7.2276 6.80216
C 7.23964 6.13714 6.43277
H 6.90145 9.11943 9.57306
H 6.59315 9.44405 7.73301
H 8.37169 7.20178 8.9943
H 8.2459 7.87272 6.01499
H 6.71755 5.45993 7.14368
H 7.17112 5.88987 5.35375
10
 Atoms. Timestep: 1000
C 7.10584 8.81794 8.57341
C 7.84569 7.75965 8.18566
C 7.91809 7.26338 6.83497
C 7.2851 6.17317 6.41862
H 6.96185 9.17477 9.57672
H 6.53935 9.417 7.79453
H 8.40146 7.18508 8.92262
H 8.21921 7.92616 6.02483
H 6.85388 5.46676 7.13174
H 7.2199 5.96546 5.36258
10
 Atoms. Timestep: 1020
C 7.10952 8.79911 8.53851
C 7.78566 7.69546 8.23466
C 7.85071 7.34935 6.7996
C 7.33659 6.17484 6.40799
H 7.16566 9.15928 9.60901
H 6.50806 9.3099 7.88692
H 8.38689 7.16985 8.96679
H 8.3538 8.08198 6.08939
H 6.92221 5.45975 7.09734
H 7.29253 5.92662 5.355
10
 Atoms. Timestep: 1040
C 7.12039 8.79321 8.59901
C 7.76126 7.69418 8.24144
C 7.78763 7.36344 6.77723
C 7.40113 6.18451 6.35112
H 7.2732 9.2002 9.62227
H 6.4303 9.29497 7.86631
H 8.32456 7.08308 8.98414
H 8.29397 8.12348 6.22946
H 6.94716 5.49283 7.08532
H 7.43235 5.81336 5.28869
10
 Atoms. Timestep: 1060
C 7.12106 8.74255 8.63302
C 7.7557 7.68449 8.20086
C 7.78545 7.37921 6.83099
C 7.41595 6.21377 6.33588
H 7.1789 9.21427 9.56258
H 6.47358 9.39126 7.94405
H 8.26687 7.00812 8.88559
H 8.14299 8.15721 6.14445
H 6.98332 5.46915 7.01014
H 7.60934 5.85983 5.33769
10
 Atoms. Timestep: 1080
C 7.07762 8.76585 8.63938
C 7.76136 7.66743 8.23396
C 7.81444 7.39976 6.78144
C 7.42222 6.19748 6.35388
H 7.07581 9.0583 9.74486
H 6.61684 9.40192 7.95599
H 8.26332 6.93955 8.86053
H 8.00607 8.22879 6.03206
H 7.03661 5.37863 6.93478
H 7.67146 6.02966 5.3088
10
 Atoms. Timestep: 1100
C 7.08469 8.71235 8.65277
C 7.75392 7.70042 8.21773
C 7.80754 7.41927 6.785
C 7.47329 6.22861 6.34564
H 6.91353 8.82435 9.73579
H 6.70105 9.45167 7.94247
H 8.17188 6.96435 8.92167
H 7.99412 8.20363 6.09467
H 7.16745 5.35524 6.95034
H 7.45935 6.05688 5.23721
10
 Atoms. Timestep: 1120
C 7.0624 8.69084 8.68155
C 7.78508 7.67584 8.18917
C 7.81376 7.43181 6.8049
C 7.51507 6.24186 6.28886
H 6.76574 8.7549 9.70314
H 6.67785 9.57709 8.01841
H 8.0374 6.90335 8.94143
H 7.99679 8.28573 6.15344
H 7.36032 5.43229 7.02799
H 7.22801 6.02453 5.2578
10
 Atoms. Timestep: 1140
C 7.03787 8.68235 8.6719
C 7.76595 7.64875 8.25525
C 7.86852 7.46492 6.73699
C 7.51097 6.25686 6.30005
H 6.74869 8.7327 9.71809
H 6.68821 9.48195 8.10532
H 7.97078 6.75772 8.83093
H 7.88084 8.43084 6.14853
H 7.49949 5.44844 7.00663
H 7.23614 6.05103 5.29438
10
 Atoms. Timestep: 1160
C 7.03625 8.65049 8.72047
C 7.72074 7.61656 8.18176
C 7.87518 7.5186 6.78001
C 7.53498 6.30072 6.31003
H 6.78222 8.7392 9.82637
H 6.70188 9.41937 8.01623
H 7.95966 6.73235 8.80032
H 7.78162 8.35836 6.11257
H 7.51798 5.40272 6.95686
H 7.37775 6.04981 5.22306
10
 Atoms. Timestep: 1180
C 7.06145 8.61405 8.76324
C 7.65915 7.63768 8.20587
C 7.78582 7.49063 6.76726
C 7.61867 6.3107 6.26227
H 6.86599 8.73101 9.80593
H 6.65926 9.44385 8.06682
H 8.00003 6.76885 8.79129
H 7.81081 8.3651 6.13355
H 7.4465 5.45139 6.92333
H 7.5909 6.14146 5.17631
10
 Atoms. Timestep: 1200
C 7.03349 8.6407 8.75027
C 7.66445 7.56454 8.2184
C 7.68257 7.52227 6.76649
C 7.6753 6.30132 6.22513
H 6.97043 8.70713 9.83796
H 6.61248 9.49569 8.2626
H 8.05412 6.76263 8.8383
H 7.90771 8.46998 6.18922
H 7.42904 5.44025 6.83354
H 7.81531 6.17134 5.16563
10
 Atoms. Timestep: 1220
C 7.03652 8.5874 8.74624
C 7.62389 7.56506 8.19439
C 7.6658 7.53885 6.80052
C 7.6798 6.36283 6.22132
H 7.0651 8.67935 9.849
H 6.60643 9.41243 8.25209
H 8.04494 6.77133 8.79391
H 7.86114 8.45833 6.29221
H 7.50694 5.4147 6.72827
H 8.00334 6.15903 5.19873
10
 Atoms. Timestep: 1240
C 7.03713 8.56687 8.82165
C 7.57369 7.56715 8.21782
C 7.71292 7.53673 6.77075
C 7.69953 6.37323 6.1863
H 7.03485 8.69067 9.92704
H 6.56038 9.3632 8.09999
H 8.02649 6.67768 8.73057
H 7.74286 8.50115 6.26906
H 7.58289 5.43706 6.77909
H 8.03696 6.28633 5.10415
10
 Atoms. Timestep: 1260
C 7.01249 8.53019 8.80419
C 7.59666 7.48821 8.20718
C 7.73903 7.59028 6.79466
C 7.74834 6.41508 6.19099
H 6.87892 8.70838 9.83995
H 6.58845 9.36945 8.24916
H 7.94389 6.61137 8.75569
H 7.65528 8.53691 6.16761
H 7.69088 5.50935 6.76773
H 7.78737 6.34198 5.12675
10
 Atoms. Timestep: 1280
C 6.96772 8.51471 8.79751
C 7.6267 7.50253 8.23646
C 7.751 7.60334 6.79835
C 7.7939 6.44322 6.14947
H 6.72991 8.51455 9.88135
H 6.68433 9.358 8.25914
H 7.85416 6.5854 8.7302
H 7.62494 8.55273 6.3197
H 7.84688 5.51246 6.71451
H 7.54788 6.31404 5.09341
10
 Atoms. Timestep: 1300
C 6.93696 8.46402 8.81949
C 7.65027 7.55367 8.23745
C 7.7721 7.58693 6.81607
C 7.78029 6.47211 6.12357
H 6.57655 8.3131 9.86765
H 6.74126 9.43137 8.19579
H 7.82549 6.56543 8.73937
H 7.59417 8.56424 6.43788
H 8.03755 5.51386 6.63613
H 7.51122 6.37157 5.03272
10
 Atoms. Timestep: 1320
C 6.91173 8.42285 8.81289
C 7.68227 7.50415 8.23663
C 7.7883 7.61656 6.83347
C 7.75121 6.49182 6.12864
H 6.46978 8.34568 9.76967
H 6.62754 9.4001 8.39014
H 7.9147 6.56336 8.7794
H 7.55237 8.61575 6.29744
H 8.07632 5.54202 6.52425
H 7.68227 6.54078 5.05832
10
 Atoms. Timestep: 1340
C 6.86946 8.41826 8.86697
C 7.66967 7.49604 8.2829
C 7.79299 7.62204 6.80266
C 7.80088 6.51732 6.06989
H 6.4895 8.3068 9.90226
H 6.52088 9.25821 8.35067
H 8.02266 6.59193 8.70563
H 7.56062 8.56372 6.30714
H 7.8968 5.51493 6.49821
H 7.83557 6.66245 4.99053
10
 Atoms. Timestep: 1360
C 6.8542 8.31343 8.85769
C 7.63597 7.51947 8.23737
C 7.76705 7.63552 6.85593
C 7.85325 6.59546 6.07346
H 6.69099 8.28405 9.94872
H 6.37649 9.11592 8.21318
H 8.10533 6.65412 8.73774
H 7.68888 8.59451 6.43788
H 7.68043 5.57217 6.43641
H 7.9191 6.61596 4.96836
10
 Atoms. Timestep: 1380
C 6.78909 8.27416 8.8601
C 7.64744 7.44338 8.24259
C 7.76621 7.68624 6.81864
C 7.86037 6.61074 6.05155
H 6.81321 8.32279 9.95064
H 6.13762 9.0272 8.32633
H 8.24577 6.67039 8.83823
H 7.89343 8.80737 6.513
H 7.62993 5.61842 6.46306
H 8.02535 6.68666 4.96048
10
 Atoms. Timestep: 1400
C 6.75397 8.22495 8.89201
C 7.62318 7.45041 8.27996
C 7.83194 7.69655 6.79731
C 7.82626 6.65144 6.002
H 6.72403 8.3137 9.96664
H 6.05694 8.84186 8.45617
H 8.2884 6.78013 8.73187
H 8.01879 8.72821 6.4859
H 7.71383 5.67712 6.44749
H 8.10994 6.73888 4.97326
10
 Atoms. Timestep: 1420
C 6.71968 8.15831 8.93219
C 7.64681 7.51884 8.21428
C 7.89656 7.70031 6.8695
C 7.79495 6.70131 5.99796
H 6.59001 8.12343 10.0467
H 5.96082 8.76633 8.34469
H 8.33262 6.81358 8.72409
H 8.07193 8.63179 6.43941
H 7.73365 5.64754 6.32021
H 8.08696 6.76471 4.93029
10
 Atoms. Timestep: 1440
C 6.66548 8.08353 8.89602
C 7.70405 7.56978 8.30851
C 7.93586 7.73051 6.8107
C 7.81134 6.69093 6.00913
H 6.5061 7.84362 9.93165
H 5.93033 8.74337 8.35899
H 8.35514 6.79499 8.82475
H 8.12272 8.81131 6.41813
H 7.58262 5.65316 6.26553
H 7.92668 6.92496 4.94381
10
 Atoms. Timestep: 1460
C 6.60145 8.02018 8.87833
C 7.79057 7.58101 8.3082
C 7.96267 7.75706 6.83897
C 7.83373 6.72243 5.97578
H 6.33798 7.67399 9.88614
H 5.93022 8.69075 8.42429
H 8.35459 6.89809 8.89626
H 8.12865 8.77452 6.43908
H 7.44553 5.76396 6.33133
H 7.79651 6.93464 4.90424
10
 Atoms. Timestep: 1480
C 6.61855 7.94242 8.88846
C 7.73489 7.59826 8.3013
C 8.0107 7.75933 6.8711
C 7.81468 6.79691 5.94967
H 6.2534 7.6233 9.86647
H 5.91607 8.59868 8.35298
H 8.45234 6.99394 8.85916
H 8.16358 8.71141 6.50422
H 7.44576 5.85144 6.36951
H 7.81988 6.85974 4.87344
10
 Atoms. Timestep: 1500
C 6.56568 7.92767 8.93213
C 7.71498 7.54479 8.30909
C 8.0227 7.79124 6.83016
C 7.78662 6.81633 5.9473
H 6.34574 7.62637 9.9706
H 5.81771 8.45326 8.25346
H 8.58751 7.04489 8.85442
H 8.35054 8.86469 6.54844
H 7.49659 5.81704 6.28752
H 7.98597 6.93358 4.8625
10
 Atoms. Timestep: 1520
C 6.57375 7.87834 8.90338
C 7.70815 7.53306 8.29712
C 7.97318 7.81552 6.85529
C 7.79985 6.84847 5.9378
H 6.45914 7.77625 9.96299
H 5.70792 8.2416 8.40899
H 8.49638 7.10955 8.88029
H 8.52121 8.76251 6.58414
H 7.4769 5.83642 6.1714
H 8.1329 7.04138 4.91964
10
 Atoms. Timestep: 1540
C 6.55342 7.83571 8.93558
C 7.68836 7.57803 8.28063
C 7.95818 7.75647 6.88037
C 7.86378 6.89486 5.88495
H 6.56376 7.84229 10.0531
H 5.61637 8.12487 8.4551
H 8.50109 7.19412 8.89376
H 8.48317 8.62203 6.67001
H 7.35719 5.93192 6.04644
H 8.22 7.11431 4.8814
10
 Atoms. Timestep: 1560
C 6.53794 7.78784 8.92701
C 7.66497 7.58586 8.31355
C 8.00346 7.73548 6.89548
C 7.84314 6.90113 5.87368
H 6.56958 7.77282 10.0111
H 5.57752 8.07831 8.44556
H 8.63195 7.40025 8.88833
H 8.51649 8.74616 6.72412
H 7.26771 5.97334 5.85456
H 8.26371 7.18729 4.90704
10
 Atoms. Timestep: 1580
C 6.50941 7.73645 8.90463
C 7.73276 7.57878 8.31033
C 8.04369 7.76104 6.91028
C 7.78428 6.93779 5.8835
H 6.41672 7.65665 9.97822
H 5.58486 7.97756 8.38624
H 8.5931 7.57759 8.96771
H 8.61859 8.70616 6.70212
H 7.25013 5.99091 5.87305
H 8.23975 7.22676 4.9292
10
 Atoms. Timestep: 1600
C 6.50529 7.68015 8.9094
C 7.72741 7.62827 8.36717
C 8.08166 7.77357 6.89599
C 7.77153 6.99416 5.83157
H 6.28332 7.54706 9.98391
H 5.66334 7.78732 8.24067
H 8.55666 7.59979 9.06056
H 8.74373 8.54842 6.67712
H 7.24475 6.05977 6.08291
H 8.11689 7.22081 4.81909
10
 Atoms. Timestep: 1620
C 6.47906 7.60876 8.88872
C 7.72941 7.68787 8.37609
C 8.12481 7.78339 6.91055
C 7.75725 7.02447 5.84486
H 6.25624 7.49387 9.95052
H 5.65798 7.60138 8.14202
H 8.62359 7.58921 9.075
H 8.92381 8.58365 6.72999
H 7.15 6.1435 6.0715
H 7.96913 7.18142 4.79872
10
 Atoms. Timestep: 1640
C 6.46191 7.55033 8.88847
C 7.72812 7.69324 8.34482
C 8.17272 7.79688 6.92474
C 7.75893 7.03137 5.86435
H 6.26795 7.46403 9.93515
H 5.59182 7.49316 8.22066
H 8.58108 7.7319 9.0188
H 8.95173 8.59787 6.79604
H 6.98718 6.26097 5.97364
H 8.01414 7.24105 4.81043
10
 Atoms. Timestep: 1660
C 6.47603 7.52033 8.92357
C 7.67083 7.66963 8.33509
C 8.16171 7.77073 6.91054
C 7.79922 7.07159 5.81765
H 6.36473 7.45778 10.0197
H 5.56022 7.4249 8.35904
H 8.4608 7.91885 9.02845
H 8.9133 8.48455 6.777
H 6.93347 6.41045 5.93251
H 8.24474 7.32981 4.85124
10
 Atoms. Timestep: 1680
C 6.47533 7.47114 8.92105
C 7.65646 7.68171 8.31006
C 8.11375 7.74772 6.95119
C 7.79344 7.14056 5.79923
H 6.52731 7.53619 10.0242
H 5.49926 7.29373 8.45032
H 8.45226 8.01265 9.05059
H 9.02508 8.42161 6.82587
H 6.97886 6.41479 5.71242
H 8.40734 7.29428 4.9363
10
 Atoms. Timestep: 1700
C 6.48183 7.42337 8.92034
C 7.64263 7.72544 8.33378
C 8.12187 7.76397 6.95628
C 7.75802 7.17263 5.78928
H 6.49682 7.59102 9.97438
H 5.52736 7.10799 8.48962
H 8.46901 7.97344 8.98954
H 9.09459 8.32341 6.95372
H 7.01441 6.4155 5.50965
H 8.49568 7.29618 4.97402
10
 Atoms. Timestep: 1720
C 6.4789 7.39033 8.94701
C 7.64468 7.74832 8.34205
C 8.14013 7.7507 6.93932
C 7.78378 7.19292 5.77587
H 6.32117 7.52791 10.0318
H 5.63215 6.96536 8.40072
H 8.42048 8.0352 9.0342
H 9.04986 8.25182 6.88999
H 6.91451 6.56952 5.56138
H 8.50087 7.37659 4.9454
10
 Atoms. Timestep: 1740
C 6.49227 7.35275 8.88594
C 7.64824 7.7424 8.35902
C 8.16007 7.73122 6.98628
C 7.7818 7.20763 5.79671
H 6.2477 7.40575 9.95184
H 5.74139 6.89088 8.25561
H 8.3667 8.24729 9.07004
H 9.12826 8.31567 6.82803
H 6.7986 6.75816 5.69483
H 8.34708 7.39829 4.92091
10
 Atoms. Timestep: 1760
C 6.45436 7.28693 8.87159
C 7.67227 7.76918 8.38821
C 8.23226 7.73252 6.98123
C 7.75065 7.24153 5.78903
H 6.21788 7.35575 9.92925
H 5.78651 6.79442 8.13745
H 8.2968 8.38081 9.05523
H 9.19621 8.32255 7.00215
H 6.73136 6.79179 5.76831
H 8.23804 7.39367 4.81621
10
 Atoms. Timestep: 1780
C 6.48557 7.24623 8.89376
C 7.6072 7.77998 8.37918
C 8.27263 7.74557 6.97166
C 7.75102 7.31578 5.77284
H 6.12558 7.35008 9.90112
H 5.81945 6.67636 8.23805
H 8.21339 8.33647 9.06052
H 9.22253 8.17335 7.01269
H 6.80971 6.77472 5.7943
H 8.23477 7.38368 4.77771
10
 Atoms. Timestep: 1800
C 6.49091 7.18481 8.90161
C 7.58077 7.78242 8.30975
C 8.22233 7.74804 6.99263
C 7.77851 7.37988 5.78187
H 6.17252 7.43444 9.93608
H 5.81853 6.51618 8.3735
H 8.19253 8.33663 9.08264
H 9.3133 8.08036 6.95234
H 6.83251 6.85993 5.73801
H 8.35953 7.4216 4.89126
10
 Atoms. Timestep: 1820
C 6.49765 7.14541 8.88768
C 7.55303 7.75395 8.32134
C 8.20341 7.74798 7.00637
C 7.78568 7.39516 5.77513
H 6.38331 7.46773 9.91607
H 5.8302 6.38158 8.46425
H 8.12246 8.44564 8.96429
H 9.27375 8.11629 7.07341
H 6.72604 7.07752 5.53031
H 8.54965 7.47625 4.99755
10
 Atoms. Timestep: 1840
C 6.51873 7.1179 8.9173
C 7.5439 7.76085 8.31393
C 8.18873 7.72185 7.0125
C 7.80268 7.42322 5.75489
H 6.38053 7.34827 9.96889
H 5.90278 6.30541 8.51986
H 7.95509 8.5157 8.93853
H 9.14091 8.08914 7.15682
H 6.8125 7.32556 5.33798
H 8.60796 7.493 4.97515
10
 Atoms. Timestep: 1860
C 6.567 7.0681 8.91034
C 7.48311 7.80898 8.31251
C 8.16279 7.6891 7.02649
C 7.82283 7.48481 5.75686
H 6.23646 7.2334 9.95218
H 6.05415 6.22802 8.47353
H 7.92817 8.59684 8.98422
H 9.28885 7.95733 7.11585
H 6.84522 7.39092 5.34531
H 8.5568 7.50754 4.98069
10
 Atoms. Timestep: 1880
C 6.58107 6.97543 8.86868
C 7.44879 7.88838 8.33038
C 8.20949 7.69522 7.05237
C 7.79068 7.54866 5.76974
H 6.13275 7.22498 9.8499
H 6.27322 6.08301 8.28066
H 7.92177 8.69393 8.93619
H 9.33694 7.68571 7.16452
H 6.693 7.36633 5.5111
H 8.58617 7.51989 5.01957
10
 Atoms. Timestep: 1900
C 6.59732 6.9503 8.83874
C 7.46275 7.87249 8.3261
C 8.24839 7.69609 7.06468
C 7.77784 7.60673 5.79548
H 6.01911 7.07413 9.71989
H 6.49666 6.04939 8.23294
H 7.67218 8.75909 8.89566
H 9.25324 7.61549 7.28528
H 6.70239 7.52168 5.65809
H 8.46263 7.44658 4.94719
10
 Atoms. Timestep: 1920
C 6.6112 6.91295 8.86583
C 7.4395 7.82252 8.32831
C 8.25299 7.69172 7.07305
C 7.82017 7.66994 5.77113
H 5.90878 6.953 9.69063
H 6.59087 5.96071 8.33816
H 7.39584 8.83915 8.81351
H 9.40146 7.66513 7.29736
H 6.77014 7.81767 5.67042
H 8.31376 7.40154 4.84905
10
 Atoms. Timestep: 1940
C 6.63094 6.81499 8.8424
C 7.36804 7.82875 8.30332
C 8.28736 7.68304 7.06939
C 7.82331 7.71872 5.83064
H 5.95591 7.06085 9.7083
H 6.64594 5.76032 8.48327
H 7.31431 8.86937 8.68625
H 9.39374 7.65924 7.20235
H 6.75769 8.10491 5.60895
H 8.39847 7.49238 4.92531
10
 Atoms. Timestep: 1960
C 6.67235 6.78047 8.85236
C 7.31819 7.77816 8.22359
C 8.2622 7.68109 7.10791
C 7.81434 7.8178 5.82298
H 6.06749 7.0945 9.69943
H 6.74653 5.74356 8.5947
H 7.2215 8.75291 8.63795
H 9.27394 7.47977 7.27132
H 6.78545 8.09165 5.57801
H 8.62659 7.71246 5.06657
10
 Atoms. Timestep: 1980
C 6.71727 6.77855 8.88012
C 7.28773 7.7283 8.19477
C 8.1725 7.66073 7.07386
C 7.88518 7.92195 5.8363
H 6.1082 6.97467 9.73835
H 6.83696 5.72623 8.62403
H 7.068 8.74308 8.61114
H 9.19892 7.26123 7.4176
H 6.89265 7.99077 5.51243
H 8.64319 7.98688 5.0752
10
 Atoms. Timestep: 2000
C 6.76109 6.71486 8.84392
C 7.21873 7.78816 8.21559
C 8.16498 7.57755 7.11021
C 7.9197 7.98607 5.85668
H 6.13326 6.86512 9.77031
H 6.93725 5.62958 8.61891
H 6.96845 8.8426 8.47724
H 9.19661 7.24841 7.40151
H 6.8363 8.06172 5.40631
H 8.66519 8.17282 5.05634
10
 Atoms. Timestep: 2020
C 6.77515 6.6833 8.81372
C 7.18251 7.7879 8.19431
C 8.18653 7.57969 7.11842
C 7.89024 7.98574 5.89755
H 6.14498 6.73327 9.69284
H 7.12365 5.71705 8.51154
H 6.87898 8.79775 8.37405
H 9.14766 7.29696 7.38336
H 6.90963 8.31271 5.57872
H 8.71247 8.14251 5.2045
10
 Atoms. Timestep: 2040
C 6.76886 6.65539 8.84472
C 7.18231 7.72234 8.15695
C 8.18071 7.66418 7.14124
C 7.89697 8.02825 5.87405
H 6.04435 6.61091 9.64559
H 7.2675 5.75784 8.45935
H 6.72629 8.70771 8.36446
H 9.21183 7.23655 7.42346
H 6.97036 8.50833 5.74307
H 8.73058 7.97765 5.15131
10
 Atoms. Timestep: 2060
C 6.81277 6.60862 8.79185
C 7.13947 7.72834 8.1832
C 8.21562 7.72034 7.14624
C 7.93855 8.06106 5.92784
H 5.99814 6.57626 9.51834
H 7.27718 5.59998 8.64036
H 6.55387 8.65347 8.34903
H 9.14229 7.1591 7.38183
H 6.98519 8.64589 5.67383
H 8.52893 7.87505 5.03085
10
 Atoms. Timestep: 2080
C 6.83635 6.55153 8.76222
C 7.14714 7.74008 8.18961
C 8.21736 7.72532 7.19561
C 7.94054 8.13315 5.92302
H 5.93311 6.585 9.42473
H 7.34531 5.59573 8.72435
H 6.45191 8.56603 8.29134
H 9.04376 7.0953 7.36131
H 6.99397 8.6527 5.64824
H 8.50757 7.82474 5.01632
10
 Atoms. Timestep: 2100
C 6.82303 6.5661 8.76948
C 7.1716 7.69 8.17931
C 8.17626 7.7289 7.16348
C 7.92336 8.16835 5.94955
H 5.93059 6.48306 9.34841
H 7.47421 5.71662 8.66481
H 6.43785 8.49951 8.20735
H 9.0316 7.0331 7.35839
H 7.03388 8.65113 5.73907
H 8.6503 7.91647 5.20002
10
 Atoms. Timestep: 2120
C 6.83518 6.55709 8.78963
C 7.11442 7.69351 8.1517
C 8.16723 7.65857 7.16714