ITEM: TIMESTEP
0
ITEM: NUMBER OF ATOMS
10
ITEM: BOX BOUNDS pp pp pp
0.0000000000000000e+00 1.5000000000000000e+01
0.0000000000000000e+00 1.5000000000000000e+01
0.0000000000000000e+00 1.5000000000000000e+01
ITEM: ATOMS id type x y z
7 2 8.53322 7.61458 6.23326
8 2 7.68128 6.74909 9.0366
9 2 6.34207 6.0871 6.34665
1 1 8.03294 9.21716 7.49199
2 1 8.02353 7.92282 7.17263
3 1 7.36509 6.91602 7.9886
4 1 6.59396 5.97692 7.3625
6 2 7.57791 9.66165 8.43223
5 2 8.63592 9.89475 6.90938
10 2 6.26052 5.01534 7.83658
ITEM: TIMESTEP
100
ITEM: NUMBER OF ATOMS
10
ITEM: BOX BOUNDS pp pp pp
0.0000000000000000e+00 1.5000000000000000e+01
0.0000000000000000e+00 1.5000000000000000e+01
0.0000000000000000e+00 1.5000000000000000e+01
ITEM: ATOMS id type x y z
7 2 8.71072 7.98137 6.33003
8 2 7.79874 6.54633 8.8629
9 2 6.40887 6.20536 6.09816
1 1 7.80985 9.17954 7.71601
2 1 8.14229 8.00166 7.27689
3 1 7.50935 6.76424 7.82482
4 1 6.65319 6.02125 7.19544
6 2 7.25814 9.31951 8.6258
5 2 8.18732 10.0768 7.15606
10 2 6.07214 5.29056 7.73714
ITEM: TIMESTEP
200
ITEM: NUMBER OF ATOMS
10
ITEM: BOX BOUNDS pp pp pp
0.0000000000000000e+00 1.5000000000000000e+01
0.0000000000000000e+00 1.5000000000000000e+01
0.0000000000000000e+00 1.5000000000000000e+01
ITEM: ATOMS id type x y z
7 2 8.82189 8.00489 6.50234
8 2 7.98384 6.34943 8.6699
9 2 6.3229 6.30991 6.08372
1 1 7.69246 9.19622 7.89531
2 1 8.11074 8.048 7.31177
3 1 7.6058 6.72169 7.73644
4 1 6.70205 6.04643 7.03821
6 2 6.98292 9.23969 8.72595
5 2 8.07583 10.0971 7.5129
10 2 6.27028 5.14498 7.50385
ITEM: TIMESTEP
300
ITEM: NUMBER OF ATOMS
10
ITEM: BOX BOUNDS pp pp pp
0.0000000000000000e+00 1.5000000000000000e+01
0.0000000000000000e+00 1.5000000000000000e+01
0.0000000000000000e+00 1.5000000000000000e+01
ITEM: ATOMS id type x y z
7 2 8.92826 8.15926 6.76878
8 2 8.24253 6.08349 8.39137
9 2 6.11393 6.49705 6.14823
1 1 7.63792 9.19765 7.99458
2 1 8.00372 8.06526 7.40523
3 1 7.64258 6.71201 7.6766
4 1 6.76109 6.03998 6.91942
6 2 6.79586 9.19387 8.71614
5 2 8.09819 10.2266 7.85664
10 2 6.67335 4.97032 7.03282
ITEM: TIMESTEP
400
ITEM: NUMBER OF ATOMS
10
ITEM: BOX BOUNDS pp pp pp
0.0000000000000000e+00 1.5000000000000000e+01
0.0000000000000000e+00 1.5000000000000000e+01
0.0000000000000000e+00 1.5000000000000000e+01
ITEM: ATOMS id type x y z
7 2 9.17129 8.31099 7.15789
8 2 8.53098 6.00493 7.94409
9 2 6.06594 6.77017 6.32009
1 1 7.41203 9.0973 8.08974
2 1 8.18373 8.1325 7.53224
3 1 7.80589 6.68218 7.48
4 1 6.73169 6.11616 6.8759
6 2 6.42902 8.81253 8.48363
5 2 7.67772 10.114 8.15481
10 2 6.44899 5.03851 6.96119
ITEM: TIMESTEP
500
ITEM: NUMBER OF ATOMS
10
ITEM: BOX BOUNDS pp pp pp
0.0000000000000000e+00 1.5000000000000000e+01
0.0000000000000000e+00 1.5000000000000000e+01
0.0000000000000000e+00 1.5000000000000000e+01
ITEM: ATOMS id type x y z
7 2 9.18494 8.39779 7.67261
8 2 8.80528 6.17752 7.32091
9 2 5.7993 6.65265 6.70672
1 1 7.33013 9.11645 8.17049
2 1 8.12637 8.07708 7.76839
3 1 7.87487 6.71839 7.29063
4 1 6.77565 6.0732 6.78224
6 2 6.23895 8.9456 8.19902
5 2 7.73398 10.075 8.50823
10 2 6.71946 5.06077 6.41101
ITEM: TIMESTEP
600
ITEM: NUMBER OF ATOMS
10
ITEM: BOX BOUNDS pp pp pp
0.0000000000000000e+00 1.5000000000000000e+01
0.0000000000000000e+00 1.5000000000000000e+01
0.0000000000000000e+00 1.5000000000000000e+01
ITEM: ATOMS id type x y z
7 2 9.13186 8.2335 7.98554
8 2 8.83613 6.25405 6.98396
9 2 5.83739 6.33654 6.76165
1 1 7.27742 9.08265 8.27422
2 1 8.0413 8.08331 7.8507
3 1 7.86124 6.77937 7.16524
4 1 6.84261 6.07836 6.71064
6 2 6.20885 9.20934 8.18613
5 2 7.81307 9.8941 8.78603
10 2 7.1613 5.15036 6.18087
ITEM: TIMESTEP
700
ITEM: NUMBER OF ATOMS
10
ITEM: BOX BOUNDS pp pp pp
0.0000000000000000e+00 1.5000000000000000e+01
0.0000000000000000e+00 1.5000000000000000e+01
0.0000000000000000e+00 1.5000000000000000e+01
ITEM: ATOMS id type x y z
7 2 9.09659 8.1122 8.32726
8 2 8.93311 6.45572 6.75247
9 2 5.78217 6.32958 6.92369
1 1 7.19447 9.018 8.34886
2 1 8.10264 8.08151 7.92282
3 1 7.94983 6.83893 7.05626
4 1 6.85214 6.10388 6.6491
6 2 6.19052 8.99821 7.93874
5 2 7.48673 9.83326 9.04128
10 2 7.04035 5.23713 6.0433
ITEM: TIMESTEP
800
ITEM: NUMBER OF ATOMS
10
ITEM: BOX BOUNDS pp pp pp
0.0000000000000000e+00 1.5000000000000000e+01
0.0000000000000000e+00 1.5000000000000000e+01
0.0000000000000000e+00 1.5000000000000000e+01
ITEM: ATOMS id type x y z
7 2 8.87583 7.87436 8.78913
8 2 8.84075 6.96779 6.35415
9 2 6.14136 6.15335 7.28836
1 1 7.1678 8.92604 8.39037
2 1 8.03015 7.96752 8.07173
3 1 7.94778 6.98573 6.9431
4 1 6.9824 6.12528 6.57962
6 2 6.25692 9.05457 7.71765
5 2 7.34376 9.67861 9.13885
10 2 6.8966 5.46391 5.69192
ITEM: TIMESTEP
900
ITEM: NUMBER OF ATOMS
10
ITEM: BOX BOUNDS pp pp pp
0.0000000000000000e+00 1.5000000000000000e+01
0.0000000000000000e+00 1.5000000000000000e+01
0.0000000000000000e+00 1.5000000000000000e+01
ITEM: ATOMS id type x y z
7 2 8.57755 7.39639 8.85102
8 2 8.7035 7.56105 6.09248
9 2 6.39376 5.64163 7.13988
1 1 7.13668 8.90599 8.48977
2 1 7.84582 7.79885 8.12753
3 1 7.90667 7.20385 6.81692
4 1 7.14621 6.12147 6.54262
6 2 6.42595 9.4203 7.90478
5 2 7.47804 9.49851 9.37312
10 2 7.33297 5.52118 5.6667
ITEM: TIMESTEP
1000
ITEM: NUMBER OF ATOMS
10
ITEM: BOX BOUNDS pp pp pp
0.0000000000000000e+00 1.5000000000000000e+01
0.0000000000000000e+00 1.5000000000000000e+01
0.0000000000000000e+00 1.5000000000000000e+01
ITEM: ATOMS id type x y z
7 2 8.40146 7.18508 8.92262
8 2 8.21921 7.92616 6.02483
9 2 6.85388 5.46676 7.13174
1 1 7.10584 8.81794 8.57341
2 1 7.84569 7.75965 8.18566
3 1 7.91809 7.26338 6.83497
4 1 7.2851 6.17317 6.41862
6 2 6.53935 9.417 7.79453
5 2 6.96185 9.17477 9.57672
10 2 7.2199 5.96546 5.36258
ITEM: TIMESTEP
1100
ITEM: NUMBER OF ATOMS
10
ITEM: BOX BOUNDS pp pp pp
0.0000000000000000e+00 1.5000000000000000e+01
0.0000000000000000e+00 1.5000000000000000e+01
0.0000000000000000e+00 1.5000000000000000e+01
ITEM: ATOMS id type x y z
7 2 8.17188 6.96435 8.92167
8 2 7.99412 8.20363 6.09467
9 2 7.16745 5.35524 6.95034
1 1 7.08469 8.71235 8.65277
2 1 7.75392 7.70042 8.21773
3 1 7.80754 7.41927 6.785
4 1 7.47329 6.22861 6.34564
6 2 6.70105 9.45167 7.94247
5 2 6.91353 8.82435 9.73579
10 2 7.45935 6.05688 5.23721
ITEM: TIMESTEP
1200
ITEM: NUMBER OF ATOMS
10
ITEM: BOX BOUNDS pp pp pp
0.0000000000000000e+00 1.5000000000000000e+01
0.0000000000000000e+00 1.5000000000000000e+01
0.0000000000000000e+00 1.5000000000000000e+01
ITEM: ATOMS id type x y z
7 2 8.05412 6.76263 8.8383
8 2 7.90771 8.46998 6.18922
9 2 7.42904 5.44025 6.83354
1 1 7.03349 8.6407 8.75027
2 1 7.66445 7.56454 8.2184
3 1 7.68257 7.52227 6.76649
4 1 7.6753 6.30132 6.22513
6 2 6.61248 9.49569 8.2626
5 2 6.97043 8.70713 9.83796
10 2 7.81531 6.17134 5.16563
ITEM: TIMESTEP
1300
ITEM: NUMBER OF ATOMS
10
ITEM: BOX BOUNDS pp pp pp
0.0000000000000000e+00 1.5000000000000000e+01
0.0000000000000000e+00 1.5000000000000000e+01
0.0000000000000000e+00 1.5000000000000000e+01
ITEM: ATOMS id type x y z
7 2 7.82549 6.56543 8.73937
8 2 7.59417 8.56424 6.43788
9 2 8.03755 5.51386 6.63613
1 1 6.93696 8.46402 8.81949
2 1 7.65027 7.55367 8.23745
3 1 7.7721 7.58693 6.81607
4 1 7.78029 6.47211 6.12357
6 2 6.74126 9.43137 8.19579
5 2 6.57655 8.3131 9.86765
10 2 7.51122 6.37157 5.03272
ITEM: TIMESTEP
1400
ITEM: NUMBER OF ATOMS
10
ITEM: BOX BOUNDS pp pp pp
0.0000000000000000e+00 1.5000000000000000e+01
0.0000000000000000e+00 1.5000000000000000e+01
0.0000000000000000e+00 1.5000000000000000e+01
ITEM: ATOMS id type x y z
7 2 8.2884 6.78013 8.73187
8 2 8.01879 8.72821 6.4859
9 2 7.71383 5.67712 6.44749
1 1 6.75397 8.22495 8.89201
2 1 7.62318 7.45041 8.27996
3 1 7.83194 7.69655 6.79731
4 1 7.82626 6.65144 6.002
6 2 6.05694 8.84186 8.45617
5 2 6.72403 8.3137 9.96664
10 2 8.10994 6.73888 4.97326
ITEM: TIMESTEP
1500
ITEM: NUMBER OF ATOMS
10
ITEM: BOX BOUNDS pp pp pp
0.0000000000000000e+00 1.5000000000000000e+01
0.0000000000000000e+00 1.5000000000000000e+01
0.0000000000000000e+00 1.5000000000000000e+01
ITEM: ATOMS id type x y z
10 2 7.98597 6.93358 4.8625
7 2 8.58751 7.04489 8.85442
8 2 8.35054 8.86469 6.54844
9 2 7.49659 5.81704 6.28752
1 1 6.56568 7.92767 8.93213
2 1 7.71498 7.54479 8.30909
3 1 8.0227 7.79124 6.83016
4 1 7.78662 6.81633 5.9473
6 2 5.81771 8.45326 8.25346
5 2 6.34574 7.62637 9.9706
ITEM: TIMESTEP
1600
ITEM: NUMBER OF ATOMS
10
ITEM: BOX BOUNDS pp pp pp
0.0000000000000000e+00 1.5000000000000000e+01
0.0000000000000000e+00 1.5000000000000000e+01
0.0000000000000000e+00 1.5000000000000000e+01
ITEM: ATOMS id type x y z
10 2 8.11689 7.22081 4.81909
7 2 8.55666 7.59979 9.06056
8 2 8.74373 8.54842 6.67712
9 2 7.24475 6.05977 6.08291
1 1 6.50529 7.68015 8.9094
2 1 7.72741 7.62827 8.36717
3 1 8.08166 7.77357 6.89599
4 1 7.77153 6.99416 5.83157
6 2 5.66334 7.78732 8.24067
5 2 6.28332 7.54706 9.98391
ITEM: TIMESTEP
1700
ITEM: NUMBER OF ATOMS
10
ITEM: BOX BOUNDS pp pp pp
0.0000000000000000e+00 1.5000000000000000e+01
0.0000000000000000e+00 1.5000000000000000e+01
0.0000000000000000e+00 1.5000000000000000e+01
ITEM: ATOMS id type x y z
10 2 8.49568 7.29618 4.97402
7 2 8.46901 7.97344 8.98954
8 2 9.09459 8.32341 6.95372
9 2 7.01441 6.4155 5.50965
1 1 6.48183 7.42337 8.92034
2 1 7.64263 7.72544 8.33378
3 1 8.12187 7.76397 6.95628
4 1 7.75802 7.17263 5.78928
6 2 5.52736 7.10799 8.48962
5 2 6.49682 7.59102 9.97438
ITEM: TIMESTEP
1800
ITEM: NUMBER OF ATOMS
10
ITEM: BOX BOUNDS pp pp pp
0.0000000000000000e+00 1.5000000000000000e+01
0.0000000000000000e+00 1.5000000000000000e+01
0.0000000000000000e+00 1.5000000000000000e+01
ITEM: ATOMS id type x y z
10 2 8.35953 7.4216 4.89126
7 2 8.19253 8.33663 9.08264
8 2 9.3133 8.08036 6.95234
9 2 6.83251 6.85993 5.73801
1 1 6.49091 7.18481 8.90161
2 1 7.58077 7.78242 8.30975
3 1 8.22233 7.74804 6.99263
4 1 7.77851 7.37988 5.78187
6 2 5.81853 6.51618 8.3735
5 2 6.17252 7.43444 9.93608
ITEM: TIMESTEP
1900
ITEM: NUMBER OF ATOMS
10
ITEM: BOX BOUNDS pp pp pp
0.0000000000000000e+00 1.5000000000000000e+01
0.0000000000000000e+00 1.5000000000000000e+01
0.0000000000000000e+00 1.5000000000000000e+01
ITEM: ATOMS id type x y z
10 2 8.46263 7.44658 4.94719
7 2 7.67218 8.75909 8.89566
8 2 9.25324 7.61549 7.28528
9 2 6.70239 7.52168 5.65809
1 1 6.59732 6.9503 8.83874
2 1 7.46275 7.87249 8.3261
3 1 8.24839 7.69609 7.06468
4 1 7.77784 7.60673 5.79548
6 2 6.49666 6.04939 8.23294
5 2 6.01911 7.07413 9.71989
ITEM: TIMESTEP
2000
ITEM: NUMBER OF ATOMS
10
ITEM: BOX BOUNDS pp pp pp
0.0000000000000000e+00 1.5000000000000000e+01
0.0000000000000000e+00 1.5000000000000000e+01
0.0000000000000000e+00 1.5000000000000000e+01
ITEM: ATOMS id type x y z
10 2 8.66519 8.17282 5.05634
7 2 6.96845 8.8426 8.47724
8 2 9.19661 7.24841 7.40151
9 2 6.8363 8.06172 5.40631
1 1 6.76109 6.71486 8.84392
2 1 7.21873 7.78816 8.21559
3 1 8.16498 7.57755 7.11021
4 1 7.9197 7.98607 5.85668
6 2 6.93725 5.62958 8.61891
5 2 6.13326 6.86512 9.77031
ITEM: TIMESTEP
2100
ITEM: NUMBER OF ATOMS
10
ITEM: BOX BOUNDS pp pp pp
0.0000000000000000e+00 1.5000000000000000e+01
0.0000000000000000e+00 1.5000000000000000e+01
0.0000000000000000e+00 1.5000000000000000e+01
ITEM: ATOMS id type x y z
7 2 6.43785 8.49951 8.20735
8 2 9.0316 7.0331 7.35839
9 2 7.03388 8.65113 5.73907
1 1 6.82303 6.5661 8.76948
2 1 7.1716 7.69 8.17931
3 1 8.17626 7.7289 7.16348
4 1 7.92336 8.16835 5.94955
6 2 7.47421 5.71662 8.66481
5 2 5.93059 6.48306 9.34841
10 2 8.6503 7.91647 5.20002
ITEM: TIMESTEP
2200
ITEM: NUMBER OF ATOMS
10
ITEM: BOX BOUNDS pp pp pp
0.0000000000000000e+00 1.5000000000000000e+01
0.0000000000000000e+00 1.5000000000000000e+01
0.0000000000000000e+00 1.5000000000000000e+01
ITEM: ATOMS id type x y z
7 2 6.27393 8.385 7.9678
8 2 9.07519 7.11676 7.27446
9 2 7.0869 8.94653 5.74382
1 1 6.89854 6.47893 8.76543
2 1 6.99498 7.56961 8.03131
3 1 8.16254 7.6645 7.18322
4 1 7.98327 8.34908 6.0757
6 2 7.58171 5.60809 8.71114
5 2 6.09356 6.3737 9.5408
10 2 8.77676 8.41723 5.31703
ITEM: TIMESTEP
2300
ITEM: NUMBER OF ATOMS
10
ITEM: BOX BOUNDS pp pp pp
0.0000000000000000e+00 1.5000000000000000e+01
0.0000000000000000e+00 1.5000000000000000e+01
0.0000000000000000e+00 1.5000000000000000e+01
ITEM: ATOMS id type x y z
7 2 6.14838 8.19026 8.01194
8 2 9.1459 7.27418 7.45755
9 2 7.01941 8.97102 5.81548
1 1 6.89211 6.35398 8.665
2 1 6.98952 7.49768 8.00093
3 1 8.16491 7.77461 7.2551
4 1 7.97966 8.46856 6.12684
6 2 7.68046 5.58974 8.52208
5 2 6.10158 6.06159 9.32707
10 2 8.87105 8.5643 5.46763
ITEM: TIMESTEP
2400
ITEM: NUMBER OF ATOMS
10
ITEM: BOX BOUNDS pp pp pp
0.0000000000000000e+00 1.5000000000000000e+01
0.0000000000000000e+00 1.5000000000000000e+01
0.0000000000000000e+00 1.5000000000000000e+01
ITEM: ATOMS id type x y z
7 2 6.1654 8.17006 8.23099
8 2 9.14933 7.82076 7.73925
9 2 6.99968 8.53987 5.847
1 1 6.90864 6.15081 8.38375
2 1 7.02592 7.46295 8.16651
3 1 8.13783 8.00235 7.38655
4 1 7.98928 8.49741 6.18157
6 2 7.71952 5.50045 8.10639
5 2 5.91161 5.78278 8.73937
10 2 8.80837 8.72492 5.51567
ITEM: TIMESTEP
2500
ITEM: NUMBER OF ATOMS
10
ITEM: BOX BOUNDS pp pp pp
0.0000000000000000e+00 1.5000000000000000e+01
0.0000000000000000e+00 1.5000000000000000e+01
0.0000000000000000e+00 1.5000000000000000e+01
ITEM: ATOMS id type x y z
7 2 6.31598 7.97091 8.78377
8 2 8.86674 8.33904 8.22981
9 2 7.30295 8.32537 5.37413
1 1 6.90867 6.03548 8.18753
2 1 6.96895 7.36089 8.18534
3 1 8.12642 8.07286 7.4487
4 1 8.02211 8.59623 6.2235
6 2 7.56352 5.33669 7.54594
5 2 6.19775 5.47379 8.77662
10 2 8.72021 9.38139 5.90832
ITEM: TIMESTEP
2600
ITEM: NUMBER OF ATOMS
10
ITEM: BOX BOUNDS pp pp pp
0.0000000000000000e+00 1.5000000000000000e+01
0.0000000000000000e+00 1.5000000000000000e+01
0.0000000000000000e+00 1.5000000000000000e+01
ITEM: ATOMS id type x y z
7 2 6.60903 7.65316 9.1399
8 2 8.4744 8.91026 8.23924
9 2 7.58805 7.97101 5.58513
1 1 6.90416 5.94042 7.96107
2 1 7.07087 7.25099 8.23222
3 1 7.94044 8.2434 7.58818
4 1 8.1091 8.61023 6.2754
6 2 7.38514 5.60961 7.08219
5 2 6.26016 5.29078 8.53464
10 2 8.65979 9.51494 5.96672
ITEM: TIMESTEP
2700
ITEM: NUMBER OF ATOMS
10
ITEM: BOX BOUNDS pp pp pp
0.0000000000000000e+00 1.5000000000000000e+01
0.0000000000000000e+00 1.5000000000000000e+01
0.0000000000000000e+00 1.5000000000000000e+01
ITEM: ATOMS id type x y z
7 2 6.947 7.39712 9.29661
8 2 7.9976 9.11711 8.44557
9 2 7.96506 7.93087 5.57191
1 1 6.91074 5.89255 7.82405
2 1 7.17328 7.17151 8.21584
3 1 7.77382 8.39052 7.63073
4 1 8.15032 8.63392 6.36705
6 2 7.08988 5.54294 6.79521
5 2 6.45851 5.12842 8.46901
10 2 8.61693 9.57252 6.08462
ITEM: TIMESTEP
2800
ITEM: NUMBER OF ATOMS
10
ITEM: BOX BOUNDS pp pp pp
0.0000000000000000e+00 1.5000000000000000e+01
0.0000000000000000e+00 1.5000000000000000e+01
0.0000000000000000e+00 1.5000000000000000e+01
ITEM: ATOMS id type x y z
7 2 7.25189 7.13112 9.30917
8 2 7.4123 9.13628 8.31062
9 2 8.50214 8.14865 5.57004
1 1 6.90333 5.86965 7.72408
2 1 7.29052 7.0834 8.23885
3 1 7.6093 8.32543 7.59815
4 1 8.22246 8.76204 6.47613
6 2 6.85635 5.56995 6.64387
5 2 6.50464 5.17708 8.46483
10 2 8.44303 9.81386 6.36724
ITEM: TIMESTEP
2900
ITEM: NUMBER OF ATOMS
10
ITEM: BOX BOUNDS pp pp pp
0.0000000000000000e+00 1.5000000000000000e+01
0.0000000000000000e+00 1.5000000000000000e+01
0.0000000000000000e+00 1.5000000000000000e+01
ITEM: ATOMS id type x y z
7 2 7.73454 6.85279 9.22949
8 2 6.75519 9.08886 8.05262
9 2 8.87838 8.11601 6.15574
1 1 6.90777 5.89935 7.60617
2 1 7.40114 6.96074 8.1897
3 1 7.43802 8.37707 7.60838
4 1 8.26571 8.82308 6.66669
6 2 6.52126 5.99969 6.61661
5 2 6.884 4.93054 8.08416
10 2 8.27477 9.87068 6.32467
ITEM: TIMESTEP
3000
ITEM: NUMBER OF ATOMS
10
ITEM: BOX BOUNDS pp pp pp
0.0000000000000000e+00 1.5000000000000000e+01
0.0000000000000000e+00 1.5000000000000000e+01
0.0000000000000000e+00 1.5000000000000000e+01
ITEM: ATOMS id type x y z
7 2 8.28439 6.82491 8.94326
8 2 6.21359 8.7131 7.59834
9 2 9.25758 8.41348 6.6974
1 1 6.88307 5.87615 7.51396
2 1 7.55168 6.91369 8.08821
3 1 7.28862 8.33328 7.63557
4 1 8.27817 8.95285 6.9051
6 2 6.2166 6.08728 6.63317
5 2 7.01818 4.79955 7.73432
10 2 8.12442 9.92588 6.42555
ITEM: TIMESTEP
3100
ITEM: NUMBER OF ATOMS
10
ITEM: BOX BOUNDS pp pp pp
0.0000000000000000e+00 1.5000000000000000e+01
0.0000000000000000e+00 1.5000000000000000e+01
0.0000000000000000e+00 1.5000000000000000e+01
ITEM: ATOMS id type x y z
5 2 7.08889 4.87544 7.90357
7 2 8.4954 6.77057 8.46752
8 2 6.20508 8.43499 7.39184
9 2 9.18707 8.67804 7.24422
1 1 6.91172 5.8562 7.42736
2 1 7.62752 6.8931 7.87115
3 1 7.24388 8.25056 7.52491
4 1 8.2153 9.04942 7.20197
6 2 6.11496 6.0543 6.73204
10 2 8.04211 10.1109 6.99745
ITEM: TIMESTEP
3200
ITEM: NUMBER OF ATOMS
10
ITEM: BOX BOUNDS pp pp pp
0.0000000000000000e+00 1.5000000000000000e+01
0.0000000000000000e+00 1.5000000000000000e+01
0.0000000000000000e+00 1.5000000000000000e+01
ITEM: ATOMS id type x y z
5 2 7.20774 4.8506 7.39855
7 2 8.72503 6.62946 8.16187
8 2 6.20759 8.28822 7.11371
9 2 9.20068 8.98542 7.76309
1 1 6.96075 5.89569 7.32267
2 1 7.66631 6.82617 7.81727
3 1 7.2352 8.19439 7.52452
4 1 8.1204 9.14199 7.43356
6 2 5.94988 6.00579 6.87936
10 2 7.93713 10.1111 6.98427
ITEM: TIMESTEP
3300
ITEM: NUMBER OF ATOMS
10
ITEM: BOX BOUNDS pp pp pp
0.0000000000000000e+00 1.5000000000000000e+01
0.0000000000000000e+00 1.5000000000000000e+01
0.0000000000000000e+00 1.5000000000000000e+01
ITEM: ATOMS id type x y z
5 2 7.46656 4.8578 7.23358
7 2 8.54882 6.61001 8.38213
8 2 6.13022 8.34263 7.40974
9 2 9.14116 9.03962 7.5509
1 1 7.03914 5.8656 7.1022
2 1 7.65892 6.82448 7.83691
3 1 7.19248 8.17658 7.58802
4 1 8.09342 9.15693 7.54963
6 2 6.18633 6.03077 6.48694
10 2 7.74721 10.1976 7.3652
ITEM: TIMESTEP
3400
ITEM: NUMBER OF ATOMS
10
ITEM: BOX BOUNDS pp pp pp
0.0000000000000000e+00 1.5000000000000000e+01
0.0000000000000000e+00 1.5000000000000000e+01
0.0000000000000000e+00 1.5000000000000000e+01
ITEM: ATOMS id type x y z
5 2 7.70747 4.86804 6.94997
7 2 8.29666 6.52981 8.59808
8 2 6.09758 8.39351 7.84184
9 2 9.06631 8.95547 7.34945
1 1 7.23814 5.88805 6.91048
2 1 7.5561 6.80849 7.78648
3 1 7.16362 8.18022 7.7288
4 1 8.01359 9.15717 7.63928
6 2 6.53695 6.1106 6.01522
10 2 7.59032 10.1589 7.74417
ITEM: TIMESTEP
3500
ITEM: NUMBER OF ATOMS
10
ITEM: BOX BOUNDS pp pp pp
0.0000000000000000e+00 1.5000000000000000e+01
0.0000000000000000e+00 1.5000000000000000e+01
0.0000000000000000e+00 1.5000000000000000e+01
ITEM: ATOMS id type x y z
5 2 7.88266 5.06906 6.47907
7 2 7.69649 6.10777 8.72593
8 2 6.09941 8.41097 8.37054
9 2 8.92011 9.13047 7.30687
1 1 7.46766 6.01559 6.63561
2 1 7.47639 6.64469 7.80723
3 1 7.11129 8.12913 8.03355
4 1 7.90226 9.17758 7.64471
6 2 7.23941 6.51126 5.73528
10 2 7.54026 10.1885 7.54467
ITEM: TIMESTEP
3600
ITEM: NUMBER OF ATOMS
10
ITEM: BOX BOUNDS pp pp pp
0.0000000000000000e+00 1.5000000000000000e+01
0.0000000000000000e+00 1.5000000000000000e+01
0.0000000000000000e+00 1.5000000000000000e+01
ITEM: ATOMS id type x y z
5 2 7.67242 4.97294 6.56623
7 2 7.14176 5.96378 8.42401
8 2 6.42957 8.14441 8.91225
9 2 8.51953 9.26093 6.95453
1 1 7.71869 6.07208 6.5054
2 1 7.32666 6.71661 7.65577
3 1 7.15827 8.04424 8.11179
4 1 7.75599 9.21858 7.75555
6 2 8.10695 6.44363 5.53357
10 2 7.4961 10.1253 8.32734
ITEM: TIMESTEP
3700
ITEM: NUMBER OF ATOMS
10
ITEM: BOX BOUNDS pp pp pp
0.0000000000000000e+00 1.5000000000000000e+01
0.0000000000000000e+00 1.5000000000000000e+01
0.0000000000000000e+00 1.5000000000000000e+01
ITEM: ATOMS id type x y z
5 2 7.61799 5.08848 6.15611
7 2 6.71477 5.88933 8.2002
8 2 6.61335 7.99839 9.07199
9 2 8.21488 9.55573 6.9332
1 1 7.84696 6.12096 6.47971
2 1 7.26044 6.63147 7.57521
3 1 7.22173 8.01359 8.15245
4 1 7.64128 9.2214 7.81639
6 2 8.64506 6.71532 5.88476
10 2 7.4955 10.0482 8.50016
ITEM: TIMESTEP
3800
ITEM: NUMBER OF ATOMS
10
ITEM: BOX BOUNDS pp pp pp
0.0000000000000000e+00 1.5000000000000000e+01
0.0000000000000000e+00 1.5000000000000000e+01
0.0000000000000000e+00 1.5000000000000000e+01
ITEM: ATOMS id type x y z
5 2 7.81537 5.32631 5.85644
7 2 6.33354 6.00039 7.75261
8 2 6.99325 7.74922 9.31518
9 2 7.70699 9.38505 6.85374
1 1 8.01501 6.2083 6.43582
2 1 7.16468 6.63075 7.43211
3 1 7.22122 7.93576 8.25577
4 1 7.54457 9.22849 7.89278
6 2 8.88589 6.75498 6.35211
10 2 7.7161 9.98416 8.66006
ITEM: TIMESTEP
3900
ITEM: NUMBER OF ATOMS
10
ITEM: BOX BOUNDS pp pp pp
0.0000000000000000e+00 1.5000000000000000e+01
0.0000000000000000e+00 1.5000000000000000e+01
0.0000000000000000e+00 1.5000000000000000e+01
ITEM: ATOMS id type x y z
5 2 7.85584 5.29044 5.96836
7 2 6.13223 6.48544 7.12408
8 2 7.49938 7.33568 9.26916
9 2 7.1912 9.57026 7.05613
1 1 8.09345 6.23559 6.46145
2 1 7.18707 6.82148 7.17062
3 1 7.37331 7.83931 8.28554
4 1 7.3218 9.14396 8.08204
6 2 9.19479 6.43063 6.551
10 2 7.39683 9.86551 8.9224
ITEM: TIMESTEP
4000
ITEM: NUMBER OF ATOMS
10
ITEM: BOX BOUNDS pp pp pp
0.0000000000000000e+00 1.5000000000000000e+01
0.0000000000000000e+00 1.5000000000000000e+01
0.0000000000000000e+00 1.5000000000000000e+01
ITEM: ATOMS id type x y z
5 2 8.08899 5.50226 5.65592
7 2 6.1763 6.77966 6.64461
8 2 7.80477 7.26194 9.13871
9 2 6.81781 9.46366 7.34405
1 1 8.21485 6.31408 6.44897
2 1 7.17346 6.94381 7.03881
3 1 7.39767 7.72188 8.26254
4 1 7.15202 9.03054 8.27566
6 2 9.24354 6.40539 6.89349
10 2 7.36461 9.74522 9.05634
ITEM: TIMESTEP
4100
ITEM: NUMBER OF ATOMS
10
ITEM: BOX BOUNDS pp pp pp
0.0000000000000000e+00 1.5000000000000000e+01
0.0000000000000000e+00 1.5000000000000000e+01
0.0000000000000000e+00 1.5000000000000000e+01
ITEM: ATOMS id type x y z
5 2 8.42009 6.11088 5.42097
7 2 6.38061 7.35933 6.26625
8 2 8.1845 7.10679 8.91784
9 2 6.33353 9.32349 7.59525
1 1 8.31145 6.41405 6.45156
2 1 7.23793 7.08219 6.92722
3 1 7.40941 7.60213 8.24434
4 1 6.96025 8.86266 8.41261
6 2 9.02072 6.07447 7.17876
10 2 7.27025 9.47885 9.29553
ITEM: TIMESTEP
4200
ITEM: NUMBER OF ATOMS
10
ITEM: BOX BOUNDS pp pp pp
0.0000000000000000e+00 1.5000000000000000e+01
0.0000000000000000e+00 1.5000000000000000e+01
0.0000000000000000e+00 1.5000000000000000e+01
ITEM: ATOMS id type x y z
5 2 8.50854 6.16489 5.37736
7 2 6.47099 7.55125 6.32131
8 2 7.86529 6.83528 8.87862
9 2 6.58997 9.44622 7.85108
1 1 8.37142 6.53617 6.3631
2 1 7.40015 7.24328 6.82587
3 1 7.411 7.55701 8.21492
4 1 6.82107 8.66499 8.57771
6 2 9.19894 6.25222 7.02434
10 2 6.46847 8.9614 9.54676
ITEM: TIMESTEP
4300
ITEM: NUMBER OF ATOMS
10
ITEM: BOX BOUNDS pp pp pp
0.0000000000000000e+00 1.5000000000000000e+01
0.0000000000000000e+00 1.5000000000000000e+01
0.0000000000000000e+00 1.5000000000000000e+01
ITEM: ATOMS id type x y z
5 2 8.9161 6.93115 5.27774
7 2 6.74144 7.75222 6.10263
8 2 7.67441 6.67786 8.9127
9 2 6.42153 9.28883 7.93922
1 1 8.52565 6.74743 6.32996
2 1 7.35005 7.21813 6.80556
3 1 7.1816 7.37205 8.222
4 1 6.8048 8.56997 8.63888
6 2 9.25932 6.26063 6.99617
10 2 6.93862 8.86384 9.68218
ITEM: TIMESTEP
4400
ITEM: NUMBER OF ATOMS
10
ITEM: BOX BOUNDS pp pp pp
0.0000000000000000e+00 1.5000000000000000e+01
0.0000000000000000e+00 1.5000000000000000e+01
0.0000000000000000e+00 1.5000000000000000e+01
ITEM: ATOMS id type x y z
5 2 8.68073 6.74218 5.27958
7 2 6.65449 7.64442 6.03117
8 2 7.2219 6.3882 8.73071
9 2 6.62272 9.45159 8.24696
1 1 8.61499 6.86563 6.32825
2 1 7.44803 7.32994 6.75115
3 1 7.17408 7.33234 8.12936
4 1 6.75073 8.44573 8.76048
6 2 9.49062 6.71163 6.94815
10 2 6.52659 8.44013 9.83699
ITEM: TIMESTEP
4500
ITEM: NUMBER OF ATOMS
10
ITEM: BOX BOUNDS pp pp pp
0.0000000000000000e+00 1.5000000000000000e+01
0.0000000000000000e+00 1.5000000000000000e+01
0.0000000000000000e+00 1.5000000000000000e+01
ITEM: ATOMS id type x y z
5 2 8.94262 7.15667 5.24479
7 2 6.77068 7.67094 5.97445
8 2 6.97493 6.27578 8.50183
9 2 6.78661 9.31555 8.42915
1 1 8.67535 7.05074 6.31804
2 1 7.45802 7.32027 6.74829
3 1 7.04182 7.25348 8.12136
4 1 6.75466 8.31889 8.8025
6 2 9.55848 6.88025 6.91333
10 2 6.51165 8.26048 9.88427
ITEM: TIMESTEP
4600
ITEM: NUMBER OF ATOMS
10
ITEM: BOX BOUNDS pp pp pp
0.0000000000000000e+00 1.5000000000000000e+01
0.0000000000000000e+00 1.5000000000000000e+01
0.0000000000000000e+00 1.5000000000000000e+01
ITEM: ATOMS id type x y z
5 2 9.12786 7.71649 5.3964
7 2 6.8067 7.50199 5.80876
8 2 6.49359 6.17372 8.44318
9 2 7.06871 9.18676 8.67456
1 1 8.80008 7.31527 6.34722
2 1 7.43825 7.30015 6.63582
3 1 6.87714 7.16757 7.98525
4 1 6.81611 8.14181 8.94196
6 2 9.5433 7.15829 7.18716
10 2 6.49435 7.93394 9.91741
ITEM: TIMESTEP
4700
ITEM: NUMBER OF ATOMS
10
ITEM: BOX BOUNDS pp pp pp
0.0000000000000000e+00 1.5000000000000000e+01
0.0000000000000000e+00 1.5000000000000000e+01
0.0000000000000000e+00 1.5000000000000000e+01
ITEM: ATOMS id type x y z
5 2 9.22467 7.56697 5.31072
7 2 6.88576 7.15439 5.74703
8 2 6.04347 6.39941 7.85682
9 2 7.37548 8.70724 9.47771
1 1 8.82346 7.61365 6.33792
2 1 7.57167 7.30869 6.6204
3 1 6.7935 7.2048 7.89845
4 1 6.82523 7.85543 9.09682
6 2 9.56492 7.91546 7.03284
10 2 5.94655 7.58112 9.74237
ITEM: TIMESTEP
4800
ITEM: NUMBER OF ATOMS
10
ITEM: BOX BOUNDS pp pp pp
0.0000000000000000e+00 1.5000000000000000e+01
0.0000000000000000e+00 1.5000000000000000e+01
0.0000000000000000e+00 1.5000000000000000e+01
ITEM: ATOMS id type x y z
5 2 9.27202 7.61052 5.42499
7 2 7.10153 7.03012 5.66376
8 2 5.79761 6.69625 7.59183
9 2 7.73943 8.1019 9.47182
1 1 8.84009 7.88327 6.39959
2 1 7.62582 7.33893 6.60552
3 1 6.69291 7.19856 7.82806
4 1 6.8215 7.54762 9.13546
6 2 9.40919 8.47914 7.13134
10 2 5.92231 7.49182 9.79347
ITEM: TIMESTEP
4900
ITEM: NUMBER OF ATOMS
10
ITEM: BOX BOUNDS pp pp pp
0.0000000000000000e+00 1.5000000000000000e+01
0.0000000000000000e+00 1.5000000000000000e+01
0.0000000000000000e+00 1.5000000000000000e+01
ITEM: ATOMS id type x y z
5 2 9.42873 7.91758 5.58961
7 2 7.3288 6.80918 5.73993
8 2 5.62391 7.12607 7.33295
9 2 7.84265 7.49403 9.47982
1 1 8.80702 8.06259 6.45821
2 1 7.65088 7.34845 6.61708
3 1 6.68409 7.20434 7.77415
4 1 6.83104 7.33124 9.10246
6 2 9.04813 8.79404 7.24907
10 2 6.01361 7.39938 9.78622
ITEM: TIMESTEP
5000
ITEM: NUMBER OF ATOMS
10
ITEM: BOX BOUNDS pp pp pp
0.0000000000000000e+00 1.5000000000000000e+01
0.0000000000000000e+00 1.5000000000000000e+01
0.0000000000000000e+00 1.5000000000000000e+01
ITEM: ATOMS id type x y z
5 2 9.41 8.18548 5.6173
7 2 7.53339 6.48182 6.0166
8 2 5.73771 7.62115 7.27939
9 2 7.73454 6.93369 9.55422
1 1 8.72155 8.20724 6.48535
2 1 7.73642 7.34882 6.69954
3 1 6.72048 7.35053 7.73335
4 1 6.81099 7.0833 9.03898
6 2 8.87182 9.10697 7.0387
10 2 5.89994 6.9515 9.63948
ITEM: TIMESTEP
5100
ITEM: NUMBER OF ATOMS
10
ITEM: BOX BOUNDS pp pp pp
0.0000000000000000e+00 1.5000000000000000e+01
0.0000000000000000e+00 1.5000000000000000e+01
0.0000000000000000e+00 1.5000000000000000e+01
ITEM: ATOMS id type x y z
5 2 9.34182 8.33839 5.71199
7 2 7.89401 6.51181 6.00028
8 2 5.76965 7.81328 7.47489
9 2 7.75609 6.49561 9.38766
1 1 8.66515 8.34321 6.54023
2 1 7.80271 7.32584 6.72308
3 1 6.73429 7.43478 7.69734
4 1 6.77965 6.89595 8.96117
6 2 8.58649 9.25564 7.17268
10 2 5.88509 6.80657 9.61056
ITEM: TIMESTEP
5200
ITEM: NUMBER OF ATOMS
10
ITEM: BOX BOUNDS pp pp pp
0.0000000000000000e+00 1.5000000000000000e+01
0.0000000000000000e+00 1.5000000000000000e+01
0.0000000000000000e+00 1.5000000000000000e+01
ITEM: ATOMS id type x y z
5 2 9.55804 8.62036 6.0246
7 2 7.9539 6.63844 5.95934
8 2 5.65316 7.77632 7.3774
9 2 7.82481 6.41841 9.10937
1 1 8.68455 8.45362 6.68917
2 1 7.77764 7.4433 6.65318
3 1 6.63026 7.32345 7.69106
4 1 6.82024 6.75566 8.86547
6 2 8.56104 9.28153 7.38743
10 2 6.09688 6.62877 9.63761
ITEM: TIMESTEP
5300
ITEM: NUMBER OF ATOMS
10
ITEM: BOX BOUNDS pp pp pp
0.0000000000000000e+00 1.5000000000000000e+01
0.0000000000000000e+00 1.5000000000000000e+01
0.0000000000000000e+00 1.5000000000000000e+01
ITEM: ATOMS id type x y z
5 2 9.16201 9.02678 5.8936
7 2 7.49189 7.25498 5.71185
8 2 5.71829 7.19177 7.07885
9 2 7.72235 6.48608 9.34738
1 1 8.74517 8.60597 6.82985
2 1 7.74783 7.68747 6.70564
3 1 6.73158 7.09354 7.57813
4 1 6.79456 6.61365 8.83134
6 2 9.0021 9.05586 7.8365
10 2 5.91245 6.20073 9.35106
ITEM: TIMESTEP
5400
ITEM: NUMBER OF ATOMS
10
ITEM: BOX BOUNDS pp pp pp
0.0000000000000000e+00 1.5000000000000000e+01
0.0000000000000000e+00 1.5000000000000000e+01
0.0000000000000000e+00 1.5000000000000000e+01
ITEM: ATOMS id type x y z
5 2 9.1415 9.19263 6.2009
7 2 7.3235 7.9279 5.69929
8 2 6.01842 6.6096 6.89047
9 2 7.65257 6.74114 9.44747
1 1 8.70867 8.64616 6.97289
2 1 7.66213 7.88975 6.72503
3 1 6.78292 7.00139 7.51267
4 1 6.81128 6.49782 8.75161
6 2 9.17518 8.71525 7.91927
10 2 6.02282 5.82269 8.95844
ITEM: TIMESTEP
5500
ITEM: NUMBER OF ATOMS
10
ITEM: BOX BOUNDS pp pp pp
0.0000000000000000e+00 1.5000000000000000e+01
0.0000000000000000e+00 1.5000000000000000e+01
0.0000000000000000e+00 1.5000000000000000e+01
ITEM: ATOMS id type x y z
5 2 9.22767 9.52323 6.50693
7 2 7.02882 8.40909 5.82922
8 2 6.32688 6.25857 6.6344
9 2 7.43048 6.82826 9.45097
1 1 8.70671 8.70431 7.09344
2 1 7.55568 8.03916 6.74458
3 1 6.84166 6.91143 7.37869
4 1 6.83507 6.39562 8.67994
6 2 9.24759 8.36053 7.98628
10 2 6.22785 5.53722 9.10126
ITEM: TIMESTEP
5600
ITEM: NUMBER OF ATOMS
10
ITEM: BOX BOUNDS pp pp pp
0.0000000000000000e+00 1.5000000000000000e+01
0.0000000000000000e+00 1.5000000000000000e+01
0.0000000000000000e+00 1.5000000000000000e+01
ITEM: ATOMS id type x y z
5 2 8.85088 9.68411 6.69573
7 2 6.80381 8.7531 6.33432
8 2 6.79005 6.12141 6.4696
9 2 7.04323 6.91738 9.41927
1 1 8.68116 8.73285 7.14784
2 1 7.48084 8.14943 6.93438
3 1 7.02781 6.79104 7.32808
4 1 6.77746 6.33465 8.53473
6 2 9.54398 8.25484 7.62699
10 2 6.28847 5.44132 8.67289
ITEM: TIMESTEP
5700
ITEM: NUMBER OF ATOMS
10
ITEM: BOX BOUNDS pp pp pp
0.0000000000000000e+00 1.5000000000000000e+01
0.0000000000000000e+00 1.5000000000000000e+01
0.0000000000000000e+00 1.5000000000000000e+01
ITEM: ATOMS id type x y z
5 2 8.79963 9.8322 6.86286
7 2 6.64699 8.90966 6.7603
8 2 7.30198 6.15435 6.43572
9 2 6.60867 6.74438 9.37489
1 1 8.65576 8.79016 7.1708
2 1 7.43912 8.24777 7.08934
3 1 7.12305 6.80236 7.27525
4 1 6.72887 6.21172 8.40063
6 2 9.53344 8.19884 7.44524
10 2 6.55248 5.06852 8.39392
ITEM: TIMESTEP
5800
ITEM: NUMBER OF ATOMS
10
ITEM: BOX BOUNDS pp pp pp
0.0000000000000000e+00 1.5000000000000000e+01
0.0000000000000000e+00 1.5000000000000000e+01
0.0000000000000000e+00 1.5000000000000000e+01
ITEM: ATOMS id type x y z
5 2 8.61795 9.95766 7.60672