LAMMPS (2 Aug 2023 - Update 2)
#13 Butadiene
units           metal
boundary        p p p
atom_style      atomic

neighbor        2.0 bin
neigh_modify    delay 0 every 1 check yes

read_data       restart.lmp
Reading data file ...
  orthogonal box = (0 0 0) to (15 15 15)
  1 by 1 by 3 MPI processor grid
  reading atoms ...
  10 atoms
  reading velocities ...
  10 velocities
  read_data CPU = 0.001 seconds
mass            1 12.0
mass            2 2

variable        sysvol          equal vol
variable        sysmass         equal mass(all)/6.0221367e+23
variable        sysdensity      equal v_sysmass/v_sysvol/1.0e-24
variable	out_freq 	equal 100

pair_style      deepmd ../files/frozen_model_1_compressed.pb ../files/frozen_model_2_compressed.pb ../files/frozen_model_3_compressed.pb ../files/frozen_model_3_compressed.pb out_file md.out out_freq 10 atomic relative 1.0
Summary of lammps deepmd module ...
  >>> Info of deepmd-kit:
  installed to:       /rs1/researchers/w/wjpfaend/rahul/MLP/DeePMD-kit/deepmd_cpu
  source:             v2.2.8-dirty
  source branch:      master
  source commit:      b875ea8
  source commit at:   2024-01-22 22:28:58 -0500
  support model ver.: 1.1 
  build variant:      cpu
  build with tf inc:  /rs1/researchers/w/wjpfaend/rahul/MLP/DeePMD-kit/tensorflow/lib/python3.11/site-packages/tensorflow/include;/rs1/researchers/w/wjpfaend/rahul/MLP/DeePMD-kit/tensorflow/lib/python3.11/site-packages/tensorflow/include
  build with tf lib:  /rs1/researchers/w/wjpfaend/rahul/MLP/DeePMD-kit/tensorflow/lib/python3.11/site-packages/tensorflow/libtensorflow_cc.so.2
  set tf intra_op_parallelism_threads: 0
  set tf inter_op_parallelism_threads: 0
  >>> Info of lammps module:
  use deepmd-kit at:  /rs1/researchers/w/wjpfaend/rahul/MLP/DeePMD-kit/deepmd_cpu
  source:             v2.2.8-dirty
  source branch:      master
  source commit:      b875ea8
  source commit at:   2024-01-22 22:28:58 -0500
  build float prec:   double
  build with tf inc:  /rs1/researchers/w/wjpfaend/rahul/MLP/DeePMD-kit/tensorflow/lib/python3.11/site-packages/tensorflow/include;/rs1/researchers/w/wjpfaend/rahul/MLP/DeePMD-kit/tensorflow/lib/python3.11/site-packages/tensorflow/include
  build with tf lib:  /rs1/researchers/w/wjpfaend/rahul/MLP/DeePMD-kit/tensorflow/lib/python3.11/site-packages/tensorflow/libtensorflow_cc.so.2
pair_coeff	* *

#
velocity        all create 300.0 2345678 rot no dist gaussian
fix             1 all nvt temp 300.0 300.0 0.05
fix             2 all plumed plumedfile plumed.dat outfile PLUMED.log

timestep        0.0005
thermo_style    custom step pe ke etotal v_sysdensity temp press vol
thermo          10

dump            10 all custom 100 btd.dump id type x y z
dump		101 all xyz 20 btd.xyz
dump_modify	101 element C H

fix		extra all print 20 "$(step), $(ke), $(pe), $(etotal), $(temp), $(press), $(vol)" file logfile screen no

restart	        20000 dump.restart

run             50000

CITE-CITE-CITE-CITE-CITE-CITE-CITE-CITE-CITE-CITE-CITE-CITE-CITE

Your simulation uses code contributions which should be cited:

- USER-DEEPMD package:

@article{Wang_ComputPhysCommun_2018_v228_p178,
  author = {Wang, Han and Zhang, Linfeng and Han, Jiequn and E, Weinan},
  doi = {10.1016/j.cpc.2018.03.016},
  url = {https://doi.org/10.1016/j.cpc.2018.03.016},
  year = 2018,
  month = {jul},
  publisher = {Elsevier {BV}},
  volume = 228,
  journal = {Comput. Phys. Commun.},
  title = {{DeePMD-kit: A deep learning package for many-body potential energy representation and molecular dynamics}},
  pages = {178--184}
}
@misc{Zeng_JChemPhys_2023_v159_p054801,
  title  = {{DeePMD-kit v2: A software package for deep potential models}},
  author =   {Jinzhe Zeng and Duo Zhang and Denghui Lu and Pinghui Mo and Zeyu Li
         and Yixiao Chen and Mari{\'a}n Rynik and Li'ang Huang and Ziyao Li and 
         Shaochen Shi and Yingze Wang and Haotian Ye and Ping Tuo and Jiabin
         Yang and Ye Ding and Yifan Li and Davide Tisi and Qiyu Zeng and Han 
         Bao and Yu Xia and Jiameng Huang and Koki Muraoka and Yibo Wang and 
         Junhan Chang and Fengbo Yuan and Sigbj{\o}rn L{\o}land Bore and Chun
         Cai and Yinnian Lin and Bo Wang and Jiayan Xu and Jia-Xin Zhu and 
         Chenxing Luo and Yuzhi Zhang and Rhys E A Goodall and Wenshuo Liang
         and Anurag Kumar Singh and Sikai Yao and Jingchao Zhang and Renata
         Wentzcovitch and Jiequn Han and Jie Liu and Weile Jia and Darrin M
         York and Weinan E and Roberto Car and Linfeng Zhang and Han Wang},
  journal =  {J. Chem. Phys.},
  volume =   159,
  issue =    5,  
  year =    2023,
  pages  =   054801,
  doi =      {10.1063/5.0155600},
}

CITE-CITE-CITE-CITE-CITE-CITE-CITE-CITE-CITE-CITE-CITE-CITE-CITE

Generated 0 of 1 mixed pair_coeff terms from geometric mixing rule
Neighbor list info ...
  update: every = 1 steps, delay = 0 steps, check = yes
  max neighbors/atom: 2000, page size: 100000
  master list distance cutoff = 8
  ghost atom cutoff = 8
  binsize = 4, bins = 4 4 4
  1 neighbor lists, perpetual/occasional/extra = 1 0 0
  (1) pair deepmd, perpetual
      attributes: full, newton on
      pair build: full/bin/atomonly
      stencil: full/bin/3d
      bin: standard
Per MPI rank memory allocation (min/avg/max) = 2.958 | 2.999 | 3.082 Mbytes
   Step         PotEng         KinEng         TotEng      v_sysdensity       Temp          Press          Volume    
         0  -56.522838      0.34900239    -56.173835      0.029520714    300           -3343.9419      3375         
        10  -56.221042      0.48881764    -55.732224      0.029520714    420.1842      -459.48354      3375         
        20  -56.215874      0.46147308    -55.754401      0.029520714    396.67901      2184.6922      3375         
        30  -56.412634      0.64686119    -55.765773      0.029520714    556.03733      250.22977      3375         
        40  -56.263815      0.48128949    -55.782525      0.029520714    413.71306     -898.13107      3375         
        50  -56.255682      0.45294177    -55.80274       0.029520714    389.34556      1167.1573      3375         
        60  -56.289368      0.4634047     -55.825963      0.029520714    398.33942      1001.4931      3375         
        70  -56.285295      0.43215773    -55.853137      0.029520714    371.47975     -1572.9362      3375         
        80  -56.195893      0.32265473    -55.873238      0.029520714    277.35174     -1307.6941      3375         
        90  -56.284779      0.38433846    -55.90044       0.029520714    330.37464      951.13219      3375         
       100  -56.379914      0.45751763    -55.922396      0.029520714    393.27893      790.17289      3375         
       110  -56.352759      0.39227958    -55.960479      0.029520714    337.20077     -1161.7017      3375         
       120  -56.413794      0.4475735     -55.96622       0.029520714    384.73103     -311.83454      3375         
       130  -56.394477      0.38945659    -56.00502       0.029520714    334.77415      1848.7125      3375         
       140  -56.382672      0.35220437    -56.030467      0.029520714    302.7524       554.60887      3375         
       150  -56.234972      0.1927857     -56.042187      0.029520714    165.71723     -2018.1351      3375         
       160  -56.351949      0.3021666     -56.049782      0.029520714    259.74028     -873.12283      3375         
       170  -56.35786       0.30422951    -56.053631      0.029520714    261.51355      1620.3684      3375         
       180  -56.43429       0.36933071    -56.064959      0.029520714    317.47408      425.85622      3375         
       190  -56.410044      0.3363531     -56.07369       0.029520714    289.12676     -685.39936      3375         
       200  -56.507684      0.43268132    -56.075003      0.029520714    371.92982      500.28282      3375         
       210  -56.356169      0.27505813    -56.081111      0.029520714    236.43803      491.01344      3375         
       220  -56.370776      0.2774498     -56.093326      0.029520714    238.49389     -1203.9858      3375         
       230  -56.339793      0.26127972    -56.078513      0.029520714    224.59421     -1182.2726      3375         
       240  -56.421222      0.32581838    -56.095404      0.029520714    280.07118      878.75647      3375         
       250  -56.389171      0.30877952    -56.080391      0.029520714    265.4247       1649.5989      3375         
       260  -56.415202      0.3316561     -56.083546      0.029520714    285.08925     -419.61955      3375         
       270  -56.421979      0.33747908    -56.0845        0.029520714    290.09464     -1670.6271      3375         
       280  -56.480678      0.39950361    -56.081174      0.029520714    343.41049      702.22612      3375         
       290  -56.355871      0.27631894    -56.079552      0.029520714    237.52182      1752.7694      3375         
       300  -56.404559      0.31192584    -56.092634      0.029520714    268.12926     -1062.557       3375         
       310  -56.417318      0.35035855    -56.06696       0.029520714    301.16574     -1297.2601      3375         
       320  -56.365662      0.29463586    -56.071026      0.029520714    253.26691      1046.1807      3375         
       330  -56.430043      0.35972284    -56.070321      0.029520714    309.21522      455.44795      3375         
       340  -56.472217      0.40606846    -56.066148      0.029520714    349.05359     -665.28828      3375         
       350  -56.534808      0.46994885    -56.064859      0.029520714    403.96472     -84.9728        3375         
       360  -56.47055       0.40781036    -56.06274       0.029520714    350.55092      469.22206      3375         
       370  -56.447728      0.38106491    -56.066663      0.029520714    327.56072     -51.687952      3375         
       380  -56.316151      0.24745076    -56.0687        0.029520714    212.70693     -1101.6901      3375         
       390  -56.301491      0.22532153    -56.076169      0.029520714    193.6848      -275.33888      3375         
       400  -56.440381      0.36245231    -56.077929      0.029520714    311.56146      1956.1118      3375         
       410  -56.573085      0.53754679    -56.035538      0.029520714    462.07144      1055.6334      3375         
       420  -56.48088       0.40601547    -56.074865      0.029520714    349.00804     -1650.8895      3375         
       430  -56.487299      0.42551639    -56.061783      0.029520714    365.77089     -1006.106       3375         
       440  -56.58062       0.50365807    -56.076962      0.029520714    432.94093      455.96331      3375         
       450  -56.372986      0.28707082    -56.085915      0.029520714    246.76406      453.33251      3375         
       460  -56.258753      0.16671428    -56.092039      0.029520714    143.30643      166.05891      3375         
       470  -56.520577      0.41863456    -56.101943      0.029520714    359.85532     -218.19944      3375         
       480  -56.516193      0.40622571    -56.109968      0.029520714    349.18876     -83.650206      3375         
       490  -56.489764      0.36363039    -56.126134      0.029520714    312.57412     -246.54787      3375         
       500  -56.546053      0.39947374    -56.146579      0.029520714    343.38482     -575.66088      3375         
       510  -56.552238      0.36289249    -56.189346      0.029520714    311.93983      826.79437      3375         
       520  -56.401992      0.22820244    -56.173789      0.029520714    196.16121      1228.8515      3375         
       530  -56.374861      0.18543805    -56.189423      0.029520714    159.40124     -678.8325       3375         
       540  -56.416759      0.20436225    -56.212397      0.029520714    175.66835     -1223.6702      3375         
       550  -56.528792      0.30221336    -56.226579      0.029520714    259.78048     -120.518        3375         
       560  -56.557301      0.31114202    -56.246159      0.029520714    267.45549      502.43751      3375         
       570  -56.544647      0.28432014    -56.260327      0.029520714    244.39959      568.02205      3375         
       580  -56.533964      0.25800984    -56.275954      0.029520714    221.78344      6.9240554      3375         
       590  -56.476265      0.18962526    -56.28664       0.029520714    163.00054     -196.33743      3375         
       600  -56.464653      0.16966925    -56.294984      0.029520714    145.8465       153.70885      3375         
       610  -56.508581      0.20761648    -56.300965      0.029520714    178.46567     -373.67141      3375         
       620  -56.500666      0.1968522     -56.303813      0.029520714    169.21277     -341.01425      3375         
       630  -56.564495      0.25586995    -56.308625      0.029520714    219.94401      551.78239      3375         
       640  -56.58172       0.27262615    -56.309094      0.029520714    234.34752      131.16912      3375         
       650  -56.526211      0.21428742    -56.311923      0.029520714    184.19996     -729.90308      3375         
       660  -56.503847      0.19470978    -56.309137      0.029520714    167.37115     -192.59493      3375         
       670  -56.493404      0.18027325    -56.313131      0.029520714    154.96162      727.11373      3375         
       680  -56.454056      0.15034322    -56.303713      0.029520714    129.23397      811.78494      3375         
       690  -56.550905      0.26289587    -56.288009      0.029520714    225.98344     -39.961131      3375         
       700  -56.576869      0.29380862    -56.28306       0.029520714    252.55582     -1008.2123      3375         
       710  -56.521551      0.25171624    -56.269835      0.029520714    216.37351     -735.89171      3375         
       720  -56.518722      0.26654762    -56.252174      0.029520714    229.12246      478.71855      3375         
       730  -56.515676      0.28249269    -56.233183      0.029520714    242.82873      682.38655      3375         
       740  -56.473612      0.25870459    -56.214907      0.029520714    222.38065      106.72146      3375         
       750  -56.486541      0.29432077    -56.19222       0.029520714    252.99606      49.571171      3375         
       760  -56.450342      0.28768901    -56.162653      0.029520714    247.29545     -345.65718      3375         
       770  -56.517509      0.37749506    -56.140014      0.029520714    324.4921      -1075.7487      3375         
       780  -56.565782      0.45481015    -56.110972      0.029520714    390.95161     -107.80982      3375         
       790  -56.482054      0.38481781    -56.097236      0.029520714    330.78668      1349.6338      3375         
       800  -56.412193      0.35990534    -56.052288      0.029520714    309.3721       966.86455      3375         
       810  -56.453947      0.40116953    -56.052778      0.029520714    344.8425      -551.46687      3375         
       820  -56.388566      0.34442945    -56.044136      0.029520714    296.06913     -1203.2299      3375         
       830  -56.369263      0.33397478    -56.035288      0.029520714    287.08237     -557.76849      3375         
       840  -56.395961      0.36543443    -56.030527      0.029520714    314.12487      995.1313       3375         
       850  -56.45859       0.44536561    -56.013224      0.029520714    382.83314      722.69107      3375         
       860  -56.490944      0.47002597    -56.020918      0.029520714    404.03102     -466.72376      3375         
       870  -56.454275      0.44126871    -56.013006      0.029520714    379.31148      65.029983      3375         
       880  -56.444019      0.42750264    -56.016516      0.029520714    367.47826     -7.6034189      3375         
       890  -56.344646      0.32690133    -56.017745      0.029520714    281.00208     -955.6974       3375         
       900  -56.312006      0.29142311    -56.020582      0.029520714    250.50526      9.249226       3375         
       910  -56.418555      0.39806928    -56.020486      0.029520714    342.17755      1000.2435      3375         
       920  -56.347604      0.31888427    -56.02872       0.029520714    274.11067     -45.961004      3375         
       930  -56.324847      0.304799      -56.020048      0.029520714    262.00307     -847.35602      3375         
       940  -56.568626      0.54624503    -56.022381      0.029520714    469.54838      123.69275      3375         
       950  -56.387283      0.35297809    -56.034304      0.029520714    303.41748      1392.8776      3375         
       960  -56.273709      0.24827638    -56.025432      0.029520714    213.41663      658.09239      3375         
       970  -56.399497      0.36162263    -56.037874      0.029520714    310.84827     -1372.8423      3375         
       980  -56.314194      0.27941837    -56.034775      0.029520714    240.18607     -1241.8383      3375         
       990  -56.247242      0.21179188    -56.03545       0.029520714    182.05481      536.38265      3375         
      1000  -56.480348      0.44292016    -56.037428      0.029520714    380.73106      230.06469      3375         
      1010  -56.452172      0.41449978    -56.037672      0.029520714    356.3011       47.480874      3375         
      1020  -56.383096      0.34529811    -56.037797      0.029520714    296.81583      822.0583       3375         
      1030  -56.363125      0.31656358    -56.046562      0.029520714    272.11582      68.889692      3375         
      1040  -56.357632      0.31069293    -56.046939      0.029520714    267.06945     -1034.871       3375         
      1050  -56.310419      0.26830725    -56.042112      0.029520714    230.63503     -394.99022      3375         
      1060  -56.333754      0.29473535    -56.039019      0.029520714    253.35243      1013.0497      3375         
      1070  -56.437065      0.392619      -56.044446      0.029520714    337.49253      1079.0745      3375         
      1080  -56.336545      0.28197427    -56.05457       0.029520714    242.3831      -1079.0448      3375         
      1090  -56.36698       0.33557363    -56.031407      0.029520714    288.45673     -1626.3389      3375         
      1100  -56.515401      0.47760243    -56.037799      0.029520714    410.54369      1035.0553      3375         
      1110  -56.410259      0.36694022    -56.043319      0.029520714    315.41923      1353.5466      3375         
      1120  -56.320811      0.28313943    -56.037672      0.029520714    243.38466     -601.92313      3375         
      1130  -56.39413       0.35824265    -56.035887      0.029520714    307.94286     -588.06526      3375         
      1140  -56.279389      0.24365085    -56.035738      0.029520714    209.44055      29.94052       3375         
      1150  -56.340374      0.30736753    -56.033007      0.029520714    264.21096     -294.74669      3375         
      1160  -56.371773      0.34265841    -56.029115      0.029520714    294.54676      60.545102      3375         
      1170  -56.391934      0.36538357    -56.026551      0.029520714    314.08114      1029.255       3375         
      1180  -56.449455      0.43531776    -56.014137      0.029520714    374.19608      817.1392       3375         
      1190  -56.493747      0.46703085    -56.026716      0.029520714    401.45643     -1255.6555      3375         
      1200  -56.316684      0.33642056    -55.980264      0.029520714    289.18474     -1718.8765      3375         
      1210  -56.233902      0.24627619    -55.987626      0.029520714    211.69728      1061.134       3375         
      1220  -56.351631      0.35685253    -55.994779      0.029520714    306.74792      1816.6047      3375         
      1230  -56.337938      0.34134799    -55.99659       0.029520714    293.42033     -971.80714      3375         
      1240  -56.202427      0.25447547    -55.947952      0.029520714    218.74533     -1319.6468      3375         
      1250  -56.402589      0.4521903     -55.950399      0.029520714    388.6996       815.84233      3375         
      1260  -56.413734      0.48311595    -55.930619      0.029520714    415.28307      496.40293      3375         
      1270  -56.249898      0.32827815    -55.92162       0.029520714    282.18559     -322.32782      3375         
      1280  -56.46517       0.54587555    -55.919295      0.029520714    469.23078      100.53807      3375         
      1290  -56.242703      0.35444239    -55.888261      0.029520714    304.67618     -47.805205      3375         
      1300  -56.194261      0.31155864    -55.882703      0.029520714    267.81361     -334.99651      3375         
      1310  -56.267213      0.39660634    -55.870607      0.029520714    340.92002      280.13816      3375         
      1320  -56.252099      0.39310444    -55.858995      0.029520714    337.90981      813.15289      3375         
      1330  -56.220768      0.3679278     -55.85284       0.029520714    316.26815      365.71611      3375         
      1340  -56.357249      0.48785695    -55.869392      0.029520714    419.3584      -1680.5514      3375         
      1350  -56.367334      0.57098189    -55.796352      0.029520714    490.81202     -1610.3202      3375         
      1360  -56.338119      0.5225128     -55.815606      0.029520714    449.14833      1844.0694      3375         
      1370  -56.301276      0.48084101    -55.820435      0.029520714    413.32755      2103.3659      3375         
      1380  -56.278753      0.4561112     -55.822642      0.029520714    392.06998     -963.91808      3375         
      1390  -56.204943      0.37459084    -55.830352      0.029520714    321.99565     -1247.0204      3375         
      1400  -56.270361      0.43693634    -55.833425      0.029520714    375.5874       361.09397      3375         
      1410  -56.312176      0.46914061    -55.843036      0.029520714    403.26997     -27.773793      3375         
      1420  -56.240445      0.38144597    -55.858999      0.029520714    327.88827      8.6343493      3375         
      1430  -56.470117      0.59720297    -55.872914      0.029520714    513.35147      716.30468      3375         
      1440  -56.379199      0.47114003    -55.908059      0.029520714    404.98866     -126.03451      3375         
      1450  -56.342167      0.40261157    -55.939556      0.029520714    346.08207     -914.31289      3375         
      1460  -56.333099      0.36981714    -55.963282      0.029520714    317.89221     -522.35577      3375         
      1470  -56.278819      0.28342908    -55.99539       0.029520714    243.63364      603.30679      3375         
      1480  -56.303656      0.2967183     -56.006937      0.029520714    255.05696      1566.4002      3375         
      1490  -56.439934      0.40269938    -56.037235      0.029520714    346.15755     -340.06692      3375         
      1500  -56.36709       0.31065466    -56.056436      0.029520714    267.03656     -1696.7858      3375         
      1510  -56.458279      0.37596507    -56.082314      0.029520714    323.17693      312.3865       3375         
      1520  -56.507845      0.40798576    -56.099859      0.029520714    350.70169      1079.2609      3375         
      1530  -56.460848      0.33862562    -56.122222      0.029520714    291.0802      -349.70285      3375         
      1540  -56.433126      0.29168085    -56.141445      0.029520714    250.72681     -57.95564       3375         
      1550  -56.442496      0.29682951    -56.145667      0.029520714    255.15255      313.41699      3375         
      1560  -56.446416      0.29194156    -56.154475      0.029520714    250.95091     -621.11511      3375         
      1570  -56.428343      0.26666161    -56.161681      0.029520714    229.22044     -270.07482      3375         
      1580  -56.558365      0.38507714    -56.173288      0.029520714    331.0096       480.18303      3375         
      1590  -56.580291      0.40625255    -56.174038      0.029520714    349.21183      552.06004      3375         
      1600  -56.551869      0.36807081    -56.183798      0.029520714    316.39107     -35.193376      3375         
      1610  -56.482895      0.29323942    -56.189656      0.029520714    252.06654     -1133.2907      3375         
      1620  -56.50219       0.2970502     -56.20514       0.029520714    255.34226     -282.07191      3375         
      1630  -56.407668      0.20503055    -56.202638      0.029520714    176.24282      1495.7796      3375         
      1640  -56.515438      0.33248318    -56.182955      0.029520714    285.8002       293.07024      3375         
      1650  -56.539647      0.34524637    -56.1944        0.029520714    296.77135     -1329.0421      3375         
      1660  -56.55797       0.36070541    -56.197265      0.029520714    310.05983     -20.197352      3375         
      1670  -56.53995       0.34207339    -56.197876      0.029520714    294.04388      770.77727      3375         
      1680  -56.558884      0.36064329    -56.19824       0.029520714    310.00643     -224.49329      3375         
      1690  -56.437077      0.23922357    -56.197854      0.029520714    205.6349       13.272831      3375         
      1700  -56.445082      0.24732744    -56.197754      0.029520714    212.60093      251.29591      3375         
      1710  -56.419438      0.22456496    -56.194873      0.029520714    193.03446     -80.987988      3375         
      1720  -56.514474      0.3223093     -56.192165      0.029520714    277.0548      -772.89626      3375         
      1730  -56.566732      0.38720671    -56.179525      0.029520714    332.84016     -957.2022       3375         
      1740  -56.537787      0.34874051    -56.189047      0.029520714    299.77489      982.1096       3375         
      1750  -56.452379      0.2811323     -56.171247      0.029520714    241.65935      1917.9548      3375         
      1760  -56.436383      0.28140179    -56.154981      0.029520714    241.891       -555.15073      3375         
      1770  -56.387607      0.2302637     -56.157343      0.029520714    197.93306     -1654.3038      3375         
      1780  -56.453929      0.30363403    -56.150295      0.029520714    261.00168      158.05188      3375         
      1790  -56.459642      0.32504439    -56.134597      0.029520714    279.40587      641.47102      3375         
      1800  -56.49205       0.37378476    -56.118265      0.029520714    321.30275     -151.79605      3375         
      1810  -56.473634      0.37346603    -56.100168      0.029520714    321.02878     -170.19824      3375         
      1820  -56.551108      0.47088453    -56.080223      0.029520714    404.76903      101.05017      3375         
      1830  -56.376502      0.31847807    -56.058024      0.029520714    273.76151      889.75861      3375         
      1840  -56.369508      0.32688807    -56.04262       0.029520714    280.99068      9.0598661      3375         
      1850  -56.360148      0.34366046    -56.016488      0.029520714    295.40811     -1727.9029      3375         
      1860  -56.481553      0.49698713    -55.984566      0.029520714    427.20664     -60.330306      3375         
      1870  -56.490943      0.54239173    -55.948552      0.029520714    466.23611      1388.2624      3375         
      1880  -56.458731      0.5485105     -55.910221      0.029520714    471.49577     -842.84348      3375         
      1890  -56.304581      0.41744704    -55.887134      0.029520714    358.83454     -823.97732      3375         
      1900  -56.437871      0.57676505    -55.861106      0.029520714    495.78318      1664.9924      3375         
      1910  -56.333269      0.52101795    -55.812251      0.029520714    447.86336      1252.0049      3375         
      1920  -56.295919      0.49140646    -55.804512      0.029520714    422.40953     -966.33887      3375         
      1930  -56.284042      0.50380634    -55.780236      0.029520714    433.06838     -1300.3861      3375         
      1940  -56.333737      0.55977122    -55.773965      0.029520714    481.17541     -464.01214      3375         
      1950  -56.274963      0.52561803    -55.749345      0.029520714    451.81756      874.82117      3375         
      1960  -56.448165      0.70262729    -55.745538      0.029520714    603.97347      563.94713      3375         
      1970  -56.333539      0.58252543    -55.751014      0.029520714    500.73476     -728.99713      3375         
      1980  -56.26301       0.50365907    -55.759351      0.029520714    432.94179      521.38945      3375         
      1990  -56.246382      0.47544974    -55.770933      0.029520714    408.69326      962.95798      3375         
      2000  -56.19639       0.40013657    -55.796253      0.029520714    343.95458     -1761.3167      3375         
      2010  -56.214844      0.39957984    -55.815264      0.029520714    343.47602     -1211.6319      3375         
      2020  -56.362683      0.49854515    -55.864138      0.029520714    428.5459       1800.6936      3375         
      2030  -56.356561      0.44818418    -55.908377      0.029520714    385.25596      1050.0806      3375         
      2040  -56.318553      0.34745822    -55.971095      0.029520714    298.67264     -774.66222      3375         
      2050  -56.496065      0.49404446    -56.002021      0.029520714    424.67714      0.18471435     3375         
      2060  -56.435533      0.37123272    -56.0643        0.029520714    319.10903      290.74569      3375         
      2070  -56.323758      0.22480665    -56.098951      0.029520714    193.24222     -560.8263       3375         
      2080  -56.340995      0.23276728    -56.108228      0.029520714    200.08512     -862.81722      3375         
      2090  -56.421118      0.29551287    -56.125605      0.029520714    254.02078      85.238933      3375         
      2100  -56.394844      0.2549278     -56.139916      0.029520714    219.13414      1321.3416      3375         
      2110  -56.467065      0.31962281    -56.147442      0.029520714    274.74552      362.14455      3375         
      2120  -56.474403      0.31875889    -56.155644      0.029520714    274.0029      -907.86791      3375         
      2130  -56.422625      0.26203695    -56.160588      0.029520714    225.24512      166.02144      3375         
      2140  -56.44783       0.28104415    -56.166786      0.029520714    241.58357      308.91962      3375         
      2150  -56.484095      0.3023463     -56.181749      0.029520714    259.89475     -1205.3449      3375         
      2160  -56.40595       0.24293274    -56.163017      0.029520714    208.82327     -292.31349      3375         
      2170  -56.387308      0.22214293    -56.165165      0.029520714    190.9525       1557.3066      3375         
      2180  -56.432912      0.25666799    -56.176244      0.029520714    220.63         576.02771      3375         
      2190  -56.375703      0.20627119    -56.169432      0.029520714    177.30926     -765.13055      3375         
      2200  -56.440176      0.28194769    -56.158229      0.029520714    242.36025     -256.87346      3375         
      2210  -56.445526      0.27625214    -56.169274      0.029520714    237.46439      201.15129      3375         
      2220  -56.427973      0.27308028    -56.154893      0.029520714    234.73789     -579.82609      3375         
      2230  -56.4166        0.29377131    -56.122829      0.029520714    252.52375     -769.99955      3375         
      2240  -56.408152      0.28203372    -56.126119      0.029520714    242.4342       683.16678      3375         
      2250  -56.245534      0.12516798    -56.120366      0.029520714    107.59352      1435.6399      3375         
      2260  -56.366265      0.25414516    -56.11212       0.029520714    218.46139     -174.48868      3375         
      2270  -56.482914      0.3769153     -56.105999      0.029520714    323.99374     -829.6769       3375         
      2280  -56.31932       0.24932446    -56.069996      0.029520714    214.31755      393.20645      3375         
      2290  -56.40664       0.35087746    -56.055762      0.029520714    301.6118      -220.31971      3375         
      2300  -56.459455      0.42807006    -56.031385      0.029520714    367.96601     -1073.191       3375         
      2310  -56.300254      0.29637911    -56.003875      0.029520714    254.7654       507.59188      3375         
      2320  -56.293361      0.29705669    -55.996304      0.029520714    255.34784      1452.9737      3375         
      2330  -56.470175      0.47288598    -55.997289      0.029520714    406.48946     -139.22719      3375         
      2340  -56.263955      0.30551128    -55.958444      0.029520714    262.61535     -1031.2517      3375         
      2350  -56.337928      0.40196599    -55.935962      0.029520714    345.52714     -24.106245      3375         
      2360  -56.471481      0.54231328    -55.929168      0.029520714    466.16868      452.03975      3375         
      2370  -56.316939      0.40190601    -55.915033      0.029520714    345.47558     -686.41123      3375         
      2380  -56.251103      0.34175159    -55.909351      0.029520714    293.76727     -714.82491      3375         
      2390  -56.466558      0.56369555    -55.902862      0.029520714    484.54873      1367.0098      3375         
      2400  -56.374947      0.47875661    -55.89619       0.029520714    411.53582      1192.4205      3375         
      2410  -56.205887      0.30833833    -55.897549      0.029520714    265.04546     -964.60915      3375         
      2420  -56.373027      0.48040617    -55.892621      0.029520714    412.95376     -240.50069      3375         
      2430  -56.265432      0.36873658    -55.896696      0.029520714    316.96337      702.74587      3375         
      2440  -56.237612      0.34003223    -55.89758       0.029520714    292.28931     -908.13092      3375         
      2450  -56.446426      0.54441916    -55.902006      0.029520714    467.97888     -1760.4722      3375         
      2460  -56.511777      0.60841965    -55.903357      0.029520714    522.99325      249.91857      3375         
      2470  -56.219559      0.29939595    -55.920163      0.029520714    257.35865      2227.4481      3375         
      2480  -56.408534      0.47809252    -55.930442      0.029520714    410.96496      1154.5004      3375         
      2490  -56.371218      0.42187681    -55.949341      0.029520714    362.64234     -1239.6112      3375         
      2500  -56.236306      0.27772084    -55.958585      0.029520714    238.72688     -995.73202      3375         
      2510  -56.345915      0.3713664     -55.974548      0.029520714    319.22395      566.53678      3375         
      2520  -56.629229      0.62785631    -56.001373      0.029520714    539.70087     -702.67256      3375         
      2530  -56.436425      0.40918595    -56.027239      0.029520714    351.73336     -564.72666      3375         
      2540  -56.429228      0.3666076     -56.06262       0.029520714    315.13332      1783.9565      3375         
      2550  -56.460104      0.37572156    -56.084382      0.029520714    322.96761      864.95134      3375         
      2560  -56.430602      0.31904411    -56.111558      0.029520714    274.24807     -1296.0211      3375         
      2570  -56.427156      0.29124687    -56.135909      0.029520714    250.35376     -1190.3234      3375         
      2580  -56.545075      0.38137677    -56.163698      0.029520714    327.82879     -125.52584      3375         
      2590  -56.542107      0.35730928    -56.184797      0.029520714    307.14054      1074.611       3375         
      2600  -56.525412      0.32565864    -56.199753      0.029520714    279.93388      537.84922      3375         
      2610  -56.487941      0.26940591    -56.218535      0.029520714    231.57942     -723.60096      3375         
      2620  -56.495054      0.26071985    -56.234334      0.029520714    224.11295      424.35884      3375         
      2630  -56.545202      0.3144011     -56.230801      0.029520714    270.25697      1071.4154      3375         
      2640  -56.558895      0.31561302    -56.243282      0.029520714    271.29873     -841.50897      3375         
      2650  -56.464793      0.21870044    -56.246093      0.029520714    187.99336     -1512.3795      3375         
      2660  -56.508139      0.26263371    -56.245506      0.029520714    225.75809      222.64816      3375         
      2670  -56.528214      0.28006869    -56.248145      0.029520714    240.74508      695.86984      3375         
      2680  -56.507011      0.26313965    -56.243871      0.029520714    226.19299     -97.513296      3375         
      2690  -56.488827      0.2453133     -56.243514      0.029520714    210.86959      271.05824      3375         
      2700  -56.582247      0.33612652    -56.24612       0.029520714    288.93199      671.0303       3375         
      2710  -56.488492      0.26339756    -56.225094      0.029520714    226.41469      182.15695      3375         
      2720  -56.444958      0.21252475    -56.232434      0.029520714    182.68478     -1079.3972      3375         
      2730  -56.457961      0.22891115    -56.229049      0.029520714    196.77041     -1346.8808      3375         
      2740  -56.507991      0.27941176    -56.228579      0.029520714    240.18038      546.79501      3375         
      2750  -56.481421      0.27111707    -56.210304      0.029520714    233.05032      1868.5976      3375         
      2760  -56.562806      0.37559       -56.187216      0.029520714    322.85452      59.362676      3375         
      2770  -56.521943      0.32801364    -56.19393       0.029520714    281.95822     -1185.5045      3375         
      2780  -56.433699      0.25786592    -56.175833      0.029520714    221.65973     -25.073878      3375         
      2790  -56.449964      0.27881578    -56.171149      0.029520714    239.66808      87.169788      3375         
      2800  -56.488682      0.33033512    -56.158347      0.029520714    283.95375     -558.26178      3375         
      2810  -56.461997      0.31329969    -56.148697      0.029520714    269.31021      243.42108      3375         
      2820  -56.49339       0.36030827    -56.133081      0.029520714    309.71845      976.93417      3375         
      2830  -56.587056      0.47242616    -56.11463       0.029520714    406.0942       443.72729      3375         
      2840  -56.497738      0.39378682    -56.103951      0.029520714    338.49638     -1181.9336      3375         
      2850  -56.463827      0.3728702     -56.090956      0.029520714    320.5166      -1420.4567      3375         
      2860  -56.436832      0.33665513    -56.100177      0.029520714    289.38638      1169.9722      3375         
      2870  -56.418279      0.35224051    -56.066038      0.029520714    302.78346      1551.3412      3375         
      2880  -56.362786      0.30740431    -56.055382      0.029520714    264.24258     -1231.8273      3375         
      2890  -56.46793       0.41105615    -56.056874      0.029520714    353.34098     -1030.0732      3375         
      2900  -56.572864      0.52798964    -56.044875      0.029520714    453.85618      1501.6916      3375         
      2910  -56.47331       0.44087855    -56.032431      0.029520714    378.9761       650.39978      3375         
      2920  -56.400205      0.36656224    -56.033643      0.029520714    315.09433     -1093.5601      3375         
      2930  -56.478422      0.45267914    -56.025743      0.029520714    389.11981     -822.32005      3375         
      2940  -56.356367      0.33274531    -56.023622      0.029520714    286.02553      619.67763      3375         
      2950  -56.389895      0.36385813    -56.026037      0.029520714    312.76989      513.24768      3375         
      2960  -56.341073      0.31737146    -56.023702      0.029520714    272.81027     -890.49147      3375         
      2970  -56.418112      0.40252854    -56.015584      0.029520714    346.0107       314.53558      3375         
      2980  -56.432074      0.41473397    -56.01734       0.029520714    356.5024       1852.6362      3375         
      2990  -56.487945      0.46305638    -56.024889      0.029520714    398.04001     -1251.5384      3375         
      3000  -56.302878      0.29031063    -56.012568      0.029520714    249.54897     -2442.4348      3375         
      3010  -56.370566      0.33875103    -56.031815      0.029520714    291.188        1176.8286      3375         
      3020  -56.337698      0.3209585     -56.016739      0.029520714    275.89367      2135.0135      3375         
      3030  -56.380865      0.35847645    -56.022388      0.029520714    308.14384     -217.65919      3375         
      3040  -56.332191      0.30241819    -56.029772      0.029520714    259.95654     -714.86326      3375         
      3050  -56.424482      0.40059984    -56.023882      0.029520714    344.3528       9.7505111      3375         
      3060  -56.437791      0.40523183    -56.032559      0.029520714    348.33443      35.684525      3375         
      3070  -56.395962      0.35487951    -56.041083      0.029520714    305.05193     -902.9581       3375         
      3080  -56.391243      0.35886234    -56.03238       0.029520714    308.47554     -639.33379      3375         
      3090  -56.432546      0.38530729    -56.047239      0.029520714    331.20744      1372.5149      3375         
      3100  -56.385961      0.32180753    -56.064153      0.029520714    276.62349      681.32148      3375         
      3110  -56.326867      0.27093648    -56.055931      0.029520714    232.8951      -1570.5765      3375         
      3120  -56.418695      0.35208948    -56.066606      0.029520714    302.65364      383.95506      3375         
      3130  -56.403208      0.32420584    -56.079002      0.029520714    278.68506      1800.7436      3375         
      3140  -56.446401      0.34522073    -56.101181      0.029520714    296.74931     -941.02988      3375         
      3150  -56.437533      0.33756984    -56.099963      0.029520714    290.17266     -1760.9684      3375         
      3160  -56.394831      0.3075533     -56.087278      0.029520714    264.37065      894.181        3375         
      3170  -56.343404      0.23327425    -56.11013       0.029520714    200.52091      1335.9858      3375         
      3180  -56.340758      0.21443931    -56.126318      0.029520714    184.33052     -388.20876      3375         
      3190  -56.408785      0.29236491    -56.11642       0.029520714    251.31482     -733.47125      3375         
      3200  -56.34463       0.22285955    -56.12177       0.029520714    191.5685       284.22961      3375         
      3210  -56.450232      0.30799713    -56.142235      0.029520714    264.75216     -76.988308      3375         
      3220  -56.390332      0.27757481    -56.112757      0.029520714    238.60135     -1035.2126      3375         
      3230  -56.416202      0.29878156    -56.117421      0.029520714    256.83053      434.05678      3375         
      3240  -56.36639       0.24073717    -56.125653      0.029520714    206.93598      1942.8539      3375         
      3250  -56.444707      0.31500908    -56.129698      0.029520714    270.77959     -318.03304      3375         
      3260  -56.376884      0.2547124     -56.122172      0.029520714    218.94898     -1654.0467      3375         
      3270  -56.367063      0.25858771    -56.108476      0.029520714    222.28017      698.01047      3375         
      3280  -56.383732      0.27985435    -56.103877      0.029520714    240.56083      1006.4539      3375         
      3290  -56.429495      0.3210374     -56.108458      0.029520714    275.96149     -1258.5776      3375         
      3300  -56.409444      0.33646091    -56.072983      0.029520714    289.21943     -1041.5825      3375         
      3310  -56.45832       0.39361817    -56.064702      0.029520714    338.35141      911.09259      3375         
      3320  -56.513332      0.45724629    -56.056085      0.029520714    393.04569      947.52372      3375         
      3330  -56.305246      0.260429      -56.044817      0.029520714    223.86293     -195.62359      3375         
      3340  -56.368551      0.34397884    -56.024572      0.029520714    295.68179     -415.37496      3375         
      3350  -56.294134      0.27799387    -56.01614       0.029520714    238.96157      762.12159      3375         
      3360  -56.341829      0.33820106    -56.003628      0.029520714    290.71525     -128.74651      3375         
      3370  -56.286141      0.30538932    -55.980751      0.029520714    262.51051     -1931.4462      3375         
      3380  -56.50775       0.54461556    -55.963134      0.029520714    468.14771      91.097957      3375         
      3390  -56.391328      0.45272382    -55.938604      0.029520714    389.15821      2642.8889      3375         
      3400  -56.36929       0.44090819    -55.928381      0.029520714    379.00158     -55.722582      3375         
      3410  -56.316272      0.40192038    -55.914352      0.029520714    345.48793     -1958.6461      3375         
      3420  -56.306641      0.42835488    -55.878286      0.029520714    368.21084      341.64474      3375         
      3430  -56.163599      0.2807664     -55.882832      0.029520714    241.34482      917.19883      3375         
      3440  -56.359845      0.47843482    -55.88141       0.029520714    411.25921     -820.11529      3375         
      3450  -56.390203      0.53882183    -55.851381      0.029520714    463.16745     -863.76484      3375         
      3460  -56.278479      0.42645612    -55.852023      0.029520714    366.57868      968.03569      3375         
      3470  -56.441463      0.59565514    -55.845808      0.029520714    512.02097      1332.9337      3375         
      3480  -56.449272      0.60016457    -55.849108      0.029520714    515.89724     -625.74223      3375         
      3490  -56.328184      0.46638196    -55.861802      0.029520714    400.89865     -1136.2931      3375         
      3500  -56.290648      0.42024932    -55.870399      0.029520714    361.24336      1181.4262      3375         
      3510  -56.39098       0.5102638     -55.880717      0.029520714    438.61917      331.98673      3375         
      3520  -56.235668      0.33142225    -55.904246      0.029520714    284.88824     -2260.012       3375         
      3530  -56.431231      0.50432685    -55.926904      0.029520714    433.51581     -339.57745      3375         
      3540  -56.56964       0.59160079    -55.978039      0.029520714    508.53588      2073.8957      3375         
      3550  -56.480226      0.49388805    -55.986338      0.029520714    424.5427       1007.1796      3375         
      3560  -56.507038      0.44172005    -56.065318      0.029520714    379.69945     -713.32495      3375         
      3570  -56.456713      0.36490451    -56.091809      0.029520714    313.66935     -1304.1693      3375         
      3580  -56.405532      0.27981353    -56.125718      0.029520714    240.52574     -97.360858      3375         
      3590  -56.49025       0.3335528     -56.156697      0.029520714    286.71964      892.63206      3375         
      3600  -56.515056      0.33338751    -56.181669      0.029520714    286.57756     -5.8176309      3375         
      3610  -56.500182      0.30398932    -56.196193      0.029520714    261.30708     -152.97303      3375         
      3620  -56.503666      0.29446958    -56.209196      0.029520714    253.12398      662.10636      3375         
      3630  -56.554035      0.33345436    -56.22058       0.029520714    286.63502     -741.60562      3375         
      3640  -56.495566      0.2685278     -56.227038      0.029520714    230.8246      -1432.7251      3375         
      3650  -56.453281      0.21456548    -56.238715      0.029520714    184.43898      732.49856      3375         
      3660  -56.497163      0.25784014    -56.239323      0.029520714    221.63757      1301.8553      3375         
      3670  -56.491373      0.27193243    -56.219441      0.029520714    233.7512       267.98329      3375         
      3680  -56.463176      0.23377032    -56.229406      0.029520714    200.94733     -347.60662      3375         
      3690  -56.545366      0.3157956     -56.22957       0.029520714    271.45567     -1007.0662      3375         
      3700  -56.481593      0.25487505    -56.226718      0.029520714    219.0888      -179.75001      3375         
      3710  -56.481987      0.2614002     -56.220587      0.029520714    224.69777      1039.8406      3375         
      3720  -56.535994      0.3195154     -56.216478      0.029520714    274.65319     -102.66438      3375         
      3730  -56.518082      0.30704051    -56.211041      0.029520714    263.92986     -767.53645      3375         
      3740  -56.383287      0.18146437    -56.201823      0.029520714    155.98549      352.88584      3375         
      3750  -56.521563      0.32570095    -56.195862      0.029520714    279.97024     -110.69807      3375         
      3760  -56.515919      0.3295177     -56.186401      0.029520714    283.25109     -309.9807       3375         
      3770  -56.491296      0.31768371    -56.173613      0.029520714    273.07868      870.2884       3375         
      3780  -56.576479      0.41524583    -56.161233      0.029520714    356.94239      239.7652       3375         
      3790  -56.491296      0.3460945     -56.145201      0.029520714    297.5004      -531.55394      3375         
      3800  -56.408925      0.27301994    -56.135905      0.029520714    234.68602     -336.14203      3375         
      3810  -56.456709      0.32332526    -56.133384      0.029520714    277.92812     -518.94097      3375         
      3820  -56.431968      0.31422642    -56.117742      0.029520714    270.10682      604.63146      3375         
      3830  -56.431802      0.34112708    -56.090675      0.029520714    293.23044      1410.3039      3375         
      3840  -56.600513      0.51597921    -56.084534      0.029520714    443.53209     -917.76556      3375         
      3850  -56.472915      0.40135284    -56.071562      0.029520714    345.00008     -1531.4355      3375         
      3860  -56.456717      0.40287476    -56.053843      0.029520714    346.30831      378.9321       3375         
      3870  -56.489947      0.44225563    -56.047691      0.029520714    380.15983      719.23112      3375         
      3880  -56.293199      0.25468977    -56.038509      0.029520714    218.92953      427.6241       3375         
      3890  -56.335508      0.30266706    -56.032841      0.029520714    260.17048      612.98395      3375         
      3900  -56.427457      0.40673759    -56.020719      0.029520714    349.62877     -200.00738      3375         
      3910  -56.494124      0.47845435    -56.015669      0.029520714    411.27599     -1248.0522      3375         
      3920  -56.459466      0.46649485    -55.992971      0.029520714    400.99569     -809.23684      3375         
      3930  -56.461804      0.46196462    -55.99984       0.029520714    397.10154      620.36976      3375         
      3940  -56.278464      0.29625382    -55.98221       0.029520714    254.6577       1593.893       3375         
      3950  -56.266855      0.28091538    -55.985939      0.029520714    241.47288      45.982968      3375         
      3960  -56.251542      0.27420089    -55.977341      0.029520714    235.70116     -1531.1464      3375         
      3970  -56.393991      0.42141171    -55.97258       0.029520714    362.24254      186.74735      3375         
      3980  -56.361827      0.40320334    -55.958624      0.029520714    346.59075      1172.311       3375         
      3990  -56.371386      0.42365436    -55.947731      0.029520714    364.17031     -671.4609       3375         
      4000  -56.441786      0.49850615    -55.94328       0.029520714    428.51238     -669.43809      3375         
      4010  -56.370666      0.44704638    -55.923619      0.029520714    384.27792      539.64705      3375         
      4020  -56.347374      0.43005006    -55.917324      0.029520714    369.66801     -9.4573679      3375         
      4030  -56.261224      0.3497984     -55.911425      0.029520714    300.68425     -260.63653      3375         
      4040  -56.235844      0.33959766    -55.896247      0.029520714    291.91576      625.87539      3375         
      4050  -56.23129       0.33724857    -55.894042      0.029520714    289.8965       1041.9433      3375         
      4060  -56.43836       0.53370665    -55.904653      0.029520714    458.77048     -900.5158       3375         
      4070  -56.332157      0.49062072    -55.841536      0.029520714    421.73412     -2268.9696      3375         
      4080  -56.384042      0.54682887    -55.837213      0.029520714    470.05025      448.52309      3375         
      4090  -56.278979      0.43986839    -55.839111      0.029520714    378.10777      2400.7498      3375         
      4100  -56.356097      0.52054629    -55.835551      0.029520714    447.45793     -237.40405      3375         
      4110  -56.252831      0.41823147    -55.8346        0.029520714    359.50883     -1302.9244      3375         
      4120  -56.191549      0.36002028    -55.831529      0.029520714    309.4709       815.14245      3375         
      4130  -56.171792      0.33657677    -55.835216      0.029520714    289.31902      657.71255      3375         
      4140  -56.269804      0.4245711     -55.845233      0.029520714    364.95833     -1129.7273      3375         
      4150  -56.270617      0.44277482    -55.827843      0.029520714    380.60612     -150.21377      3375         
      4160  -56.375923      0.53271668    -55.843207      0.029520714    457.91951      855.07823      3375         
      4170  -56.440782      0.56710251    -55.873679      0.029520714    487.47733     -332.92487      3375         
      4180  -56.285479      0.41466975    -55.87081       0.029520714    356.4472      -961.95097      3375         
      4190  -56.267822      0.37718723    -55.890635      0.029520714    324.22749      485.79779      3375         
      4200  -56.309693      0.38801478    -55.921678      0.029520714    333.53478      1390.5431      3375         
      4210  -56.204491      0.26661013    -55.937881      0.029520714    229.17619     -465.37007      3375         
      4220  -56.199201      0.25700284    -55.942198      0.029520714    220.91784     -1730.972       3375         
      4230  -56.393149      0.43431167    -55.958838      0.029520714    373.33126      624.2656       3375         
      4240  -56.437962      0.45303854    -55.984924      0.029520714    389.42874      1750.811       3375         
      4250  -56.409002      0.38744038    -56.021562      0.029520714    333.04103     -515.5232       3375         
      4260  -56.499892      0.46500755    -56.034885      0.029520714    399.71722     -842.1765       3375         
      4270  -56.323369      0.27033037    -56.053039      0.029520714    232.37408      445.44777      3375         
      4280  -56.336871      0.25922271    -56.077648      0.029520714    222.82602     -471.81956      3375         
      4290  -56.366136      0.27887509    -56.087261      0.029520714    239.71907     -898.85414      3375         
      4300  -56.412968      0.31333216    -56.099635      0.029520714    269.33812      403.28979      3375         
      4310  -56.333342      0.22161728    -56.111724      0.029520714    190.50065      1142.3061      3375         
      4320  -56.415962      0.29335878    -56.122603      0.029520714    252.16914      213.31994      3375         
      4330  -56.444372      0.31924157    -56.12513       0.029520714    274.41781     -823.89739      3375         
      4340  -56.488095      0.35411186    -56.133983      0.029520714    304.39206      82.429552      3375         
      4350  -56.510435      0.36710739    -56.143328      0.029520714    315.56293      1281.2651      3375         
      4360  -56.47179       0.31104596    -56.160744      0.029520714    267.37292     -544.7953       3375         
      4370  -56.341523      0.18203725    -56.159486      0.029520714    156.47794     -1901.1713      3375         
      4380  -56.356656      0.21559056    -56.141065      0.029520714    185.32012      573.04522      3375         
      4390  -56.414517      0.25731089    -56.157206      0.029520714    221.18263      1369.1579      3375         
      4400  -56.380363      0.21917071    -56.161192      0.029520714    188.3976      -423.62384      3375         
      4410  -56.474479      0.32615575    -56.148323      0.029520714    280.36118     -345.52683      3375         
      4420  -56.473675      0.32488858    -56.148786      0.029520714    279.27194      368.93837      3375         
      4430  -56.527421      0.38177874    -56.145643      0.029520714    328.17431     -376.03692      3375         
      4440  -56.39999       0.2619255     -56.138064      0.029520714    225.14931     -513.48189      3375         
      4450  -56.356864      0.21805639    -56.138807      0.029520714    187.43974      304.99776      3375         
      4460  -56.314123      0.1850802     -56.129043      0.029520714    159.09363      1102.3309      3375         
      4470  -56.417644      0.29852765    -56.119117      0.029520714    256.61227      12.885539      3375         
      4480  -56.403773      0.29178912    -56.111984      0.029520714    250.81988     -1636.4616      3375         
      4490  -56.47963       0.39861024    -56.08102       0.029520714    342.64256     -93.269504      3375         
      4500  -56.422445      0.35692913    -56.065516      0.029520714    306.81377      1943.3153      3375         
      4510  -56.451352      0.40306101    -56.048291      0.029520714    346.46841     -20.79297       3375         
      4520  -56.338116      0.3247815     -56.013335      0.029520714    279.17989     -1664.267       3375         
      4530  -56.251527      0.25929762    -55.99223       0.029520714    222.89041      150.13389      3375         
      4540  -56.316241      0.34574088    -55.9705        0.029520714    297.19642      719.14764      3375         
      4550  -56.365065      0.43014207    -55.934922      0.029520714    369.74709     -267.04333      3375         
      4560  -56.367509      0.4630829     -55.904426      0.029520714    398.0628      -192.83121      3375         
      4570  -56.282465      0.4142912     -55.868174      0.029520714    356.1218       527.00369      3375         
      4580  -56.418057      0.57746901    -55.840588      0.029520714    496.38829      243.50274      3375         
      4590  -56.427847      0.61165848    -55.816188      0.029520714    525.77732     -761.83515      3375         
      4600  -56.270544      0.46320528    -55.807339      0.029520714    398.168       -174.03016      3375         
      4610  -56.207494      0.4005378     -55.806956      0.029520714    344.29948      1644.5266      3375         
      4620  -56.305595      0.53442052    -55.771175      0.029520714    459.38412      490.31961      3375         
      4630  -56.255435      0.45893545    -55.796499      0.029520714    394.49769     -2360.1789      3375         
      4640  -56.454361      0.66321843    -55.791143      0.029520714    570.0979      -1555.0988      3375         
      4650  -56.552978      0.73735315    -55.815625      0.029520714    633.82358      1040.7801      3375         
      4660  -56.294557      0.46005179    -55.834506      0.029520714    395.45728      1740.2766      3375         
      4670  -56.307477      0.46255917    -55.844918      0.029520714    397.6126       667.24353      3375         
      4680  -56.380906      0.50783066    -55.873075      0.029520714    436.52767     -366.39206      3375         
      4690  -56.355263      0.47083563    -55.884428      0.029520714    404.727       -293.42401      3375         
      4700  -56.439921      0.53199218    -55.907928      0.029520714    457.29674     -583.66798      3375         
      4710  -56.329078      0.40428531    -55.924793      0.029520714    347.52081     -863.75104      3375         
      4720  -56.376251      0.42587563    -55.950375      0.029520714    366.07969      137.26976      3375         
      4730  -56.558408      0.60139401    -55.957014      0.029520714    516.95406      768.06361      3375         
      4740  -56.357648      0.37569213    -55.981956      0.029520714    322.94231     -100.49159      3375         
      4750  -56.26489       0.26618426    -55.998706      0.029520714    228.81012     -457.01426      3375         
      4760  -56.460198      0.44770864    -56.012489      0.029520714    384.8472       263.09573      3375         
      4770  -56.401898      0.37063092    -56.031267      0.029520714    318.59173      1017.5897      3375         
      4780  -56.414123      0.3939706     -56.020153      0.029520714    338.65436      446.5618       3375         
      4790  -56.447771      0.39662799    -56.051143      0.029520714    340.93863     -1328.4878      3375         
      4800  -56.350458      0.29525133    -56.055207      0.029520714    253.79596     -1317.8328      3375         
      4810  -56.436642      0.36748479    -56.069157      0.029520714    315.88734      524.26661      3375         
      4820  -56.55033       0.46940187    -56.080928      0.029520714    403.49454      1131.4005      3375         
      4830  -56.389231      0.29704309    -56.092188      0.029520714    255.33615      533.7008       3375         
      4840  -56.427797      0.32380187    -56.103996      0.029520714    278.33781     -200.33354      3375         
      4850  -56.385297      0.27583625    -56.10946       0.029520714    237.1069      -604.71274      3375         
      4860  -56.419274      0.30377497    -56.115499      0.029520714    261.12283     -825.06229      3375         
      4870  -56.523427      0.39756018    -56.125867      0.029520714    341.73993     -516.32374      3375         
      4880  -56.515254      0.37062498    -56.144629      0.029520714    318.58662      1002.953       3375         
      4890  -56.481066      0.34589276    -56.135173      0.029520714    297.32698      1551.5459      3375         
      4900  -56.493705      0.35046012    -56.143245      0.029520714    301.25306     -222.08668      3375         
      4910  -56.425504      0.26876647    -56.156737      0.029520714    231.02977     -1393.9804      3375         
      4920  -56.424515      0.2595829     -56.164932      0.029520714    223.13563     -511.61991      3375         
      4930  -56.508257      0.34008028    -56.168177      0.029520714    292.33061      554.30888      3375         
      4940  -56.580956      0.40716668    -56.173789      0.029520714    349.99761      636.24283      3375         
      4950  -56.524103      0.34789767    -56.176205      0.029520714    299.05039     -321.32333      3375         
      4960  -56.486993      0.29872797    -56.188265      0.029520714    256.78446     -569.15302      3375         
      4970  -56.506459      0.31374792    -56.192711      0.029520714    269.69551      333.11969      3375         
      4980  -56.492908      0.29357917    -56.199329      0.029520714    252.35859      139.51209      3375         
      4990  -56.381212      0.17910478    -56.202107      0.029520714    153.95721      0.16540564     3375         
      5000  -56.523642      0.31732573    -56.206316      0.029520714    272.77096      762.09437      3375         
      5010  -56.583808      0.37528377    -56.208525      0.029520714    322.59129      111.70199      3375         
      5020  -56.544186      0.3321474     -56.212039      0.029520714    285.51156     -1428.3331      3375         
      5030  -56.471893      0.25597994    -56.215913      0.029520714    220.03856     -668.90644      3375         
      5040  -56.422504      0.2020329     -56.220471      0.029520714    173.66606      1242.5303      3375         
      5050  -56.488121      0.2741016     -56.21402       0.029520714    235.61581      998.66946      3375         
      5060  -56.506262      0.28927877    -56.216983      0.029520714    248.662       -724.067        3375         
      5070  -56.375115      0.16264163    -56.212474      0.029520714    139.8056      -892.73566      3375         
      5080  -56.497633      0.28527091    -56.212362      0.029520714    245.21686      374.95692      3375         
      5090  -56.579405      0.38054265    -56.198862      0.029520714    327.11178      390.34071      3375         
      5100  -56.391157      0.20184357    -56.189314      0.029520714    173.50331     -62.364882      3375         
      5110  -56.444568      0.26566945    -56.178898      0.029520714    228.36759      453.74096      3375         
      5120  -56.471168      0.3025255     -56.168643      0.029520714    260.0488       400.42617      3375         
      5130  -56.438867      0.29372529    -56.145142      0.029520714    252.4842      -1038.1187      3375         
      5140  -56.321761      0.20659071    -56.11517       0.029520714    177.58392     -1246.8923      3375         
      5150  -56.403304      0.30378853    -56.099516      0.029520714    261.13448      845.65949      3375         
      5160  -56.47602       0.40449772    -56.071523      0.029520714    347.7034       2054.7336      3375         
      5170  -56.495921      0.46011763    -56.035803      0.029520714    395.51388     -585.25293      3375         
      5180  -56.272803      0.26866972    -56.004133      0.029520714    230.9466      -1959.1255      3375         
      5190  -56.381596      0.38334708    -55.998249      0.029520714    329.52246      793.14574      3375         
      5200  -56.37663       0.42093962    -55.95569       0.029520714    361.83674      1112.2131      3375         
      5210  -56.282381      0.34142561    -55.940956      0.029520714    293.48705     -1022.37        3375         
      5220  -56.276285      0.34614277    -55.930142      0.029520714    297.54189     -625.47214      3375         
      5230  -56.458158      0.54806425    -55.910093      0.029520714    471.11217      880.44746      3375         
      5240  -56.43451       0.53780141    -55.896709      0.029520714    462.29031      884.69212      3375         
      5250  -56.3579        0.46917419    -55.888726      0.029520714    403.29883     -494.636        3375         
      5260  -56.405743      0.52075706    -55.884986      0.029520714    447.63911     -743.44924      3375         
      5270  -56.39701       0.50606262    -55.890947      0.029520714    435.00787      1146.0216      3375         
      5280  -56.373844      0.48479812    -55.889046      0.029520714    416.72905      633.72053      3375         
      5290  -56.30283       0.38679288    -55.916038      0.029520714    332.48444     -2523.678       3375         
      5300  -56.425183      0.52854413    -55.896639      0.029520714    454.33282     -1343.1207      3375         
      5310  -56.470917      0.53063695    -55.94028       0.029520714    456.13179      2398.2248      3375         
      5320  -56.466237      0.51889726    -55.94734       0.029520714    446.04044      1717.4751      3375         
      5330  -56.398005      0.42260743    -55.975397      0.029520714    363.27037     -553.64582      3375         
      5340  -56.390525      0.39231791    -55.998207      0.029520714    337.23372     -863.32415      3375         
      5350  -56.395538      0.36689456    -56.028643      0.029520714    315.37998     -338.3838       3375         
      5360  -56.324361      0.28800354    -56.036357      0.029520714    247.56581     -40.692326      3375         
      5370  -56.393655      0.33807401    -56.055581      0.029520714    290.60604     -833.49033      3375         
      5380  -56.451347      0.37473603    -56.076611      0.029520714    322.12046     -646.34307      3375         
      5390  -56.509157      0.41302959    -56.096127      0.029520714    355.03733      1805.7288      3375         
      5400  -56.472318      0.37112015    -56.101198      0.029520714    319.01227      1908.4841      3375         
      5410  -56.495686      0.3642363     -56.13145       0.029520714    313.09496     -1303.1497      3375         
      5420  -56.391587      0.25387234    -56.137715      0.029520714    218.22688     -1879.0025      3375         
      5430  -56.385002      0.23865003    -56.146352      0.029520714    205.14189      618.42184      3375         
      5440  -56.468482      0.31174466    -56.156737      0.029520714    267.97352      1013.8476      3375         
      5450  -56.520578      0.35786627    -56.162712      0.029520714    307.61933     -929.94066      3375         
      5460  -56.432522      0.26997741    -56.162545      0.029520714    232.07068     -893.59785      3375         
      5470  -56.496494      0.30965145    -56.186843      0.029520714    266.17421      1138.1542      3375         
      5480  -56.564248      0.39923052    -56.165017      0.029520714    343.17575      1175.6165      3375         
      5490  -56.448121      0.26967559    -56.178445      0.029520714    231.81124     -340.38805      3375         
      5500  -56.393459      0.2121935     -56.181265      0.029520714    182.40004     -1058.9783      3375         
      5510  -56.518831      0.33740661    -56.181425      0.029520714    290.03235     -76.192375      3375         
      5520  -56.509637      0.32737181    -56.182265      0.029520714    281.4065       717.51347      3375         
      5530  -56.512686      0.33606018    -56.176626      0.029520714    288.87497     -887.49197      3375         
      5540  -56.462813      0.28520408    -56.177609      0.029520714    245.15942     -904.80078      3375         
      5550  -56.535723      0.34523441    -56.190489      0.029520714    296.76107      1827.116       3375         
      5560  -56.511969      0.35168614    -56.160282      0.029520714    302.30693      1689.9394      3375         
      5570  -56.56175       0.37577624    -56.185973      0.029520714    323.01462     -1494.8045      3375         
      5580  -56.394282      0.23375488    -56.160527      0.029520714    200.93405     -2022.2657      3375         
      5590  -56.582989      0.41414332    -56.168845      0.029520714    355.99468      57.693868      3375         
      5600  -56.534284      0.36329525    -56.170989      0.029520714    312.28604      1424.311       3375         
      5610  -56.435199      0.27839416    -56.156805      0.029520714    239.30566      431.42996      3375         
      5620  -56.509875      0.35254948    -56.157326      0.029520714    303.04905     -714.38056      3375         
      5630  -56.533162      0.3759724     -56.15719       0.029520714    323.18323      496.89378      3375         
      5640  -56.383848      0.23724872    -56.1466        0.029520714    203.93733      605.99085      3375         
      5650  -56.43246       0.28470283    -56.147757      0.029520714    244.72855     -1477.2774      3375         
      5660  -56.497046      0.35369839    -56.143348      0.029520714    304.03665     -467.87748      3375         
      5670  -56.471515      0.34319674    -56.128318      0.029520714    295.0095       1797.3656      3375         
      5680  -56.437141      0.32524325    -56.111897      0.029520714    279.57681      674.71491      3375         
      5690  -56.369277      0.2598116     -56.109465      0.029520714    223.33223     -1716.8142      3375         
      5700  -56.519471      0.43393159    -56.085539      0.029520714    373.00454     -1087.1574      3375         
      5710  -56.41009       0.35196436    -56.058126      0.029520714    302.54609      1084.3799      3375         
      5720  -56.341283      0.30492307    -56.03636       0.029520714    262.10972      1062.4299      3375         
      5730  -56.316657      0.30536106    -56.011296      0.029520714    262.48622     -827.31887      3375         
      5740  -56.321078      0.35458325    -55.966495      0.029520714    304.79726     -785.76082      3375         
      5750  -56.218679      0.29026042    -55.928419      0.029520714    249.50582      1449.8627      3375         
      5760  -56.482229      0.60796845    -55.874261      0.029520714    522.6054       453.17021      3375         
      5770  -56.295429      0.47838339    -55.817046      0.029520714    411.215       -956.52416      3375         
      5780  -56.292938      0.51238026    -55.780557      0.029520714    440.43846      311.70671      3375         
      5790  -56.255733      0.50334818    -55.752384      0.029520714    432.67456      345.522        3375         
      5800  -56.2092        0.47217724    -55.737023      0.029520714    405.88023     -1730.6866      3375         
      5810  -56.157547      0.43897067    -55.718576      0.029520714    377.3361      -1206.6884      3375         
      5820  -56.236514      0.5118535     -55.72466       0.029520714    439.98567      1808.0084      3375         
      5830  -56.243065      0.53572309    -55.707342      0.029520714    460.5038       2504.4909      3375         
      5840  -56.27339       0.54831816    -55.725071      0.029520714    471.33044     -578.89745      3375         
      5850  -56.250796      0.53194705    -55.718849      0.029520714    457.25794     -2544.0403      3375         
      5860  -56.274319      0.53897267    -55.735347      0.029520714    463.29711      27.488576      3375         
      5870  -56.29877       0.54258765    -55.756183      0.029520714    466.40452      1063.195       3375         
      5880  -56.132612      0.35665069    -55.775962      0.029520714    306.57443     -152.47555      3375         
      5890  -56.271338      0.48051176    -55.790826      0.029520714    413.04452      205.26503      3375         
      5900  -56.21199       0.39068813    -55.821302      0.029520714    335.83277      1106.4         3375         
      5910  -56.339449      0.50314081    -55.836308      0.029520714    432.4963      -841.45693      3375         
      5920  -56.278286      0.42767466    -55.850611      0.029520714    367.62613     -1692.8869      3375         
      5930  -56.289831      0.41319119    -55.87664       0.029520714    355.17624      705.40885      3375         
      5940  -56.403406      0.49368564    -55.90972       0.029520714    424.3687       1693.6202      3375         
      5950  -56.430844      0.48843906    -55.942405      0.029520714    419.85878     -852.40496      3375         
      5960  -56.191428      0.23881981    -55.952609      0.029520714    205.28783     -1803.7779      3375         
      5970  -56.329926      0.34007758    -55.989849      0.029520714    292.32829      1022.6755      3375         
      5980  -56.336735      0.35703475    -55.9797        0.029520714    306.90456      1996.0394      3375         
      5990  -56.318193      0.30526865    -56.012924      0.029520714    262.40678     -452.60483      3375         
      6000  -56.391025      0.37226524    -56.01876       0.029520714    319.99658     -1639.7986      3375         
      6010  -56.465515      0.42989191    -56.035623      0.029520714    369.53206      125.84326      3375         
      6020  -56.414285      0.36841183    -56.045873      0.029520714    316.68421      816.11713      3375         
      6030  -56.271253      0.21320716    -56.058045      0.029520714    183.27138     -420.96917      3375         
      6040  -56.434087      0.36543687    -56.06865       0.029520714    314.12696     -99.88707       3375         
      6050  -56.341272      0.26906377    -56.072208      0.029520714    231.28533      1251.1713      3375         
      6060  -56.377347      0.28879092    -56.088556      0.029520714    248.24264     -536.10758      3375         
      6070  -56.414955      0.32286249    -56.092092      0.029520714    277.53032     -2330.8725      3375         
      6080  -56.44353       0.37200968    -56.07152       0.029520714    319.7769       536.70915      3375         
      6090  -56.311452      0.21933925    -56.092113      0.029520714    188.54248      2496.0477      3375         
      6100  -56.515669      0.40981984    -56.10585       0.029520714    352.27825     -166.64998      3375         
      6110  -56.407493      0.3154294     -56.092064      0.029520714    271.1409      -1578.4709      3375         
      6120  -56.393614      0.29379934    -56.099815      0.029520714    252.54784      510.08044      3375         
      6130  -56.34959       0.24466692    -56.104924      0.029520714    210.31396      1277.8634      3375         
      6140  -56.352083      0.24424718    -56.107836      0.029520714    209.95316     -878.84783      3375         
      6150  -56.390011      0.28952101    -56.10049       0.029520714    248.87022     -1632.7798      3375         
      6160  -56.43381       0.34433349    -56.089477      0.029520714    295.98664      550.98347      3375         
      6170  -56.446953      0.35393226    -56.09302       0.029520714    304.23768      1016.4073      3375         
      6180  -56.375664      0.28076282    -56.094901      0.029520714    241.34175     -696.31272      3375         
      6190  -56.449171      0.37321563    -56.075955      0.029520714    320.81353      286.89551      3375         
      6200  -56.382856      0.30649941    -56.076356      0.029520714    263.46473      2060.277       3375         
      6210  -56.389638      0.29152304    -56.098115      0.029520714    250.59116     -1013.6365      3375         
      6220  -56.257367      0.21327095    -56.044096      0.029520714    183.3262      -2768.2393      3375         
      6230  -56.43456       0.39268682    -56.041873      0.029520714    337.55083      445.40952      3375         
      6240  -56.378082      0.34583349    -56.032249      0.029520714    297.27603      2291.8923      3375         
      6250  -56.460307      0.44291289    -56.017394      0.029520714    380.7248       132.41928      3375         
      6260  -56.344         0.35235211    -55.991648      0.029520714    302.87939     -1292.2834      3375         
      6270  -56.32674       0.37163693    -55.955103      0.029520714    319.45649      246.47217      3375         
      6280  -56.325608      0.39427226    -55.931336      0.029520714    338.91366      837.05958      3375         
      6290  -56.281431      0.37400066    -55.90743       0.029520714    321.48834     -1064.0351      3375         
      6300  -56.302794      0.4348903     -55.867904      0.029520714    373.82864     -1111.4511      3375         
      6310  -56.20816       0.37445902    -55.833701      0.029520714    321.88234      1386.4964      3375         
      6320  -56.291853      0.48505515    -55.806798      0.029520714    416.94999      866.43373      3375         
      6330  -56.290743      0.5210251     -55.769718      0.029520714    447.86951     -1284.5869      3375         
      6340  -56.356465      0.62653713    -55.729927      0.029520714    538.56691      478.61969      3375         
      6350  -56.258786      0.54398523    -55.7148        0.029520714    467.60588      1818.0671      3375         
      6360  -56.279701      0.55458914    -55.725112      0.029520714    476.72092     -1252.1254      3375         
[...]
     48420  -56.357058      0.4196244     -55.937433      0.029520714    360.70618      1326.6181      3375         
     48430  -56.340935      0.43157718    -55.909358      0.029520714    370.98071      1348.0811      3375         
     48440  -56.35752       0.46747423    -55.890046      0.029520714    401.83756     -686.9064       3375         
     48450  -56.237241      0.37447323    -55.862767      0.029520714    321.89455     -1868.7056      3375         
     48460  -56.453221      0.61508415    -55.838137      0.029520714    528.72201     -718.09181      3375         
     48470  -56.271385      0.44284526    -55.828539      0.029520714    380.66667      1637.2735      3375         
     48480  -56.409173      0.6153261     -55.793846      0.029520714    528.92999      610.57961      3375         
     48490  -56.270307      0.47669806    -55.793609      0.029520714    409.7663      -1055.4156      3375         
     48500  -56.259177      0.45595276    -55.803224      0.029520714    391.93379      617.95034      3375         
     48510  -56.259168      0.48443841    -55.774729      0.029520714    416.41985      1135.2733      3375         
     48520  -56.407655      0.62289194    -55.784763      0.029520714    535.43353     -944.82724      3375         
     48530  -56.182876      0.38699097    -55.795885      0.029520714    332.65471     -1447.7019      3375         
     48540  -56.360547      0.55350822    -55.807039      0.029520714    475.79177     -401.33583      3375         
     48550  -56.518257      0.68352892    -55.834728      0.029520714    587.55665      1239.9959      3375         
     48560  -56.219645      0.3700836     -55.849562      0.029520714    318.12126      1131.5386      3375         
     48570  -56.276646      0.39859834    -55.878048      0.029520714    342.63233     -349.3487       3375         
     48580  -56.446022      0.53751396    -55.908508      0.029520714    462.04322      78.22621       3375         
     48590  -56.343097      0.40933527    -55.933762      0.029520714    351.86171      431.34016      3375         
     48600  -56.235218      0.2635241     -55.971693      0.029520714    226.52346     -1571.9952      3375         
     48610  -56.517574      0.53534566    -55.982228      0.029520714    460.17936     -1864.9272      3375         
     48620  -56.493566      0.46050918    -56.033057      0.029520714    395.85045      1039.7119      3375         
     48630  -56.289104      0.23610798    -56.052996      0.029520714    202.95676      2141.5299      3375         
     48640  -56.425229      0.35905385    -56.066176      0.029520714    308.64016      724.33449      3375         
     48650  -56.473996      0.38994336    -56.084053      0.029520714    335.19257     -532.06577      3375         
     48660  -56.442613      0.33355438    -56.109059      0.029520714    286.721       -1052.9353      3375         
     48670  -56.351472      0.22793848    -56.123534      0.029520714    195.93431     -376.14609      3375         
     48680  -56.537113      0.40676499    -56.130348      0.029520714    349.65233     -376.18597      3375         
     48690  -56.452737      0.30761452    -56.145123      0.029520714    264.42328     -590.22604      3375         
     48700  -56.506997      0.34823861    -56.158758      0.029520714    299.34346      954.50132      3375         
     48710  -56.413778      0.25953673    -56.154242      0.029520714    223.09595      2044.4244      3375         
     48720  -56.539735      0.37033976    -56.169395      0.029520714    318.34145     -248.92         3375         
     48730  -56.423207      0.24769837    -56.175509      0.029520714    212.91978     -1796.6144      3375         
     48740  -56.437724      0.26530413    -56.172419      0.029520714    228.05356     -483.73491      3375         
     48750  -56.498108      0.31347242    -56.184635      0.029520714    269.45869      699.12939      3375         
     48760  -56.567385      0.39094404    -56.176441      0.029520714    336.05275     -35.951906      3375         
     48770  -56.421552      0.23900869    -56.182543      0.029520714    205.45018     -389.89698      3375         
     48780  -56.449472      0.25749339    -56.191979      0.029520714    221.3395       874.07021      3375         
     48790  -56.584884      0.41170487    -56.173179      0.029520714    353.89861      1012.4667      3375         
     48800  -56.460665      0.27931064    -56.181354      0.029520714    240.09346     -576.54455      3375         
     48810  -56.368186      0.18900173    -56.179184      0.029520714    162.46456     -1443.5369      3375         
     48820  -56.518002      0.34110305    -56.176899      0.029520714    293.20978     -364.33906      3375         
     48830  -56.564872      0.39044641    -56.174425      0.029520714    335.62499      1047.0369      3375         
     48840  -56.379664      0.22029379    -56.15937       0.029520714    189.36299      370.2686       3375         
     48850  -56.471807      0.3125891     -56.159218      0.029520714    268.69939     -418.36077      3375         
     48860  -56.558745      0.4060392     -56.152706      0.029520714    349.02844      915.96302      3375         
     48870  -56.381444      0.2442757     -56.137168      0.029520714    209.97767      404.07944      3375         
     48880  -56.403662      0.26588213    -56.13778       0.029520714    228.55041     -1728.1145      3375         
     48890  -56.499487      0.38564002    -56.113847      0.029520714    331.49345     -1038.1057      3375         
     48900  -56.519945      0.41745622    -56.102489      0.029520714    358.84243      852.11549      3375         
     48910  -56.328889      0.24537676    -56.083513      0.029520714    210.92413      1413.1552      3375         
     48920  -56.417705      0.35088176    -56.066823      0.029520714    301.61549      483.68081      3375         
     48930  -56.458         0.41618953    -56.04181       0.029520714    357.7536      -745.8081       3375         
     48940  -56.533097      0.52016376    -56.012933      0.029520714    447.12911     -322.41747      3375         
     48950  -56.240952      0.25362939    -55.987323      0.029520714    218.01804      92.865281      3375         
     48960  -56.348748      0.3835983     -55.96515       0.029520714    329.7384      -1573.2353      3375         
     48970  -56.492502      0.55502368    -55.937478      0.029520714    477.09445     -374.171        3375         
     48980  -56.348318      0.44439702    -55.903921      0.029520714    382.00055      2317.7081      3375         
     48990  -56.27852       0.41508124    -55.863438      0.029520714    356.80091      1178.646       3375         
     49000  -56.42365       0.57673717    -55.846913      0.029520714    495.75921     -799.49985      3375         
     49010  -56.396045      0.57091339    -55.825132      0.029520714    490.75313     -967.17992      3375         
     49020  -56.121338      0.31363298    -55.807705      0.029520714    269.59671     -448.97988      3375         
     49030  -56.41054       0.61317231    -55.797368      0.029520714    527.0786      -3.9306511      3375         
     49040  -56.34266       0.55011851    -55.792541      0.029520714    472.878       -399.42345      3375         
     49050  -56.25096       0.46629341    -55.784666      0.029520714    400.82254     -136.77418      3375         
     49060  -56.191536      0.39492831    -55.796608      0.029520714    339.4776       1923.9967      3375         
     49070  -56.575123      0.78477638    -55.790347      0.029520714    674.58825      867.35828      3375         
     49080  -56.276757      0.46284685    -55.813911      0.029520714    397.85989     -1542.3497      3375         
     49090  -56.229128      0.39883874    -55.830289      0.029520714    342.83897     -1228.8683      3375         
     49100  -56.342735      0.49057522    -55.85216       0.029520714    421.69501      216.18173      3375         
     49110  -56.328677      0.45385257    -55.874825      0.029520714    390.12848      323.03921      3375         
     49120  -56.333671      0.43959848    -55.894072      0.029520714    377.87576      113.93838      3375         
     49130  -56.347539      0.42410774    -55.923432      0.029520714    364.56003      557.2014       3375         
     49140  -56.457457      0.49747946    -55.959978      0.029520714    427.62985      801.35997      3375         
     49150  -56.342253      0.372577      -55.969676      0.029520714    320.26457      178.69453      3375         
     49160  -56.47328       0.46485766    -56.008422      0.029520714    399.58837     -1459.9305      3375         
     49170  -56.339502      0.31911921    -56.020382      0.029520714    274.31263     -1454.5745      3375         
     49180  -56.520379      0.47656262    -56.043816      0.029520714    409.64988      592.77414      3375         
     49190  -56.353616      0.29469304    -56.058923      0.029520714    253.31606      1556.3         3375         
     49200  -56.337764      0.2752689     -56.062495      0.029520714    236.61921      248.21691      3375         
     49210  -56.540974      0.46996587    -56.071008      0.029520714    403.97935     -80.711247      3375         
     49220  -56.548495      0.46827888    -56.080216      0.029520714    402.52923      67.390494      3375         
     49230  -56.354185      0.27052567    -56.083659      0.029520714    232.54196     -993.2358       3375         
     49240  -56.3385        0.24936531    -56.089135      0.029520714    214.35266     -1078.1093      3375         
     49250  -56.598054      0.4967101     -56.101343      0.029520714    426.96851      134.11226      3375         
     49260  -56.351457      0.257273      -56.094184      0.029520714    221.15006      1168.5942      3375         
     49270  -56.443118      0.35556697    -56.087551      0.029520714    305.64287      1162.8918      3375         
     49280  -56.44427       0.34710133    -56.097168      0.029520714    298.36586      143.43246      3375         
     49290  -56.496688      0.39883678    -56.097852      0.029520714    342.83729     -1124.5517      3375         
     49300  -56.407547      0.30697594    -56.100571      0.029520714    263.87436     -472.16694      3375         
     49310  -56.503387      0.39998228    -56.103405      0.029520714    343.82196     -82.78404       3375         
     49320  -56.44139       0.33563177    -56.105758      0.029520714    288.50671     -764.93575      3375         
     49330  -56.339603      0.23448786    -56.105115      0.029520714    201.56412      264.76158      3375         
     49340  -56.469838      0.35813251    -56.111705      0.029520714    307.84819      1619.7844      3375         
     49350  -56.469137      0.36521583    -56.103921      0.029520714    313.93696      522.89507      3375         
     49360  -56.534369      0.42614361    -56.108225      0.029520714    366.31005     -736.79021      3375         
     49370  -56.420401      0.30966238    -56.110739      0.029520714    266.18361     -673.95305      3375         
     49380  -56.434576      0.32304388    -56.111533      0.029520714    277.68625     -564.32587      3375         
     49390  -56.415777      0.30082778    -56.114949      0.029520714    258.58944      220.4812       3375         
     49400  -56.538089      0.42870845    -56.109381      0.029520714    368.51477     -19.420885      3375         
     49410  -56.350354      0.23780214    -56.112552      0.029520714    204.41305      34.356365      3375         
     49420  -56.411178      0.29934808    -56.11183       0.029520714    257.3175       1493.4555      3375         
     49430  -56.545431      0.44139043    -56.10404       0.029520714    379.41611      423.252        3375         
     49440  -56.432251      0.32245406    -56.109797      0.029520714    277.17924     -1807.5162      3375         
     49450  -56.486598      0.3819227     -56.104675      0.029520714    328.29807     -725.50636      3375         
     49460  -56.445507      0.33890283    -56.106604      0.029520714    291.31849      686.17272      3375         
     49470  -56.451669      0.34607365    -56.105596      0.029520714    297.48247      364.67022      3375         
     49480  -56.262997      0.16055215    -56.102445      0.029520714    138.0095       412.47617      3375         
     49490  -56.572011      0.47197616    -56.100035      0.029520714    405.70739      25.554132      3375         
     49500  -56.469776      0.37404163    -56.095735      0.029520714    321.52355      84.728042      3375         
     49510  -56.442715      0.35103478    -56.09168       0.029520714    301.74703     -405.11807      3375         
     49520  -56.34702       0.25964341    -56.087377      0.029520714    223.18765     -1212.1953      3375         
     49530  -56.547448      0.45119243    -56.096255      0.029520714    387.84184      213.76608      3375         
     49540  -56.390718      0.31747394    -56.073244      0.029520714    272.89836      1574.8232      3375         
     49550  -56.371102      0.29704762    -56.074055      0.029520714    255.34004      78.104088      3375         
     49560  -56.400037      0.32986426    -56.070173      0.029520714    283.54899     -538.61614      3375         
     49570  -56.409958      0.34915874    -56.060799      0.029520714    300.13439      158.10975      3375         
     49580  -56.528769      0.47363388    -56.055135      0.029520714    407.13235     -208.19893      3375         
     49590  -56.413745      0.36773371    -56.046011      0.029520714    316.10131     -707.76143      3375         
     49600  -56.441949      0.40343028    -56.038519      0.029520714    346.78583     -601.60301      3375         
     49610  -56.344622      0.31263612    -56.031986      0.029520714    268.73981      753.212        3375         
     49620  -56.37974       0.35672438    -56.023016      0.029520714    306.63777      1361.4592      3375         
     49630  -56.328239      0.31259507    -56.015643      0.029520714    268.70453      293.6697       3375         
     49640  -56.538237      0.53461089    -56.003626      0.029520714    459.54776     -805.38832      3375         
     49650  -56.368415      0.37319775    -55.995217      0.029520714    320.79816     -613.18077      3375         
     49660  -56.30184       0.31529155    -55.986549      0.029520714    271.02239     -364.84243      3375         
     49670  -56.507591      0.52667274    -55.980918      0.029520714    452.72418     -638.2574       3375         
     49680  -56.427208      0.45565221    -55.971555      0.029520714    391.67543      183.21828      3375         
     49690  -56.281291      0.30388016    -55.97741       0.029520714    261.21325      1770.2998      3375         
     49700  -56.273013      0.32555924    -55.947454      0.029520714    279.84843      946.84381      3375         
     49710  -56.48868       0.53672974    -55.951951      0.029520714    461.3691      -1162.1805      3375         
     49720  -56.268046      0.3208949     -55.947151      0.029520714    275.839       -1061.7352      3375         
     49730  -56.498174      0.55084521    -55.947328      0.029520714    473.50266     -479.23394      3375         
     49740  -56.435523      0.48838673    -55.947137      0.029520714    419.8138       376.52966      3375         
     49750  -56.273502      0.32261347    -55.950888      0.029520714    277.31627      699.98023      3375         
     49760  -56.275347      0.32022265    -55.955125      0.029520714    275.26114      328.02685      3375         
     49770  -56.495038      0.53436966    -55.960668      0.029520714    459.3404       530.48353      3375         
     49780  -56.407779      0.43659711    -55.971181      0.029520714    375.29581     -97.245884      3375         
     49790  -56.268581      0.28572583    -55.982855      0.029520714    245.60791     -1538.1403      3375         
     49800  -56.481725      0.48847779    -55.993248      0.029520714    419.89207     -624.02727      3375         
     49810  -56.44153       0.4244379     -56.017092      0.029520714    364.84383      936.94638      3375         
     49820  -56.471426      0.43633435    -56.035092      0.029520714    375.06993      276.87084      3375         
     49830  -56.291846      0.23621351    -56.055633      0.029520714    203.04747      334.95903      3375         
     49840  -56.424796      0.3557448     -56.069051      0.029520714    305.79573      639.84827      3375         
     49850  -56.414352      0.32603852    -56.088314      0.029520714    280.26041     -112.76112      3375         
     49860  -56.50896       0.39855487    -56.110405      0.029520714    342.59496     -643.30213      3375         
     49870  -56.443603      0.31111425    -56.132489      0.029520714    267.43162     -860.72256      3375         
     49880  -56.486618      0.33420429    -56.152414      0.029520714    287.27965     -652.96803      3375         
     49890  -56.526993      0.35234252    -56.174651      0.029520714    302.87115      817.3706       3375         
     49900  -56.392004      0.2083125     -56.183692      0.029520714    179.06396      1374.6706      3375         
     49910  -56.526846      0.32722332    -56.199622      0.029520714    281.27886      237.38764      3375         
     49920  -56.490272      0.27771045    -56.212562      0.029520714    238.71795     -266.9792       3375         
     49930  -56.477239      0.25578862    -56.221451      0.029520714    219.8741      -796.3441       3375         
     49940  -56.460976      0.23349628    -56.22748       0.029520714    200.71176     -1138.6574      3375         
     49950  -56.644542      0.40568317    -56.238859      0.029520714    348.7224      -114.40773      3375         
     49960  -56.445543      0.19820059    -56.247342      0.029520714    170.37183      980.7278       3375         
     49970  -56.478554      0.23130267    -56.247252      0.029520714    198.82615      848.96083      3375         
     49980  -56.53464       0.29270043    -56.24194       0.029520714    251.60323      536.88534      3375         
     49990  -56.504727      0.25486443    -56.249863      0.029520714    219.07967     -568.27435      3375         
     50000  -56.471343      0.22084804    -56.250495      0.029520714    189.83942     -1070.9543      3375         
Loop time of 86.5311 on 3 procs for 50000 steps with 10 atoms

Performance: 24.962 ns/day, 0.961 hours/ns, 577.827 timesteps/s, 5.778 katom-step/s
166.8% CPU use with 3 MPI tasks x no OpenMP threads

MPI task timing breakdown:
Section |  min time  |  avg time  |  max time  |%varavg| %total
---------------------------------------------------------------
Pair    | 32.233     | 49.388     | 81.821     | 326.5 | 57.08
Neigh   | 0.0010455  | 0.0013746  | 0.0019589  |   1.1 |  0.00
Comm    | 1.9658     | 34.321     | 51.452     | 390.8 | 39.66
Output  | 0.50741    | 0.51958    | 0.5389     |   1.9 |  0.60
Modify  | 1.9721     | 2.0608     | 2.1503     |   5.1 |  2.38
Other   |            | 0.2401     |            |       |  0.28

Nlocal:        3.33333 ave          10 max           0 min
Histogram: 2 0 0 0 0 0 0 0 0 1
Nghost:        68.6667 ave          86 max          42 min
Histogram: 1 0 0 0 0 0 0 0 1 1
Neighs:              0 ave           0 max           0 min
Histogram: 3 0 0 0 0 0 0 0 0 0
FullNghs:           30 ave          90 max           0 min
Histogram: 2 0 0 0 0 0 0 0 0 1

Total # of neighbors = 90
Ave neighs/atom = 9
Neighbor list builds = 218
Dangerous builds = 0

write_data	restart.data
System init for write_data ...
Generated 0 of 1 mixed pair_coeff terms from geometric mixing rule
#
Total wall time: 0:01:28
