LAMMPS data file via write_data, version 2 Aug 2023, timestep = 50000, units = metal

10 atoms
2 atom types

0 15 xlo xhi
0 15 ylo yhi
0 15 zlo zhi

Masses

1 12
2 2

Atoms # atomic

7 2 8.533218249168131 7.614584462077936 6.233257410815304 0 0 0
8 2 7.681284792662819 6.749086246011035 9.036599328346206 0 0 0
9 2 6.342067555810312 6.087096823739128 6.346646382700146 0 0 0
1 1 8.032935903316455 9.217161280135095 7.491985372556715 0 0 0
2 1 8.02352833527067 7.922815108729174 7.1726290711797995 0 0 0
3 1 7.365094078113884 6.916020256904885 7.988600814861932 0 0 0
4 1 6.593955263592364 5.976918344393783 7.362503196212872 0 0 0
6 2 7.577906131560565 9.661652814696343 8.432228010889462 0 0 0
5 2 8.63592193685138 9.894746053980706 6.909379226676395 0 0 0
10 2 6.260519852968069 5.015343659950363 7.8365789102128405 0 0 0

Velocities

7 7.087201483315267 -4.591242858587819 -0.8760071900004864
8 0.530472537431608 -9.559791302988893 -15.270052313061178
9 -10.321861880760263 34.316476205421715 -13.797626999374478
1 -4.128200480519099 6.6799058871243195 5.991260294704884
2 2.0443635900866317 -2.9659061606706554 1.1247742180204519
3 -1.3521888065466316 -5.530156653902427 -5.458785555947499
4 7.44314733056062 -0.892766679826327 4.901741270885099
6 -11.87584917784911 -6.045202243948262 -8.271119829296875
5 8.115086069446408 -7.6311236423624775 0.9118619299444766
10 -17.577778833073094 9.764425486113916 -2.0509969641901873
