LAMMPS data file via write_data, version 2 Aug 2023, timestep = 50000, units = metal

10 atoms
2 atom types

0 15 xlo xhi
0 15 ylo yhi
0 15 zlo zhi

Masses

1 12
2 2

Atoms # atomic

5 2 8.811686728631217 9.807569478736678 6.621135163158679 0 0 0
9 2 8.107859495331061 6.414129359130814 9.14881937924826 0 0 0
1 1 8.256774138211576 9.048109977511409 7.176339213863648 0 0 0
2 1 7.666966690792554 7.935836560252826 6.714908725720383 0 0 0
3 1 6.8760791786561 6.863799933483046 7.440410711252104 0 0 0
6 2 8.202156325832105 9.427768020828042 8.209032355446315 0 0 0
4 1 7.183765368262135 6.14213739127793 8.551127254999729 0 0 0
7 2 7.708000820477396 7.6392260189883165 5.669085708161258 0 0 0
8 2 5.933916260431267 6.56417505415044 6.887412353164159 0 0 0
10 2 6.458868114522254 5.427828894448674 9.056799604321432 0 0 0

Velocities

5 -10.37007376993441 0.8215740942824897 4.532582277931394
9 2.8291760873423857 -14.816586996950127 3.5684905085877037
1 -4.911202575061558 -2.3679769974356 1.5125487688024268
2 1.8464263674851822 4.746683467940562 2.0099638103959125
3 -1.593883275637095 4.043743656501437 -3.009734841717116
6 10.943142023334696 3.4106047408074973 -7.9143639324369515
4 3.8646234740749943 -1.6778720828152547 -0.5441133583022633
7 14.732183082445523 1.3031603412656674 14.846758867908566
8 -8.324634735472666 -12.844959896851085 -13.361449904217961
10 -5.045576632884203 -6.341260547700521 -1.4840040928463
