ITEM: TIMESTEP
0
ITEM: NUMBER OF ATOMS
10
ITEM: BOX BOUNDS pp pp pp
0.0000000000000000e+00 1.5000000000000000e+01
0.0000000000000000e+00 1.5000000000000000e+01
0.0000000000000000e+00 1.5000000000000000e+01
ITEM: ATOMS id type x y z
10 2 5.6656 8.19437 8.29649
4 1 6.45191 8.14575 7.57767
7 2 9.14293 6.39104 6.74604
8 2 6.37429 6.29489 6.17457
9 2 6.60228 9.13624 7.10742
1 1 8.23778 7.93483 8.26931
3 1 7.02288 6.92415 6.84102
2 1 8.28954 6.83703 7.18952
6 2 8.307 7.49773 9.22061
5 2 9.01919 8.65513 8.07874
ITEM: TIMESTEP
100
ITEM: NUMBER OF ATOMS
10
ITEM: BOX BOUNDS pp pp pp
0.0000000000000000e+00 1.5000000000000000e+01
0.0000000000000000e+00 1.5000000000000000e+01
0.0000000000000000e+00 1.5000000000000000e+01
ITEM: ATOMS id type x y z
10 2 5.55724 7.81528 8.13161
4 1 6.47288 8.11847 7.53304
7 2 9.30815 6.41299 7.06726
8 2 6.81232 6.24646 5.90385
9 2 6.37755 9.06314 6.99795
1 1 8.15097 7.90927 8.31124
3 1 7.08522 6.91184 6.72748
2 1 8.33869 6.93508 7.28761
6 2 8.06178 7.56398 9.41501
5 2 8.72035 8.87012 8.2171
ITEM: TIMESTEP
200
ITEM: NUMBER OF ATOMS
10
ITEM: BOX BOUNDS pp pp pp
0.0000000000000000e+00 1.5000000000000000e+01
0.0000000000000000e+00 1.5000000000000000e+01
0.0000000000000000e+00 1.5000000000000000e+01
ITEM: ATOMS id type x y z
10 2 5.74632 7.47048 8.12004
4 1 6.46287 7.99004 7.45689
7 2 9.18006 6.20908 7.3808
8 2 7.04811 6.52488 5.6274
9 2 5.93523 8.94493 7.11079
1 1 8.04331 7.99567 8.3829
3 1 7.25246 7.00196 6.58518
2 1 8.3354 6.91178 7.41061
6 2 8.06524 7.73397 9.45872
5 2 8.58479 8.93993 8.17769
ITEM: TIMESTEP
300
ITEM: NUMBER OF ATOMS
10
ITEM: BOX BOUNDS pp pp pp
0.0000000000000000e+00 1.5000000000000000e+01
0.0000000000000000e+00 1.5000000000000000e+01
0.0000000000000000e+00 1.5000000000000000e+01
ITEM: ATOMS id type x y z
10 2 5.60337 7.63953 7.94604
4 1 6.45786 7.91994 7.3517
7 2 9.38106 6.6286 7.20602
8 2 7.04979 6.28545 5.77085
9 2 6.40017 8.8611 6.88649
1 1 7.89514 8.01371 8.46478
3 1 7.3106 6.93314 6.65086
2 1 8.40231 7.03206 7.36895
6 2 7.85485 7.49301 9.39294
5 2 8.43933 8.91925 8.66894
ITEM: TIMESTEP
400
ITEM: NUMBER OF ATOMS
10
ITEM: BOX BOUNDS pp pp pp
0.0000000000000000e+00 1.5000000000000000e+01
0.0000000000000000e+00 1.5000000000000000e+01
0.0000000000000000e+00 1.5000000000000000e+01
ITEM: ATOMS id type x y z
10 2 5.55283 7.50625 7.76921
4 1 6.49726 7.87484 7.35119
7 2 9.44319 6.71566 7.43586
8 2 7.27479 6.29099 5.7326
9 2 6.22472 8.75851 6.73943
1 1 7.85143 7.99758 8.5078
3 1 7.3832 6.93088 6.56248
2 1 8.39719 7.11118 7.42529
6 2 7.63467 7.46702 9.44858
5 2 8.21928 8.99468 8.68271
ITEM: TIMESTEP
500
ITEM: NUMBER OF ATOMS
10
ITEM: BOX BOUNDS pp pp pp
0.0000000000000000e+00 1.5000000000000000e+01
0.0000000000000000e+00 1.5000000000000000e+01
0.0000000000000000e+00 1.5000000000000000e+01
ITEM: ATOMS id type x y z
10 2 5.74967 7.07109 7.76525
4 1 6.45393 7.78271 7.2787
7 2 9.33852 6.52677 7.68934
8 2 7.52595 6.67274 5.46355
9 2 5.95658 8.64572 6.76115
1 1 7.7241 7.98944 8.5112
3 1 7.52438 7.04982 6.52201
2 1 8.42126 7.08489 7.54624
6 2 7.66435 7.81201 9.60444
5 2 8.1469 9.05054 8.45639
ITEM: TIMESTEP
600
ITEM: NUMBER OF ATOMS
10
ITEM: BOX BOUNDS pp pp pp
0.0000000000000000e+00 1.5000000000000000e+01
0.0000000000000000e+00 1.5000000000000000e+01
0.0000000000000000e+00 1.5000000000000000e+01
ITEM: ATOMS id type x y z
10 2 5.46218 7.3278 7.39572
4 1 6.44872 7.72731 7.14437
7 2 9.58578 7.15909 7.51848
8 2 7.57237 6.4827 5.64651
9 2 6.36878 8.67893 6.69682
1 1 7.56985 7.9363 8.56259
3 1 7.60065 6.92952 6.64256
2 1 8.51249 7.27709 7.55266
6 2 7.48593 7.40455 9.49114
5 2 7.85871 8.94564 8.72726
ITEM: TIMESTEP
700
ITEM: NUMBER OF ATOMS
10
ITEM: BOX BOUNDS pp pp pp
0.0000000000000000e+00 1.5000000000000000e+01
0.0000000000000000e+00 1.5000000000000000e+01
0.0000000000000000e+00 1.5000000000000000e+01
ITEM: ATOMS id type x y z
10 2 5.58661 7.02964 7.17144
4 1 6.41606 7.66649 7.11217
7 2 9.615 7.24201 7.94814
8 2 7.96586 6.42205 5.74782
9 2 6.1098 8.55242 6.49197
1 1 7.52585 7.94125 8.55294
3 1 7.71478 7.03201 6.59819
2 1 8.53351 7.30086 7.62343
6 2 7.18256 7.31192 9.38156
5 2 7.52297 9.01832 8.82768
ITEM: TIMESTEP
800
ITEM: NUMBER OF ATOMS
10
ITEM: BOX BOUNDS pp pp pp
0.0000000000000000e+00 1.5000000000000000e+01
0.0000000000000000e+00 1.5000000000000000e+01
0.0000000000000000e+00 1.5000000000000000e+01
ITEM: ATOMS id type x y z
10 2 5.86941 6.59225 7.25488
4 1 6.44976 7.56117 7.00188
7 2 9.46745 6.96107 8.0533
8 2 8.17865 6.77294 5.59741
9 2 5.76053 8.27297 6.51655
1 1 7.4122 7.96812 8.5298
3 1 7.85885 7.20853 6.57801
2 1 8.49188 7.26902 7.78195
6 2 7.06703 7.46661 9.48464
5 2 7.50483 9.11309 8.63238
ITEM: TIMESTEP
900
ITEM: NUMBER OF ATOMS
10
ITEM: BOX BOUNDS pp pp pp
0.0000000000000000e+00 1.5000000000000000e+01
0.0000000000000000e+00 1.5000000000000000e+01
0.0000000000000000e+00 1.5000000000000000e+01
ITEM: ATOMS id type x y z
10 2 5.69102 6.72053 6.94053
4 1 6.47698 7.51892 6.9214
7 2 9.62289 7.5516 7.92308
8 2 8.24136 6.5599 5.76012
9 2 6.21711 8.53124 6.51063
1 1 7.29169 7.89207 8.5719
3 1 7.89608 7.06865 6.64725
2 1 8.51504 7.47638 7.76845
6 2 6.99789 7.21441 9.3731
5 2 7.27502 8.90624 8.92758
ITEM: TIMESTEP
1000
ITEM: NUMBER OF ATOMS
10
ITEM: BOX BOUNDS pp pp pp
0.0000000000000000e+00 1.5000000000000000e+01
0.0000000000000000e+00 1.5000000000000000e+01
0.0000000000000000e+00 1.5000000000000000e+01
ITEM: ATOMS id type x y z
10 2 5.87891 6.61951 6.8062
4 1 6.53034 7.45601 6.92373
7 2 9.50514 7.57109 8.16454
8 2 8.49266 6.70292 5.7464
9 2 6.05956 8.29094 6.39284
1 1 7.23543 7.89498 8.61623
3 1 7.971 7.12952 6.60634
2 1 8.47169 7.49248 7.79044
6 2 6.80561 7.23691 9.35171
5 2 7.13137 8.96072 8.80681
ITEM: TIMESTEP
1100
ITEM: NUMBER OF ATOMS
10
ITEM: BOX BOUNDS pp pp pp
0.0000000000000000e+00 1.5000000000000000e+01
0.0000000000000000e+00 1.5000000000000000e+01
0.0000000000000000e+00 1.5000000000000000e+01
ITEM: ATOMS id type x y z
10 2 6.1705 6.27237 6.97314
4 1 6.59841 7.33895 6.85464
7 2 9.41947 7.40611 8.31744
8 2 8.59289 7.07582 5.67087
9 2 6.00748 8.0476 6.29884
1 1 7.11249 7.88598 8.53979
3 1 8.04345 7.30823 6.61784
2 1 8.43841 7.45802 7.89958
6 2 6.64751 7.43977 9.50019
5 2 7.12959 9.03131 8.65743
ITEM: TIMESTEP
1200
ITEM: NUMBER OF ATOMS
10
ITEM: BOX BOUNDS pp pp pp
0.0000000000000000e+00 1.5000000000000000e+01
0.0000000000000000e+00 1.5000000000000000e+01
0.0000000000000000e+00 1.5000000000000000e+01
ITEM: ATOMS id type x y z
10 2 5.98783 6.43922 6.59759
4 1 6.65598 7.2681 6.77982
7 2 9.40136 8.10148 8.31503
8 2 8.65304 6.76224 5.87828
9 2 6.30796 8.2256 6.28069
1 1 6.98927 7.80408 8.49891
3 1 8.16911 7.204 6.70931
2 1 8.40079 7.70981 7.94476
6 2 6.76603 6.95713 9.23335
5 2 6.71687 8.81834 8.98725
ITEM: TIMESTEP
1300
ITEM: NUMBER OF ATOMS
10
ITEM: BOX BOUNDS pp pp pp
0.0000000000000000e+00 1.5000000000000000e+01
0.0000000000000000e+00 1.5000000000000000e+01
0.0000000000000000e+00 1.5000000000000000e+01
ITEM: ATOMS id type x y z
10 2 6.27627 6.21152 6.59514
4 1 6.68925 7.23188 6.74541
7 2 9.16053 8.04395 8.67739
8 2 8.97112 7.01311 5.99657
9 2 6.22515 7.89384 6.04823
1 1 6.95596 7.78032 8.47546
3 1 8.20522 7.29119 6.75225
2 1 8.38505 7.7725 7.98809
6 2 6.66139 6.95782 9.06149
5 2 6.41664 8.64443 8.74287
ITEM: TIMESTEP
1400
ITEM: NUMBER OF ATOMS
10
ITEM: BOX BOUNDS pp pp pp
0.0000000000000000e+00 1.5000000000000000e+01
0.0000000000000000e+00 1.5000000000000000e+01
0.0000000000000000e+00 1.5000000000000000e+01
ITEM: ATOMS id type x y z
10 2 6.54698 6.06612 6.71446
4 1 6.7651 7.14859 6.68463
7 2 9.21082 7.83231 8.79209
8 2 8.95677 7.44848 5.96828
9 2 6.07326 7.63292 5.97085
1 1 6.85905 7.74855 8.3845
3 1 8.23355 7.42087 6.7944
2 1 8.35687 7.74568 8.10019
6 2 6.54577 7.08659 9.19469
5 2 6.50295 8.77145 8.46632
ITEM: TIMESTEP
1500
ITEM: NUMBER OF ATOMS
10
ITEM: BOX BOUNDS pp pp pp
0.0000000000000000e+00 1.5000000000000000e+01
0.0000000000000000e+00 1.5000000000000000e+01
0.0000000000000000e+00 1.5000000000000000e+01
ITEM: ATOMS id type x y z
10 2 6.41474 6.10865 6.39722
4 1 6.81097 7.09919 6.63681
7 2 9.09921 8.29647 8.71614
8 2 9.0899 7.24784 6.17539
9 2 6.30278 7.89436 6.03827
1 1 6.8483 7.6821 8.34726
3 1 8.28933 7.35377 6.87965
2 1 8.28314 7.89876 8.10108
6 2 6.64936 6.90683 9.13658
5 2 6.17748 8.56295 8.63664
ITEM: TIMESTEP
1600
ITEM: NUMBER OF ATOMS
10
ITEM: BOX BOUNDS pp pp pp
0.0000000000000000e+00 1.5000000000000000e+01
0.0000000000000000e+00 1.5000000000000000e+01
0.0000000000000000e+00 1.5000000000000000e+01
ITEM: ATOMS id type x y z
10 2 6.60301 6.01436 6.33006
4 1 6.85365 7.03923 6.64235
7 2 8.89947 8.31214 8.83723
8 2 9.31569 7.37553 6.30294
9 2 6.42405 7.66488 5.91475
1 1 6.77937 7.69763 8.3596
3 1 8.34838 7.43875 6.89325
2 1 8.21329 7.92254 8.11627
6 2 6.67134 6.79736 8.98352
5 2 6.04233 8.46682 8.45163
ITEM: TIMESTEP
1700
ITEM: NUMBER OF ATOMS
10
ITEM: BOX BOUNDS pp pp pp
0.0000000000000000e+00 1.5000000000000000e+01
0.0000000000000000e+00 1.5000000000000000e+01
0.0000000000000000e+00 1.5000000000000000e+01
ITEM: ATOMS id type x y z
10 2 6.93684 5.87665 6.61619
4 1 7.03831 6.93681 6.59295
7 2 8.892 8.16554 9.02972
8 2 9.1742 7.86931 6.29631
9 2 6.42368 7.43355 5.79587
1 1 6.64681 7.62106 8.26198
3 1 8.35299 7.58556 6.90894
2 1 8.17933 7.89749 8.21247
6 2 6.27409 7.06096 9.08647
5 2 6.11854 8.56843 8.20643
ITEM: TIMESTEP
1800
ITEM: NUMBER OF ATOMS
10
ITEM: BOX BOUNDS pp pp pp
0.0000000000000000e+00 1.5000000000000000e+01
0.0000000000000000e+00 1.5000000000000000e+01
0.0000000000000000e+00 1.5000000000000000e+01
ITEM: ATOMS id type x y z
10 2 6.96546 5.83616 6.40056
4 1 7.16577 6.96879 6.56526
7 2 8.63004 8.55066 8.94798
8 2 9.406 7.59163 6.50235
9 2 6.5979 7.56268 5.82824
1 1 6.61474 7.53902 8.21346
3 1 8.43485 7.52134 7.02979
2 1 7.99586 8.08521 8.17122
6 2 6.4537 6.69242 8.9307
5 2 5.80361 8.30025 8.40073
ITEM: TIMESTEP
1900
ITEM: NUMBER OF ATOMS
10
ITEM: BOX BOUNDS pp pp pp
0.0000000000000000e+00 1.5000000000000000e+01
0.0000000000000000e+00 1.5000000000000000e+01
0.0000000000000000e+00 1.5000000000000000e+01
ITEM: ATOMS id type x y z
10 2 7.24752 5.85294 6.39586
4 1 7.17068 6.91662 6.56844
7 2 8.33564 8.59827 9.04839
8 2 9.53086 7.62307 6.67063
9 2 6.7484 7.41433 5.6956
1 1 6.56701 7.52951 8.19026
3 1 8.49972 7.60832 7.07434
2 1 7.94856 8.11831 8.17386
6 2 6.50273 6.58124 8.77829
5 2 5.643 8.11356 8.2588
ITEM: TIMESTEP
2000
ITEM: NUMBER OF ATOMS
10
ITEM: BOX BOUNDS pp pp pp
0.0000000000000000e+00 1.5000000000000000e+01
0.0000000000000000e+00 1.5000000000000000e+01
0.0000000000000000e+00 1.5000000000000000e+01
ITEM: ATOMS id type x y z
10 2 7.50787 5.79238 6.61706
4 1 7.32905 6.84211 6.56112
7 2 8.36329 8.52518 9.19078
8 2 9.28023 8.06302 6.51761
9 2 6.75526 7.15908 5.71578
1 1 6.53149 7.5027 8.09022
3 1 8.41439 7.74077 7.07517
2 1 7.93433 8.00879 8.2956
6 2 6.16117 6.80991 8.81869
5 2 5.80065 8.30414 7.89643
ITEM: TIMESTEP
2100
ITEM: NUMBER OF ATOMS
10
ITEM: BOX BOUNDS pp pp pp
0.0000000000000000e+00 1.5000000000000000e+01
0.0000000000000000e+00 1.5000000000000000e+01
0.0000000000000000e+00 1.5000000000000000e+01
ITEM: ATOMS id type x y z
10 2 7.53875 5.72779 6.31428
4 1 7.38872 6.8555 6.5491
7 2 8.09074 8.89898 9.02199
8 2 9.46062 7.89349 6.74358
9 2 6.8134 7.34497 5.73254
1 1 6.52439 7.44104 8.0481
3 1 8.46502 7.65672 7.1795
2 1 7.82408 8.16471 8.27698
6 2 6.39409 6.59862 8.76772
5 2 5.6131 8.04836 7.98681
ITEM: TIMESTEP
2200
ITEM: NUMBER OF ATOMS
10
ITEM: BOX BOUNDS pp pp pp
0.0000000000000000e+00 1.5000000000000000e+01
0.0000000000000000e+00 1.5000000000000000e+01
0.0000000000000000e+00 1.5000000000000000e+01
ITEM: ATOMS id type x y z
10 2 7.75406 5.77006 6.35808
4 1 7.40859 6.81133 6.54908
7 2 7.91138 8.89133 9.1102
8 2 9.52384 7.92026 7.00682
9 2 7.00929 7.19383 5.52155
1 1 6.50814 7.42008 8.03666
3 1 8.49242 7.71296 7.24892
2 1 7.74943 8.23267 8.23796
6 2 6.45485 6.47443 8.58385
5 2 5.51906 7.90784 7.87278
ITEM: TIMESTEP
2300
ITEM: NUMBER OF ATOMS
10
ITEM: BOX BOUNDS pp pp pp
0.0000000000000000e+00 1.5000000000000000e+01
0.0000000000000000e+00 1.5000000000000000e+01
0.0000000000000000e+00 1.5000000000000000e+01
ITEM: ATOMS id type x y z
10 2 7.98665 5.78288 6.80459
4 1 7.60094 6.76812 6.56143
7 2 8.01161 8.71012 9.20487
8 2 9.30902 8.28691 6.84442
9 2 7.21569 6.8723 5.59844
1 1 6.46768 7.37842 7.91601
3 1 8.38493 7.86036 7.25336
2 1 7.68107 8.14349 8.32662
6 2 6.0644 6.57782 8.51131
5 2 5.72894 8.08763 7.58083
ITEM: TIMESTEP
2400
ITEM: NUMBER OF ATOMS
10
ITEM: BOX BOUNDS pp pp pp
0.0000000000000000e+00 1.5000000000000000e+01
0.0000000000000000e+00 1.5000000000000000e+01
0.0000000000000000e+00 1.5000000000000000e+01
ITEM: ATOMS id type x y z
10 2 8.07317 5.75187 6.57365
4 1 7.70689 6.76759 6.60954
7 2 7.66552 9.04408 9.04473
8 2 9.50119 8.19814 7.1913
9 2 7.38675 7.09947 5.62938
1 1 6.42463 7.27435 7.83201
3 1 8.45526 7.85143 7.34109
2 1 7.54423 8.2722 8.28403
6 2 6.26482 6.39105 8.4972
5 2 5.44651 7.74189 7.55277
ITEM: TIMESTEP
2500
ITEM: NUMBER OF ATOMS
10
ITEM: BOX BOUNDS pp pp pp
0.0000000000000000e+00 1.5000000000000000e+01
0.0000000000000000e+00 1.5000000000000000e+01
0.0000000000000000e+00 1.5000000000000000e+01
ITEM: ATOMS id type x y z
10 2 8.29401 5.79962 6.56385
4 1 7.77403 6.80429 6.66998
7 2 7.33873 9.07873 8.94147
8 2 9.51448 8.19286 7.51791
9 2 7.59591 7.17858 5.57533
1 1 6.40927 7.24281 7.80429
3 1 8.48634 7.87623 7.4392
2 1 7.42539 8.28094 8.16868
6 2 6.42324 6.34185 8.45822
5 2 5.38745 7.40272 7.33935
ITEM: TIMESTEP
2600
ITEM: NUMBER OF ATOMS
10
ITEM: BOX BOUNDS pp pp pp
0.0000000000000000e+00 1.5000000000000000e+01
0.0000000000000000e+00 1.5000000000000000e+01
0.0000000000000000e+00 1.5000000000000000e+01
ITEM: ATOMS id type x y z
10 2 8.40345 5.83782 7.03629
4 1 7.91039 6.80561 6.70275
7 2 7.35961 8.85988 9.0978
8 2 9.32016 8.51904 7.13208
9 2 7.73378 6.88097 5.63967
1 1 6.40745 7.18343 7.69406
3 1 8.40568 7.99772 7.44341
2 1 7.39154 8.19279 8.26499
6 2 5.93606 6.42456 8.31193
5 2 5.68059 7.62041 7.04001
ITEM: TIMESTEP
2700
ITEM: NUMBER OF ATOMS
10
ITEM: BOX BOUNDS pp pp pp
0.0000000000000000e+00 1.5000000000000000e+01
0.0000000000000000e+00 1.5000000000000000e+01
0.0000000000000000e+00 1.5000000000000000e+01
ITEM: ATOMS id type x y z
10 2 8.44396 5.90887 6.91243
4 1 7.9523 6.81427 6.71708
7 2 7.08479 9.02727 9.00271
8 2 9.43067 8.42566 7.38646
9 2 7.84377 6.99823 5.64003
1 1 6.40307 7.11726 7.64062
3 1 8.44663 7.97466 7.54024
2 1 7.29882 8.28413 8.19779
6 2 6.18483 6.33982 8.35234
5 2 5.53114 7.37825 7.02062
ITEM: TIMESTEP
2800
ITEM: NUMBER OF ATOMS
10
ITEM: BOX BOUNDS pp pp pp
0.0000000000000000e+00 1.5000000000000000e+01
0.0000000000000000e+00 1.5000000000000000e+01
0.0000000000000000e+00 1.5000000000000000e+01
ITEM: ATOMS id type x y z
10 2 8.61098 5.87596 6.80658
4 1 8.01123 6.83754 6.76846
7 2 6.80705 9.0577 8.77772
8 2 9.38454 8.42986 7.72625
9 2 8.06113 7.15019 5.7229
1 1 6.42444 7.14118 7.61854
3 1 8.41296 7.94733 7.59364
2 1 7.20373 8.29754 8.11584
6 2 6.39038 6.2628 8.3558
5 2 5.55575 7.10193 6.92087
ITEM: TIMESTEP
2900
ITEM: NUMBER OF ATOMS
10
ITEM: BOX BOUNDS pp pp pp
0.0000000000000000e+00 1.5000000000000000e+01
0.0000000000000000e+00 1.5000000000000000e+01
0.0000000000000000e+00 1.5000000000000000e+01
ITEM: ATOMS id type x y z
10 2 8.62529 5.91352 7.33786
4 1 8.15466 6.79206 6.83132
7 2 6.87583 8.86518 9.06542
8 2 9.20275 8.70968 7.43513
9 2 8.39172 6.83222 5.74116
1 1 6.46417 7.06114 7.45616
3 1 8.28524 8.1362 7.5748
2 1 7.13558 8.2115 8.23942
6 2 5.98082 6.2991 8.07273
5 2 5.80965 7.39495 6.62652
ITEM: TIMESTEP
3000
ITEM: NUMBER OF ATOMS
10
ITEM: BOX BOUNDS pp pp pp
0.0000000000000000e+00 1.5000000000000000e+01
0.0000000000000000e+00 1.5000000000000000e+01
0.0000000000000000e+00 1.5000000000000000e+01
ITEM: ATOMS id type x y z
10 2 8.73572 5.98235 7.30422
4 1 8.239 6.84105 6.86638
7 2 6.60819 8.96847 8.82844
8 2 9.17603 8.6524 7.95708
9 2 8.49937 6.9638 5.77722
1 1 6.49516 7.00744 7.40833
3 1 8.27312 8.10774 7.71142
2 1 7.00521 8.26964 8.06191
6 2 6.2842 6.19898 8.0528
5 2 5.7455 7.09873 6.68104
ITEM: TIMESTEP
3100
ITEM: NUMBER OF ATOMS
10
ITEM: BOX BOUNDS pp pp pp
0.0000000000000000e+00 1.5000000000000000e+01
0.0000000000000000e+00 1.5000000000000000e+01
0.0000000000000000e+00 1.5000000000000000e+01
ITEM: ATOMS id type x y z
10 2 9.04881 6.05962 7.12036
4 1 8.27959 6.90632 6.95589
7 2 6.33048 9.05457 8.27422
8 2 9.03143 8.79653 8.27136
9 2 8.44658 7.18737 5.90766
1 1 6.48984 6.94532 7.39128
3 1 8.29585 8.0814 7.84374
2 1 6.95224 8.25323 7.93624
6 2 6.31959 6.06118 8.04788
5 2 5.84198 6.94305 6.5046
ITEM: TIMESTEP
3200
ITEM: NUMBER OF ATOMS
10
ITEM: BOX BOUNDS pp pp pp
0.0000000000000000e+00 1.5000000000000000e+01
0.0000000000000000e+00 1.5000000000000000e+01
0.0000000000000000e+00 1.5000000000000000e+01
ITEM: ATOMS id type x y z
10 2 8.78439 6.15857 7.73457
4 1 8.39629 6.89674 7.06501
7 2 6.27352 8.84764 8.67323
8 2 8.92989 9.03555 7.90007
9 2 8.782 6.87466 6.01604
1 1 6.55855 6.87597 7.21931
3 1 8.19692 8.25668 7.74521
2 1 6.89829 8.13803 8.0821
6 2 5.94284 6.06257 7.67023
5 2 6.11116 7.23651 6.22509
ITEM: TIMESTEP
3300
ITEM: NUMBER OF ATOMS
10
ITEM: BOX BOUNDS pp pp pp
0.0000000000000000e+00 1.5000000000000000e+01
0.0000000000000000e+00 1.5000000000000000e+01
0.0000000000000000e+00 1.5000000000000000e+01
ITEM: ATOMS id type x y z
10 2 8.86646 6.13828 7.66463
4 1 8.44091 6.9707 7.08349
7 2 6.15533 8.85811 8.3869
8 2 8.92579 8.85285 8.35864
9 2 8.78455 6.99204 6.07905
1 1 6.56932 6.88688 7.18432
3 1 8.17013 8.23504 7.85177
2 1 6.84189 8.14822 7.9284
6 2 6.23808 6.06277 7.83502
5 2 6.02031 6.87094 6.27686
ITEM: TIMESTEP
3400
ITEM: NUMBER OF ATOMS
10
ITEM: BOX BOUNDS pp pp pp
0.0000000000000000e+00 1.5000000000000000e+01
0.0000000000000000e+00 1.5000000000000000e+01
0.0000000000000000e+00 1.5000000000000000e+01
ITEM: ATOMS id type x y z
10 2 9.07992 6.19163 7.59249
4 1 8.43795 6.96693 7.1156
7 2 5.97632 8.84543 8.03763
8 2 8.78733 8.8998 8.57112
9 2 8.80195 7.2037 6.0637
1 1 6.59166 6.84235 7.17699
3 1 8.16273 8.22067 7.96594
2 1 6.81453 8.18436 7.84473
6 2 6.30897 6.03138 7.83434
5 2 6.12827 6.76217 6.17023
ITEM: TIMESTEP
3500
ITEM: NUMBER OF ATOMS
10
ITEM: BOX BOUNDS pp pp pp
0.0000000000000000e+00 1.5000000000000000e+01
0.0000000000000000e+00 1.5000000000000000e+01
0.0000000000000000e+00 1.5000000000000000e+01
ITEM: ATOMS id type x y z
10 2 8.75951 6.25597 8.02052
4 1 8.52392 7.01709 7.24803
7 2 5.87492 8.60529 8.39867
8 2 8.69256 9.10637 8.19139
9 2 9.13191 6.88621 6.29199
1 1 6.71401 6.8126 7.07473
3 1 8.06119 8.3107 7.85247
2 1 6.72743 8.07164 7.91058
6 2 6.04711 5.93134 7.43838
5 2 6.45867 7.16261 6.03325
ITEM: TIMESTEP
3600
ITEM: NUMBER OF ATOMS
10
ITEM: BOX BOUNDS pp pp pp
0.0000000000000000e+00 1.5000000000000000e+01
0.0000000000000000e+00 1.5000000000000000e+01
0.0000000000000000e+00 1.5000000000000000e+01
ITEM: ATOMS id type x y z
10 2 8.95725 6.2472 7.89802
4 1 8.58104 7.06056 7.2907
7 2 5.77346 8.62389 7.97833
8 2 8.51137 9.01456 8.6485
9 2 9.12502 7.13679 6.41519
1 1 6.77052 6.80194 7.04634
3 1 7.9789 8.28256 7.98539
2 1 6.67408 8.10231 7.74923
6 2 6.29324 5.90945 7.52104
5 2 6.43641 6.80399 5.99796
ITEM: TIMESTEP
3700
ITEM: NUMBER OF ATOMS
10
ITEM: BOX BOUNDS pp pp pp
0.0000000000000000e+00 1.5000000000000000e+01
0.0000000000000000e+00 1.5000000000000000e+01
0.0000000000000000e+00 1.5000000000000000e+01
ITEM: ATOMS id type x y z
10 2 9.19545 6.34259 7.87187
4 1 8.574 7.05127 7.36055
7 2 5.74074 8.67234 7.52998
8 2 8.19098 9.02851 8.86503
9 2 9.11188 7.49593 6.48651
1 1 6.82262 6.74918 6.98559
3 1 7.89766 8.28818 8.11654
2 1 6.67022 8.0733 7.64731
6 2 6.45272 5.96366 7.55561
5 2 6.64523 6.74545 5.92007
ITEM: TIMESTEP
3800
ITEM: NUMBER OF ATOMS
10
ITEM: BOX BOUNDS pp pp pp
0.0000000000000000e+00 1.5000000000000000e+01
0.0000000000000000e+00 1.5000000000000000e+01
0.0000000000000000e+00 1.5000000000000000e+01
ITEM: ATOMS id type x y z
10 2 8.74622 6.27792 8.23848
4 1 8.60021 7.1741 7.52908
7 2 5.64315 8.40858 7.92314
8 2 8.14259 9.23718 8.49459
9 2 9.4646 7.18544 6.83163
1 1 6.9568 6.76549 6.89137
3 1 7.8357 8.34782 7.97643
2 1 6.59321 7.93683 7.69912
6 2 6.34861 5.80556 6.9969
5 2 6.86331 6.95982 5.82824
ITEM: TIMESTEP
3900
ITEM: NUMBER OF ATOMS
10
ITEM: BOX BOUNDS pp pp pp
0.0000000000000000e+00 1.5000000000000000e+01
0.0000000000000000e+00 1.5000000000000000e+01
0.0000000000000000e+00 1.5000000000000000e+01
ITEM: ATOMS id type x y z
10 2 8.88388 6.41896 8.26418
4 1 8.60753 7.20432 7.54983
7 2 5.60709 8.45252 7.59494
8 2 7.94662 9.19332 8.80485
9 2 9.44439 7.39521 6.86882
1 1 7.02957 6.69315 6.83983
3 1 7.74367 8.33143 8.12567
2 1 6.58172 7.96918 7.55862
6 2 6.52888 5.78711 7.18167
5 2 6.93814 6.78439 5.7308
ITEM: TIMESTEP
4000
ITEM: NUMBER OF ATOMS
10
ITEM: BOX BOUNDS pp pp pp
0.0000000000000000e+00 1.5000000000000000e+01
0.0000000000000000e+00 1.5000000000000000e+01
0.0000000000000000e+00 1.5000000000000000e+01
ITEM: ATOMS id type x y z
10 2 9.01151 6.56069 8.30858
4 1 8.60678 7.22697 7.58834
7 2 5.63882 8.43318 7.2864
8 2 7.73023 9.07415 8.9567
9 2 9.31427 7.64152 6.87906
1 1 7.04747 6.6945 6.80471
3 1 7.67074 8.29445 8.21745
2 1 6.62172 7.96461 7.46579
6 2 6.65248 5.78546 7.26668
5 2 7.0964 6.6418 5.73387
ITEM: TIMESTEP
4100
ITEM: NUMBER OF ATOMS
10
ITEM: BOX BOUNDS pp pp pp
0.0000000000000000e+00 1.5000000000000000e+01
0.0000000000000000e+00 1.5000000000000000e+01
0.0000000000000000e+00 1.5000000000000000e+01
ITEM: ATOMS id type x y z
10 2 8.75336 6.45024 8.47246
4 1 8.59306 7.30935 7.74295
7 2 5.5179 8.17439 7.53688
8 2 7.8362 9.23253 8.76481
9 2 9.5542 7.36467 7.19247
1 1 7.15178 6.7145 6.74682
3 1 7.63158 8.37779 8.084
2 1 6.54395 7.83518 7.50405
6 2 6.67876 5.68966 6.8004
5 2 7.2614 6.88763 5.65508
ITEM: TIMESTEP
4200
ITEM: NUMBER OF ATOMS
10
ITEM: BOX BOUNDS pp pp pp
0.0000000000000000e+00 1.5000000000000000e+01
0.0000000000000000e+00 1.5000000000000000e+01
0.0000000000000000e+00 1.5000000000000000e+01
ITEM: ATOMS id type x y z
10 2 8.77487 6.56907 8.60137
4 1 8.60386 7.30638 7.82006
7 2 5.4967 8.15954 7.14393
8 2 7.56431 9.16567 8.87248
9 2 9.451 7.71759 7.18623
1 1 7.27512 6.66958 6.71104
3 1 7.53502 8.34338 8.15541
2 1 6.50819 7.84285 7.40841
6 2 6.79655 5.70409 6.86894
5 2 7.50743 6.93089 5.64656
ITEM: TIMESTEP
4300
ITEM: NUMBER OF ATOMS
10
ITEM: BOX BOUNDS pp pp pp
0.0000000000000000e+00 1.5000000000000000e+01
0.0000000000000000e+00 1.5000000000000000e+01
0.0000000000000000e+00 1.5000000000000000e+01
ITEM: ATOMS id type x y z
10 2 9.119 6.80889 8.5932
4 1 8.58166 7.39463 7.88596
7 2 5.65452 8.2092 6.7578
8 2 7.18352 8.89207 9.11001
9 2 9.28549 7.92804 7.33831
1 1 7.29959 6.68726 6.68665
3 1 7.37989 8.22498 8.25644
2 1 6.59789 7.85742 7.22852
6 2 7.00489 5.66244 7.03568
5 2 7.72242 6.73365 5.70858
ITEM: TIMESTEP
4400
ITEM: NUMBER OF ATOMS
10
ITEM: BOX BOUNDS pp pp pp
0.0000000000000000e+00 1.5000000000000000e+01
0.0000000000000000e+00 1.5000000000000000e+01
0.0000000000000000e+00 1.5000000000000000e+01
ITEM: ATOMS id type x y z
10 2 8.49854 6.59127 8.7429
4 1 8.56546 7.42703 8.01692
7 2 5.43494 7.7951 7.10912
8 2 7.18789 9.0757 8.91825
9 2 9.59514 7.80541 7.74446
1 1 7.50284 6.73021 6.66102
3 1 7.31078 8.32574 8.1271
2 1 6.4998 7.72859 7.21917
6 2 7.27067 5.64969 6.61711
5 2 7.86355 7.0334 5.61188
ITEM: TIMESTEP
4500
ITEM: NUMBER OF ATOMS
10
ITEM: BOX BOUNDS pp pp pp
0.0000000000000000e+00 1.5000000000000000e+01
0.0000000000000000e+00 1.5000000000000000e+01
0.0000000000000000e+00 1.5000000000000000e+01
ITEM: ATOMS id type x y z
10 2 8.67666 6.66196 8.84356
4 1 8.49324 7.4589 8.0632
7 2 5.50277 7.9058 6.81947
8 2 6.94163 9.01874 8.89164
9 2 9.45579 8.01413 7.78661
1 1 7.59342 6.74039 6.63476
3 1 7.23385 8.26024 8.16331
2 1 6.5365 7.6954 7.16629
6 2 7.3682 5.62227 6.7176
5 2 8.03692 7.06748 5.66482
ITEM: TIMESTEP
4600
ITEM: NUMBER OF ATOMS
10
ITEM: BOX BOUNDS pp pp pp
0.0000000000000000e+00 1.5000000000000000e+01
0.0000000000000000e+00 1.5000000000000000e+01
0.0000000000000000e+00 1.5000000000000000e+01
ITEM: ATOMS id type x y z
10 2 8.8976 6.88476 8.89458
4 1 8.45857 7.49451 8.08496
7 2 5.74848 8.03886 6.51189
8 2 6.63468 8.82704 8.96109
9 2 9.19576 8.20794 7.77205
1 1 7.6435 6.73939 6.60974
3 1 7.13073 8.17271 8.24169
2 1 6.59505 7.7178 7.09921
6 2 7.48249 5.71683 6.83335
5 2 8.19795 6.79813 5.70244
ITEM: TIMESTEP
4700
ITEM: NUMBER OF ATOMS
10
ITEM: BOX BOUNDS pp pp pp
0.0000000000000000e+00 1.5000000000000000e+01
0.0000000000000000e+00 1.5000000000000000e+01
0.0000000000000000e+00 1.5000000000000000e+01
ITEM: ATOMS id type x y z
10 2 8.42797 6.73006 8.85281
4 1 8.41331 7.53112 8.15993
7 2 5.52621 7.71003 6.76112
8 2 6.72357 8.99205 8.87522
9 2 9.34819 8.09142 8.09159
1 1 7.82884 6.78306 6.62711
3 1 7.056 8.23407 8.14032
2 1 6.57311 7.59131 7.0781
6 2 7.63974 5.70902 6.61778
5 2 8.23079 7.15002 5.65767
ITEM: TIMESTEP
4800
ITEM: NUMBER OF ATOMS
10
ITEM: BOX BOUNDS pp pp pp
0.0000000000000000e+00 1.5000000000000000e+01
0.0000000000000000e+00 1.5000000000000000e+01
0.0000000000000000e+00 1.5000000000000000e+01
ITEM: ATOMS id type x y z
10 2 8.42228 6.77998 9.03812
4 1 8.34472 7.57425 8.21774
7 2 5.63982 7.5789 6.52093
8 2 6.53328 8.94767 8.6987
9 2 9.21901 8.24099 8.21162
1 1 7.86294 6.8406 6.65689
3 1 6.99315 8.15505 8.15278
2 1 6.61909 7.5592 7.00266
6 2 7.95706 5.67999 6.4671
5 2 8.43315 7.21787 5.77214
ITEM: TIMESTEP
4900
ITEM: NUMBER OF ATOMS
10
ITEM: BOX BOUNDS pp pp pp
0.0000000000000000e+00 1.5000000000000000e+01
0.0000000000000000e+00 1.5000000000000000e+01
0.0000000000000000e+00 1.5000000000000000e+01
ITEM: ATOMS id type x y z
10 2 8.73201 7.17308 9.18897
4 1 8.30027 7.60206 8.26848
7 2 5.95473 7.77833 6.10377
8 2 6.12931 8.49694 8.88476
9 2 8.87883 8.56201 8.12246
1 1 7.98212 6.83893 6.64875
3 1 6.82975 7.97872 8.17425
2 1 6.70232 7.62996 6.88548
6 2 7.87459 5.82153 6.88197
5 2 8.66782 7.0901 5.84539
ITEM: TIMESTEP
5000
ITEM: NUMBER OF ATOMS
10
ITEM: BOX BOUNDS pp pp pp
0.0000000000000000e+00 1.5000000000000000e+01
0.0000000000000000e+00 1.5000000000000000e+01
0.0000000000000000e+00 1.5000000000000000e+01
ITEM: ATOMS id type x y z
10 2 8.29255 6.77282 9.06093
4 1 8.21934 7.6525 8.40958
7 2 5.77108 7.17196 6.24119
8 2 6.17637 8.58762 8.69889
9 2 8.93221 8.46744 8.4847
1 1 8.14015 6.98781 6.70492
3 1 6.81309 8.06378 8.01634
2 1 6.66121 7.43977 6.83707
6 2 8.21797 5.9181 6.62866
5 2 8.73104 7.43888 5.96708
ITEM: TIMESTEP
5100
ITEM: NUMBER OF ATOMS
10
ITEM: BOX BOUNDS pp pp pp
0.0000000000000000e+00 1.5000000000000000e+01
0.0000000000000000e+00 1.5000000000000000e+01
0.0000000000000000e+00 1.5000000000000000e+01
ITEM: ATOMS id type x y z
10 2 8.35218 6.92794 9.23888
4 1 8.13658 7.68334 8.42683
7 2 5.91888 7.13074 6.13161
8 2 6.00265 8.55084 8.59361
9 2 8.85497 8.5046 8.60812
1 1 8.15575 7.00804 6.71346
3 1 6.75035 7.98247 8.00886
2 1 6.7448 7.41668 6.78483
6 2 8.43473 5.92084 6.64244
5 2 8.83576 7.64181 6.07049
ITEM: TIMESTEP
5200
ITEM: NUMBER OF ATOMS
10
ITEM: BOX BOUNDS pp pp pp
0.0000000000000000e+00 1.5000000000000000e+01
0.0000000000000000e+00 1.5000000000000000e+01
0.0000000000000000e+00 1.5000000000000000e+01
ITEM: ATOMS id type x y z
10 2 8.36276 7.19394 9.34871
4 1 8.15034 7.72852 8.45041
7 2 6.13154 7.40001 5.88122
8 2 5.73841 8.13483 8.57421
9 2 8.57219 8.7402 8.37809
1 1 8.23303 7.00681 6.74076
3 1 6.64409 7.80631 8.04543
2 1 6.79783 7.52159 6.72207
6 2 8.32144 5.91208 6.89777
5 2 9.04593 7.45965 6.05704
ITEM: TIMESTEP
5300
ITEM: NUMBER OF ATOMS
10
ITEM: BOX BOUNDS pp pp pp
0.0000000000000000e+00 1.5000000000000000e+01
0.0000000000000000e+00 1.5000000000000000e+01
0.0000000000000000e+00 1.5000000000000000e+01
ITEM: ATOMS id type x y z
10 2 8.1885 6.93192 9.24547
4 1 7.99287 7.75142 8.52278
7 2 6.05213 7.0677 5.97395
8 2 5.78948 8.37461 8.38443
9 2 8.62019 8.58685 8.71466
1 1 8.35516 7.12948 6.78256
3 1 6.63601 7.86948 7.9233
2 1 6.83736 7.3176 6.73288
6 2 8.6573 6.0659 6.64407
5 2 8.88796 7.78515 6.15727
ITEM: TIMESTEP
5400
ITEM: NUMBER OF ATOMS
10
ITEM: BOX BOUNDS pp pp pp
0.0000000000000000e+00 1.5000000000000000e+01
0.0000000000000000e+00 1.5000000000000000e+01
0.0000000000000000e+00 1.5000000000000000e+01
ITEM: ATOMS id type x y z
10 2 8.10436 6.9667 9.3105
4 1 7.94648 7.73573 8.53575
7 2 6.26002 7.04781 5.86808
8 2 5.61823 8.27016 8.19427
9 2 8.43179 8.73281 8.76236
1 1 8.38257 7.1867 6.83018
3 1 6.58258 7.82061 7.89283
2 1 6.88834 7.25998 6.7108
6 2 8.89947 6.22919 6.71477
5 2 9.01029 7.95514 6.22167
ITEM: TIMESTEP
5500
ITEM: NUMBER OF ATOMS
10
ITEM: BOX BOUNDS pp pp pp
0.0000000000000000e+00 1.5000000000000000e+01
0.0000000000000000e+00 1.5000000000000000e+01
0.0000000000000000e+00 1.5000000000000000e+01
ITEM: ATOMS id type x y z
10 2 8.13164 7.30407 9.48082
4 1 7.91518 7.82491 8.51928
7 2 6.48216 7.2862 5.64886
8 2 5.45773 7.59066 8.21697
9 2 8.12313 8.88991 8.6829
1 1 8.44216 7.23155 6.88825
3 1 6.50073 7.59195 7.87276
2 1 6.98981 7.39649 6.62501
6 2 8.63231 6.12463 7.15822
5 2 9.20974 7.75513 6.26953
ITEM: TIMESTEP
5600
ITEM: NUMBER OF ATOMS
10
ITEM: BOX BOUNDS pp pp pp
0.0000000000000000e+00 1.5000000000000000e+01
0.0000000000000000e+00 1.5000000000000000e+01
0.0000000000000000e+00 1.5000000000000000e+01
ITEM: ATOMS id type x y z
10 2 7.96908 7.02029 9.2592
4 1 7.75287 7.81672 8.59911
7 2 6.57751 6.77936 5.69887
8 2 5.5305 7.90296 8.02943
9 2 8.10432 8.73545 8.97152
1 1 8.47057 7.35512 6.98372
3 1 6.54166 7.65632 7.75002
2 1 7.03824 7.20725 6.599
6 2 9.13709 6.50276 6.98509
5 2 8.98551 8.06672 6.35376
ITEM: TIMESTEP
5700
ITEM: NUMBER OF ATOMS
10
ITEM: BOX BOUNDS pp pp pp
0.0000000000000000e+00 1.5000000000000000e+01
0.0000000000000000e+00 1.5000000000000000e+01
0.0000000000000000e+00 1.5000000000000000e+01
ITEM: ATOMS id type x y z
10 2 7.86938 7.16267 9.45967
4 1 7.70163 7.82096 8.60156
7 2 6.83645 6.81441 5.56529
8 2 5.43585 7.76327 7.90017
9 2 7.85364 8.86732 8.95665
1 1 8.52458 7.40568 7.06686
3 1 6.50715 7.5677 7.66449
2 1 7.11533 7.14881 6.55583
6 2 9.20954 6.59837 7.07182
5 2 8.82703 8.35501 6.60297
ITEM: TIMESTEP
5800
ITEM: NUMBER OF ATOMS
10
ITEM: BOX BOUNDS pp pp pp
0.0000000000000000e+00 1.5000000000000000e+01
0.0000000000000000e+00 1.5000000000000000e+01
0.0000000000000000e+00 1.5000000000000000e+01
ITEM: ATOMS id type x y z
10 2 7.74654 7.41024 9.65537