10
 Atoms. Timestep: 0
C 8.23778 7.93483 8.26931
C 8.28954 6.83703 7.18952
C 7.02288 6.92415 6.84102
C 6.45191 8.14575 7.57767
H 9.01919 8.65513 8.07874
H 8.307 7.49773 9.22061
H 9.14293 6.39104 6.74604
H 6.37429 6.29489 6.17457
H 6.60228 9.13624 7.10742
H 5.6656 8.19437 8.29649
10
 Atoms. Timestep: 20
C 8.19671 7.89444 8.27588
C 8.3036 6.91282 7.18454
C 6.96691 6.90251 6.85036
C 6.58879 8.16111 7.57748
H 8.89398 8.73902 8.20214
H 8.09054 7.50854 9.3106
H 9.17425 6.44916 6.69039
H 6.50077 6.14882 6.223
H 6.49416 9.11471 7.0021
H 5.63424 8.03446 8.13115
10
 Atoms. Timestep: 40
C 8.26885 7.91539 8.32451
C 8.26198 6.95314 7.15066
C 7.0092 6.87006 6.80571
C 6.57658 8.13876 7.54812
H 8.76608 8.91805 8.48301
H 7.87963 7.5278 9.34735
H 9.15745 6.39069 6.79786
H 6.44892 6.17092 6.21435
H 6.52324 8.98519 6.86749
H 5.64903 7.96322 8.20493
10
 Atoms. Timestep: 60
C 8.15949 7.99009 8.33685
C 8.3674 6.94153 7.17876
C 7.03022 6.90606 6.77777
C 6.53414 8.05112 7.53727
H 8.77778 8.84638 8.53881
H 7.95768 7.46111 9.22644
H 9.1701 6.28421 6.86601
H 6.38322 6.23992 6.12746
H 6.52456 8.92454 6.89479
H 5.76318 8.13107 8.25161
10
 Atoms. Timestep: 80
C 8.11006 7.96855 8.31286
C 8.35531 6.92837 7.21699
C 7.12265 6.90269 6.77132
C 6.46879 8.06645 7.52833
H 8.80293 8.81562 8.37763
H 8.0491 7.41417 9.26327
H 9.23035 6.33291 6.9782
H 6.58103 6.31026 6.05698
H 6.46823 9.03886 6.9522
H 5.65147 8.11178 8.2837
10
 Atoms. Timestep: 100
C 8.15097 7.90927 8.31124
C 8.33869 6.93508 7.28761
C 7.08522 6.91184 6.72748
C 6.47288 8.11847 7.53304
H 8.72035 8.87012 8.2171
H 8.06178 7.56398 9.41501
H 9.30815 6.41299 7.06726
H 6.81232 6.24646 5.90385
H 6.37755 9.06314 6.99795
H 5.55724 7.81528 8.13161
10
 Atoms. Timestep: 120
C 8.10936 7.97861 8.38158
C 8.29385 6.88246 7.29168
C 7.13089 6.94824 6.68826
C 6.52898 8.0448 7.52612
H 8.65834 8.88387 8.17624
H 8.09131 7.7662 9.40762
H 9.22811 6.39633 7.0814
H 6.80316 6.34425 5.8102
H 6.32068 9.00357 7.08259
H 5.64397 7.70115 8.00514
10
 Atoms. Timestep: 140
C 8.10057 8.02337 8.3978
C 8.33923 6.86559 7.36522
C 7.18671 6.98773 6.62125
C 6.47242 7.96011 7.47617
H 8.65067 8.95767 8.16576
H 8.07385 7.81534 9.48709
H 9.16776 6.20425 7.07541
H 6.67491 6.55709 5.76329
H 6.30576 9.01467 7.06897
H 5.65747 7.6502 8.16582
10
 Atoms. Timestep: 160
C 8.05192 7.9877 8.32734
C 8.3459 6.87991 7.36627
C 7.23225 7.01871 6.63256
C 6.47279 7.98976 7.51111
H 8.57227 8.9516 8.15965
H 8.02654 7.78787 9.45072
H 9.16262 6.12797 7.3027
H 6.85521 6.61003 5.69928
H 6.16509 8.90301 7.02474
H 5.72509 7.58299 8.22824
10
 Atoms. Timestep: 180
C 8.09362 7.9659 8.35583
C 8.34592 6.88615 7.35349
C 7.2195 7.02394 6.6375
C 6.43408 8.02751 7.493
H 8.52105 8.92206 8.11336
H 7.99669 7.72134 9.38051
H 9.16999 6.21044 7.50638
H 7.13865 6.53347 5.62977
H 5.97488 8.9005 7.05277
H 5.76402 7.51121 8.16729
10
 Atoms. Timestep: 200
C 8.04331 7.99567 8.3829
C 8.3354 6.91178 7.41061
C 7.25246 7.00196 6.58518
C 6.46287 7.99004 7.45689
H 8.58479 8.93993 8.17769
H 8.06524 7.73397 9.45872
H 9.18006 6.20908 7.3808
H 7.04811 6.52488 5.6274
H 5.93523 8.94493 7.11079
H 5.74632 7.47048 8.12004
10
 Atoms. Timestep: 220
C 7.98591 8.03708 8.4151
C 8.32023 6.90681 7.41408
C 7.29965 7.01439 6.57385
C 6.47253 7.92686 7.42905
H 8.59793 8.95239 8.27773
H 8.06185 7.81665 9.53286
H 9.19972 6.25732 7.23187
H 6.89827 6.54929 5.70479
H 6.16612 8.91158 7.07736
H 5.73019 7.42196 8.07193
10
 Atoms. Timestep: 240
C 8.02185 8.00599 8.44248
C 8.38047 6.91714 7.38906
C 7.26214 7.03382 6.60791
C 6.44715 7.93166 7.43259
H 8.47219 8.97456 8.25125
H 7.8376 7.80029 9.47495
H 9.298 6.34188 7.30618
H 6.96078 6.46101 5.66778
H 6.24543 8.87595 6.98327
H 5.6403 7.43468 7.97331
10
 Atoms. Timestep: 260
C 7.98464 7.94367 8.38865
C 8.41103 6.97769 7.36218
C 7.29826 6.95527 6.65643
C 6.45922 7.97873 7.47354
H 8.37224 8.97457 8.28525
H 7.7143 7.68377 9.4166
H 9.3411 6.43034 7.35616
H 7.11741 6.47404 5.70201
H 6.13681 8.93192 6.93419
H 5.52324 7.59324 7.90997
10
 Atoms. Timestep: 280
C 7.94765 7.97546 8.4226
C 8.45128 7.01486 7.38565
C 7.29091 6.91221 6.65495
C 6.39982 7.96674 7.37882
H 8.43296 8.97185 8.4658
H 7.81619 7.49851 9.44828
H 9.43142 6.47194 7.26166
H 7.12983 6.42118 5.71693
H 6.24643 8.97608 6.93957
H 5.52919 7.66478 8.00468
10
 Atoms. Timestep: 300
C 7.89514 8.01371 8.46478
C 8.40231 7.03206 7.36895
C 7.3106 6.93314 6.65086
C 6.45786 7.91994 7.3517
H 8.43933 8.91925 8.66894
H 7.85485 7.49301 9.39294
H 9.38106 6.6286 7.20602
H 7.04979 6.28545 5.77085
H 6.40017 8.8611 6.88649
H 5.60337 7.63953 7.94604
10
 Atoms. Timestep: 320
C 7.94052 7.9769 8.48795
C 8.41024 7.09204 7.38372
C 7.29432 6.91982 6.61194
C 6.48452 7.90991 7.38115
H 8.3804 8.99933 8.67663
H 7.63542 7.47215 9.43852
H 9.41909 6.71401 7.21723
H 7.00131 6.1885 5.83286
H 6.407 8.87215 6.76724
H 5.50312 7.58189 7.76803
10
 Atoms. Timestep: 340
C 7.9264 7.94942 8.48484
C 8.46616 7.10015 7.3459
C 7.33311 6.89837 6.66771
C 6.44113 7.93188 7.37248
H 8.30793 8.95817 8.61887
H 7.48842 7.4871 9.39572
H 9.50775 6.72534 7.25047
H 7.06755 6.24654 5.88062
H 6.3373 8.90554 6.85109
H 5.41423 7.61837 7.66667
10
 Atoms. Timestep: 360
C 7.83643 7.96676 8.43171
C 8.52018 7.08762 7.37446
C 7.34917 6.91667 6.719
C 6.4152 7.92319 7.33203
H 8.29194 8.90628 8.68129
H 7.58388 7.4471 9.3353
H 9.52251 6.69773 7.22054
H 7.1697 6.275 5.81084
H 6.36645 8.89984 6.94854
H 5.46362 7.6286 7.74928
10
 Atoms. Timestep: 380
C 7.8645 7.99162 8.4655
C 8.45396 7.09863 7.4281
C 7.38399 6.91566 6.64553
C 6.40227 7.88944 7.29988
H 8.27507 9.01697 8.75817
H 7.66951 7.3627 9.37008
H 9.45152 6.70792 7.27081
H 7.21972 6.27019 5.76065
H 6.3758 8.93996 6.8343
H 5.50405 7.55009 7.86085
10
 Atoms. Timestep: 400
C 7.85143 7.99758 8.5078
C 8.39719 7.11118 7.42529
C 7.3832 6.93088 6.56248
C 6.49726 7.87484 7.35119
H 8.21928 8.99468 8.68271
H 7.63467 7.46702 9.44858
H 9.44319 6.71566 7.43586
H 7.27479 6.29099 5.7326
H 6.22472 8.75851 6.73943
H 5.55283 7.50625 7.76921
10
 Atoms. Timestep: 420
C 7.84233 7.98389 8.53575
C 8.4635 7.08871 7.42962
C 7.41062 6.97271 6.59013
C 6.43144 7.86539 7.30047
H 8.22893 8.99741 8.55433
H 7.55906 7.61844 9.52273
H 9.44646 6.64065 7.49269
H 7.27169 6.38192 5.64504
H 6.15885 8.75536 6.79918
H 5.57166 7.36202 7.73922
10
 Atoms. Timestep: 440
C 7.77335 7.97568 8.43919
C 8.50297 7.05128 7.49571
C 7.48072 7.01445 6.63981
C 6.38976 7.84033 7.29772
H 8.229 9.01436 8.45727
H 7.55944 7.68696 9.48844
H 9.45437 6.54117 7.42319
H 7.32732 6.57104 5.63161
H 6.10409 8.87296 6.91785
H 5.56898 7.2431 7.73611
10
 Atoms. Timestep: 460
C 7.79691 8.01447 8.45284
C 8.45314 7.01633 7.53806
C 7.49174 7.04573 6.5847
C 6.39793 7.80558 7.30679
H 8.1229 9.04392 8.35978
H 7.572 7.66645 9.46548
H 9.47835 6.54834 7.49034
H 7.53903 6.63819 5.60616
H 6.01885 8.80349 6.96779
H 5.55457 7.22699 7.70504
10
 Atoms. Timestep: 480
C 7.81893 8.02159 8.53015
C 8.38789 7.02941 7.51767
C 7.50751 7.04499 6.51718
C 6.41933 7.78977 7.30388
H 8.07862 9.05974 8.37133
H 7.60989 7.75342 9.5656
H 9.37186 6.62019 7.66567
H 7.64243 6.64183 5.49181
H 6.00187 8.65648 6.87076
H 5.61743 7.17376 7.7106
10
 Atoms. Timestep: 500
C 7.7241 7.98944 8.5112
C 8.42126 7.08489 7.54624
C 7.52438 7.04982 6.52201
C 6.45393 7.78271 7.2787
H 8.1469 9.05054 8.45639
H 7.66435 7.81201 9.60444
H 9.33852 6.52677 7.68934
H 7.52595 6.67274 5.46355
H 5.95658 8.64572 6.76115
H 5.74967 7.07109 7.76525
10
 Atoms. Timestep: 520
C 7.7239 8.01946 8.50975
C 8.48299 7.08829 7.54912
C 7.5636 7.07874 6.58445
C 6.39101 7.76163 7.19292
H 8.11812 9.02944 8.47589
H 7.5402 7.64094 9.55095
H 9.39346 6.44388 7.67434
H 7.47578 6.67169 5.61506
H 5.85293 8.68282 6.80431
H 5.77458 7.06254 7.75102
10
 Atoms. Timestep: 540
C 7.71901 8.01428 8.46254
C 8.49131 7.08668 7.56769
C 7.57264 7.08538 6.56984
C 6.40933 7.78148 7.26793
H 7.98514 9.04608 8.54326
H 7.36258 7.58 9.3755
H 9.44446 6.58058 7.67627
H 7.65336 6.52724 5.61416
H 5.90219 8.58498 6.84766
H 5.62249 7.09415 7.6241
10
 Atoms. Timestep: 560
C 7.72747 7.99563 8.52526
C 8.45855 7.13449 7.54277
C 7.5915 7.01799 6.54104
C 6.40222 7.75556 7.25828
H 7.92853 9.12552 8.65559
H 7.28394 7.57527 9.44148
H 9.47621 6.81884 7.66998
H 7.7429 6.45742 5.57848
H 6.06815 8.73264 6.77954
H 5.54581 7.08836 7.5599
10
 Atoms. Timestep: 580
C 7.60823 7.98037 8.56537
C 8.47908 7.22193 7.54479
C 7.57143 6.95264 6.57033
C 6.44771 7.71776 7.17132
H 7.97417 8.99453 8.70502
H 7.43374 7.52353 9.57683
H 9.58853 6.9889 7.57621
H 7.63905 6.50271 5.60897
H 6.27291 8.75827 6.78994
H 5.57692 7.21587 7.52121
10
 Atoms. Timestep: 600
C 7.56985 7.9363 8.56259
C 8.51249 7.27709 7.55266
C 7.60065 6.92952 6.64256
C 6.44872 7.72731 7.14437
H 7.85871 8.94564 8.72726
H 7.48593 7.40455 9.49114
H 9.58578 7.15909 7.51848
H 7.57237 6.4827 5.64651
H 6.36878 8.67893 6.69682
H 5.46218 7.3278 7.39572
10
 Atoms. Timestep: 620
C 7.64288 7.91909 8.55192
C 8.53945 7.29409 7.5584
C 7.6064 6.92889 6.64671
C 6.39633 7.7445 7.17029
H 7.62392 9.04143 8.85355
H 7.32342 7.24774 9.38324
H 9.6074 7.28902 7.58552
H 7.73791 6.30837 5.70592
H 6.38802 8.70357 6.55651
H 5.33298 7.31039 7.24031
10
 Atoms. Timestep: 640
C 7.57876 7.96446 8.52465
C 8.53545 7.32112 7.54079
C 7.62054 6.93311 6.63387
C 6.44286 7.72099 7.17132
H 7.6318 8.92375 9.05543
H 7.1525 7.19455 9.21329
H 9.6634 7.26345 7.62684
H 7.81648 6.22242 5.87158
H 6.30449 8.70511 6.65111
H 5.48969 7.27259 7.24704
10
 Atoms. Timestep: 660
C 7.52454 7.98 8.57847
C 8.5376 7.39002 7.57629
C 7.68464 6.94446 6.63502
C 6.44704 7.69137 7.0468
H 7.76449 8.87717 9.09181
H 7.10116 7.19399 9.17352
H 9.603 7.13306 7.60451
H 7.6869 6.1712 5.86147
H 6.26178 8.68506 6.76886
H 5.54375 7.12446 7.36932
10
 Atoms. Timestep: 680
C 7.49424 7.94169 8.51985
C 8.53909 7.38743 7.61619
C 7.70741 6.98974 6.625
C 6.46684 7.67738 7.07469
H 7.75884 8.94356 9.0342
H 7.09265 7.22591 9.29456
H 9.57163 7.15896 7.74546
H 7.72131 6.21311 5.81068
H 6.17429 8.67693 6.6748
H 5.55982 7.02404 7.31493
10
 Atoms. Timestep: 700
C 7.52585 7.94125 8.55294
C 8.53351 7.30086 7.62343
C 7.71478 7.03201 6.59819
C 6.41606 7.66649 7.11217
H 7.52297 9.01832 8.82768
H 7.18256 7.31192 9.38156
H 9.615 7.24201 7.94814
H 7.96586 6.42205 5.74782
H 6.1098 8.55242 6.49197
H 5.58661 7.02964 7.17144
10
 Atoms. Timestep: 720
C 7.48762 7.96607 8.56836
C 8.51045 7.27664 7.69439
C 7.76156 7.04719 6.58786
C 6.41786 7.6295 7.07862
H 7.46734 9.01196 8.66491
H 7.26211 7.41207 9.47233
H 9.6013 7.13885 7.85385
H 8.07061 6.70321 5.58836
H 6.11736 8.49975 6.51998
H 5.54036 6.93783 7.2142
10
 Atoms. Timestep: 740
C 7.39787 7.94522 8.53122
C 8.49157 7.283 7.71447
C 7.80316 7.07775 6.60278
C 6.48088 7.56091 7.04648
H 7.58477 9.09231 8.58845
H 7.18936 7.58614 9.57935
H 9.50063 7.01523 7.81358
H 8.07244 6.944 5.53366
H 6.10221 8.52042 6.66126
H 5.6337 6.86066 7.34306
10
 Atoms. Timestep: 760
C 7.42626 7.9602 8.57071
C 8.50082 7.26432 7.72243
C 7.80588 7.13629 6.55445
C 6.44218 7.53225 7.03906
H 7.58273 9.04591 8.49846
H 6.99314 7.64945 9.53239
H 9.56193 6.98932 8.03201
H 8.16786 6.93579 5.55283
H 5.99219 8.47432 6.65268
H 5.77528 6.76687 7.30075
10
 Atoms. Timestep: 780
C 7.44057 7.96007 8.5241
C 8.48751 7.23692 7.73469
C 7.8578 7.19373 6.56064
C 6.43423 7.57562 7.08959
H 7.50852 9.01738 8.51916
H 6.97042 7.59449 9.41213
H 9.4904 7.02502 8.13913
H 8.19981 6.83248 5.59748
H 5.81716 8.30121 6.55778
H 5.81707 6.65141 7.2092
10
 Atoms. Timestep: 800
C 7.4122 7.96812 8.5298
C 8.49188 7.26902 7.78195
C 7.85885 7.20853 6.57801
C 6.44976 7.56117 7.00188
H 7.50483 9.11309 8.63238
H 7.06703 7.46661 9.48464
H 9.46745 6.96107 8.0533
H 8.17865 6.77294 5.59741
H 5.76053 8.27297 6.51655
H 5.86941 6.59225 7.25488
10
 Atoms. Timestep: 820
C 7.33491 7.96721 8.55522
C 8.48262 7.33614 7.74461
C 7.86123 7.16778 6.58459
C 6.48653 7.51801 6.98024
H 7.47939 9.02793 8.74533
H 7.12367 7.48496 9.51008
H 9.48278 6.92764 8.0272
H 8.20461 6.81572 5.62724
H 5.92065 8.32849 6.50555
H 5.92115 6.70044 7.28568
10
 Atoms. Timestep: 840
C 7.34564 7.94226 8.56809
C 8.48313 7.38394 7.73309
C 7.88226 7.11328 6.55354
C 6.48333 7.52743 7.02436
H 7.35561 8.99722 8.73624
H 6.99614 7.43877 9.46673
H 9.49671 7.09549 8.11118
H 8.28711 6.81531 5.59158
H 6.05136 8.37612 6.46705
H 5.77083 6.69563 7.24178
10
 Atoms. Timestep: 860
C 7.37737 7.91702 8.56118
C 8.52133 7.38532 7.75546
C 7.88751 7.10176 6.5973
C 6.46502 7.52878 7.00758
H 7.24502 9.04606 8.68779
H 6.89415 7.29895 9.36286
H 9.52405 7.36906 8.09459
H 8.28581 6.75243 5.61322
H 6.04911 8.40585 6.51206
H 5.61849 6.75034 7.08935
10
 Atoms. Timestep: 880
C 7.30586 7.89641 8.51237
C 8.54835 7.40337 7.77995
C 7.87361 7.10435 6.66174
C 6.47011 7.51504 6.96809
H 7.28674 8.95019 8.77857
H 6.97757 7.2546 9.31981
H 9.63771 7.54468 7.96348
H 8.21914 6.66854 5.73091
H 6.11116 8.47239 6.57377
H 5.70408 6.81456 6.98953
10
 Atoms. Timestep: 900
C 7.29169 7.89207 8.5719
C 8.51504 7.47638 7.76845
C 7.89608 7.06865 6.64725
C 6.47698 7.51892 6.9214
H 7.27502 8.90624 8.92758
H 6.99789 7.21441 9.3731
H 9.62289 7.5516 7.92308
H 8.24136 6.5599 5.76012
H 6.21711 8.53124 6.51063
H 5.69102 6.72053 6.94053
10
 Atoms. Timestep: 920
C 7.28954 7.88478 8.57878
C 8.47568 7.54019 7.7219
C 7.91181 7.03994 6.61397
C 6.53413 7.52692 6.98366
H 7.16703 8.92374 9.03239
H 6.96581 7.12638 9.34397
H 9.47584 7.52175 8.05838
H 8.35337 6.48141 5.75277
H 6.2447 8.40262 6.42442
H 5.65034 6.81309 6.88724
10
 Atoms. Timestep: 940
C 7.28085 7.89557 8.57785
C 8.50511 7.55159 7.74173
C 7.9182 7.04905 6.6281
C 6.50557 7.49183 6.9443
H 7.07814 8.88799 8.98812
H 6.98745 7.0554 9.20008
H 9.53144 7.54329 8.15933
H 8.35431 6.51762 5.78006
H 6.25844 8.42157 6.41737
H 5.65588 6.86587 6.99219
10
 Atoms. Timestep: 960
C 7.25388 7.88238 8.49842
C 8.54157 7.52331 7.80629
C 7.94324 7.08745 6.69246
C 6.47754 7.48459 6.90186
H 7.05506 8.83905 8.92829
H 6.97424 7.07966 9.18428
H 9.63572 7.60201 8.05264
H 8.29132 6.593 5.80935
H 6.20925 8.48386 6.47103
H 5.66111 6.75613 7.04922
10
 Atoms. Timestep: 980
C 7.24446 7.86937 8.51555
C 8.54089 7.50268 7.82309
C 7.94295 7.10963 6.67768
C 6.50802 7.49641 6.91067
H 7.06723 8.93525 8.88408
H 6.86053 7.14159 9.28377
H 9.57586 7.62693 8.02507
H 8.39053 6.62093 5.77557
H 6.07635 8.37824 6.45675
H 5.73564 6.64847 6.90181
10
 Atoms. Timestep: 1000
C 7.23543 7.89498 8.61623
C 8.47169 7.49248 7.79044
C 7.971 7.12952 6.60634
C 6.53034 7.45601 6.92373
H 7.13137 8.96072 8.80681
H 6.80561 7.23691 9.35171
H 9.50514 7.57109 8.16454
H 8.49266 6.70292 5.7464
H 6.05956 8.29094 6.39284
H 5.87891 6.61951 6.8062
10
 Atoms. Timestep: 1020
C 7.19428 7.89376 8.53654
C 8.43906 7.49367 7.82794
C 8.00761 7.18198 6.5931
C 6.54532 7.40745 6.94255
H 7.15606 8.94121 8.78438
H 6.86463 7.33026 9.41769
H 9.47112 7.41636 8.27447
H 8.47437 6.84855 5.6866
H 6.13596 8.29501 6.39104
H 5.9042 6.52749 6.9341
10
 Atoms. Timestep: 1040
C 7.18612 7.89854 8.49839
C 8.50426 7.46379 7.88181
C 8.01198 7.23549 6.65298
C 6.52257 7.37467 6.84321
H 7.06586 9.02642 8.68599
H 6.90332 7.30527 9.43058
H 9.46113 7.3283 8.31846
H 8.47008 7.01454 5.65798
H 6.01671 8.23131 6.41501
H 5.8573 6.47926 7.12266
10
 Atoms. Timestep: 1060
C 7.19429 7.89001 8.4978
C 8.51215 7.4419 7.89926
C 8.01407 7.25052 6.6567
C 6.52125 7.40462 6.8845
H 6.96999 8.93184 8.51043
H 6.79472 7.35283 9.31264
H 9.51375 7.3281 8.33546
H 8.59429 7.12943 5.73169
H 5.84309 8.0497 6.31704
H 5.95767 6.50581 7.05222
10
 Atoms. Timestep: 1080
C 7.18721 7.88307 8.55585
C 8.45338 7.44084 7.88327
C 8.05208 7.26698 6.62218
C 6.53256 7.39942 6.90759
H 7.00684 8.95798 8.48161
H 6.61826 7.40578 9.37236
H 9.49699 7.38077 8.30434
H 8.63696 7.13241 5.73917
H 5.87632 8.00274 6.20144
H 6.1372 6.39845 6.97666
10
 Atoms. Timestep: 1100
C 7.11249 7.88598 8.53979
C 8.43841 7.45802 7.89958
C 8.04345 7.30823 6.61784
C 6.59841 7.33895 6.85464
H 7.12959 9.03131 8.65743
H 6.64751 7.43977 9.50019
H 9.41947 7.40611 8.31744
H 8.59289 7.07582 5.67087
H 6.00748 8.0476 6.29884
H 6.1705 6.27237 6.97314
10
 Atoms. Timestep: 1120
C 7.07937 7.89923 8.48691
C 8.44605 7.49919 7.92498
C 8.07914 7.31558 6.65154
C 6.60114 7.29513 6.83607
H 7.05643 8.92673 8.73559
H 6.81741 7.37132 9.34521
H 9.40358 7.42018 8.4262
H 8.55977 7.05893 5.69565
H 5.97219 8.03398 6.36803
H 6.08039 6.35418 6.92133
10
 Atoms. Timestep: 1140
C 7.13658 7.87681 8.49546
C 8.46271 7.57138 7.93346
C 8.11033 7.2579 6.66183
C 6.53472 7.32303 6.83041
H 6.80526 8.9492 8.64802
H 6.78371 7.11832 9.25442
H 9.42489 7.4996 8.53298
H 8.71826 7.05978 5.80654
H 5.88716 8.05361 6.24149
H 6.03872 6.36482 6.87857
10
 Atoms. Timestep: 1160
C 7.10613 7.81772 8.49598
C 8.47931 7.63203 7.90453
C 8.09312 7.21899 6.69523
C 6.57087 7.37931 6.84389
H 6.61265 8.8169 8.64673
H 6.67295 7.05826 9.22042
H 9.42131 7.67195 8.41764
H 8.83158 6.97658 5.89366
H 6.03289 8.0532 6.1837
H 6.05602 6.35487 6.8891
10
 Atoms. Timestep: 1180
C 7.00576 7.79877 8.53924
C 8.44613 7.6792 7.92683
C 8.11325 7.22549 6.7074
C 6.65942 7.32087 6.77188
H 6.6709 8.74603 8.82152
H 6.7021 7.06999 9.22223
H 9.4621 7.8747 8.24744
H 8.69 6.80333 5.85253
H 6.21972 8.14016 6.22209
H 6.03178 6.43982 6.85113
10
 Atoms. Timestep: 1200
C 6.98927 7.80408 8.49891
C 8.40079 7.70981 7.94476
C 8.16911 7.204 6.70931
C 6.65598 7.2681 6.77982
H 6.71687 8.81834 8.98725
H 6.76603 6.95713 9.23335
H 9.40136 8.10148 8.31503
H 8.65304 6.76224 5.87828
H 6.30796 8.2256 6.28069
H 5.98783 6.43922 6.59759
10
 Atoms. Timestep: 1220
C 7.04828 7.80175 8.48059
C 8.40761 7.75906 7.91879
C 8.15011 7.1506 6.74615
C 6.61811 7.27253 6.79766
H 6.64041 8.73012 8.94192
H 6.77625 6.92 9.12107
H 9.18694 8.21019 8.50441
H 8.89601 6.82472 5.97509
H 6.27977 8.20314 6.33721
H 5.99998 6.42816 6.35015
10
 Atoms. Timestep: 1240
C 7.02671 7.76829 8.50436
C 8.40546 7.8091 7.93623
C 8.15172 7.14442 6.77881
C 6.63141 7.276 6.72804
H 6.55688 8.64711 8.834
H 6.79358 6.92492 9.0605
H 9.27358 8.20683 8.45768
H 8.96734 6.8499 6.07833
H 6.22583 8.1981 6.34362
H 6.01502 6.40626 6.43021
10
 Atoms. Timestep: 1260
C 6.93674 7.73195 8.44787
C 8.38967 7.81019 7.97374
C 8.21172 7.22831 6.79124
C 6.69915 7.26507 6.7368
H 6.39228 8.67957 8.83479
H 6.76768 6.84448 9.1442
H 9.41892 8.12326 8.26847
H 8.81267 6.76429 6.05223
H 6.242 8.17877 6.24211
H 6.06679 6.41653 6.64933
10
 Atoms. Timestep: 1280
C 6.9126 7.76105 8.48808
C 8.40463 7.78865 7.98749
C 8.20141 7.28368 6.74326
C 6.72434 7.25179 6.73064
H 6.31317 8.6288 8.79945
H 6.69836 6.8621 9.1283
H 9.35276 8.10319 8.45482
H 8.85505 6.77591 5.99289
H 6.31312 8.04832 6.09534
H 6.1337 6.29065 6.72138
10
 Atoms. Timestep: 1300
C 6.95596 7.78032 8.47546
C 8.38505 7.7725 7.98809
C 8.20522 7.29119 6.75225
C 6.68925 7.23188 6.74541
H 6.41664 8.64443 8.74287
H 6.66139 6.95782 9.06149
H 9.16053 8.04395 8.67739
H 8.97112 7.01311 5.99657
H 6.22515 7.89384 6.04823
H 6.27627 6.21152 6.59514
10
 Atoms. Timestep: 1320
C 6.94549 7.76891 8.41562
C 8.34755 7.76614 8.04381
C 8.23754 7.31313 6.77695
C 6.69235 7.18051 6.70807
H 6.55109 8.82681 8.68705
H 6.63654 6.96725 9.16051
H 9.23455 7.96906 8.68937
H 8.96539 7.22851 6.00413
H 6.04909 7.88342 6.08866
H 6.34976 6.17287 6.59257
10
 Atoms. Timestep: 1340
C 6.86292 7.76051 8.41882
C 8.37561 7.71909 8.06034
C 8.23579 7.3817 6.78079
C 6.74518 7.1551 6.6813
H 6.53954 8.79056 8.56374
H 6.55113 7.10564 9.25246
H 9.30357 7.94261 8.59758
H 8.98476 7.31146 5.9706
H 6.07557 7.86058 6.16905
H 6.3524 6.11073 6.68806
10
 Atoms. Timestep: 1360
C 6.87429 7.7498 8.44859
C 8.36543 7.67743 8.06098
C 8.231 7.43373 6.74067
C 6.77115 7.16355 6.73263
H 6.38797 8.71036 8.40451
H 6.40805 7.19552 9.22876
H 9.25603 7.93965 8.60734
H 9.0075 7.33576 5.94865
H 6.19639 7.7799 6.08134
H 6.41692 6.1118 6.72119
10
 Atoms. Timestep: 1380
C 6.91163 7.75735 8.46761
C 8.34315 7.69587 8.06578
C 8.25049 7.43516 6.75193
C 6.75229 7.15614 6.7246
H 6.3589 8.74899 8.29077
H 6.38246 7.09292 9.22137
H 9.20659 7.89549 8.72915
H 8.94906 7.39126 5.9491
H 6.16119 7.71372 5.93123
H 6.52045 6.1105 6.70792
10
 Atoms. Timestep: 1400
C 6.85905 7.74855 8.3845
C 8.35687 7.74568 8.10019
C 8.23355 7.42087 6.7944
C 6.7651 7.14859 6.68463
H 6.50295 8.77145 8.46632
H 6.54577 7.08659 9.19469
H 9.21082 7.83231 8.79209
H 8.95677 7.44848 5.96828
H 6.07326 7.63292 5.97085
H 6.54698 6.06612 6.71446
10
 Atoms. Timestep: 1420
C 6.84566 7.76601 8.38686
C 8.32994 7.75256 8.09503
C 8.2585 7.44054 6.8025
C 6.77704 7.1084 6.64013
H 6.47671 8.74421 8.63908
H 6.53373 7.09175 9.16414
H 9.17537 7.87441 8.74289
H 9.05687 7.4189 6.01954
H 6.09257 7.66306 6.04053
H 6.52194 6.02263 6.73574
10
 Atoms. Timestep: 1440
C 6.85542 7.74968 8.41399
C 8.28919 7.74776 8.06801
C 8.29391 7.44575 6.75142
C 6.79933 7.11788 6.71216
H 6.29837 8.74208 8.59837
H 6.42043 6.97835 9.1126
H 9.14237 8.02352 8.7133
H 9.1306 7.318 6.09336
H 6.17996 7.71942 6.00115
H 6.52518 6.0722 6.69673
10
 Atoms. Timestep: 1460
C 6.80877 7.70848 8.44371
C 8.32449 7.79714 8.05972
C 8.28919 7.40943 6.78206
C 6.81675 7.15726 6.71096
H 6.25063 8.63434 8.43032
H 6.44653 6.89814 9.08143
H 9.13525 8.17049 8.7083
H 9.09587 7.22152 6.07162
H 6.22708 7.75506 5.97378
H 6.53348 6.10664 6.64485
10
 Atoms. Timestep: 1480
C 6.82587 7.67335 8.39644
C 8.32554 7.87775 8.11386
C 8.28077 7.36497 6.8615
C 6.81022 7.1495 6.62834
H 6.22193 8.55568 8.47247
H 6.53545 6.9251 9.12885
H 9.16765 8.24343 8.68332
H 9.0135 7.19952 6.02253
H 6.24521 7.81884 6.02038
H 6.48586 6.08404 6.56057
10
 Atoms. Timestep: 1500
C 6.8483 7.6821 8.34726
C 8.28314 7.89876 8.10108
C 8.28933 7.35377 6.87965
C 6.81097 7.09919 6.63681
H 6.17748 8.56295 8.63664
H 6.64936 6.90683 9.13658
H 9.09921 8.29647 8.71614
H 9.0899 7.24784 6.17539
H 6.30278 7.89436 6.03827
H 6.41474 6.10865 6.39722
10
 Atoms. Timestep: 1520
C 6.79385 7.7081 8.42653
C 8.24817 7.89713 8.05122
C 8.33294 7.35123 6.82555
C 6.83087 7.08043 6.664
H 6.17086 8.57601 8.66901
H 6.68825 6.79674 9.00853
H 8.9661 8.37026 8.74819
H 9.26484 7.22019 6.28334
H 6.38757 7.90882 6.04281
H 6.41147 6.12665 6.33335
10
 Atoms. Timestep: 1540
C 6.77148 7.66512 8.39826
C 8.22152 7.92329 8.05511
C 8.36041 7.35742 6.84338
C 6.86968 7.12976 6.67731
H 6.14407 8.47963 8.68485
H 6.54426 6.77636 8.98809
H 8.95664 8.44541 8.64171
H 9.26606 7.08459 6.21031
H 6.38561 7.85959 6.08728
H 6.48884 6.1209 6.43242
10
 Atoms. Timestep: 1560
C 6.78528 7.62093 8.36618
C 8.25766 7.95976 8.10699
C 8.33489 7.3629 6.90436
C 6.89517 7.12454 6.59412
H 6.04486 8.47114 8.62972
H 6.47397 6.76475 9.03255
H 9.0286 8.53804 8.63381
H 9.07904 7.07247 6.19399
H 6.30816 7.88687 6.03047
H 6.55142 6.07795 6.53857
10
 Atoms. Timestep: 1580
C 6.77897 7.64436 8.34854
C 8.27253 7.9545 8.14283
C 8.30263 7.38581 6.90997
C 6.8654 7.08534 6.62055
H 6.07145 8.44783 8.44995
H 6.65305 6.77278 8.96334
H 9.01062 8.51298 8.76655
H 9.1551 7.21012 6.26336
H 6.33906 7.79265 5.907
H 6.57756 6.06357 6.4075
10
 Atoms. Timestep: 1600
C 6.77937 7.69763 8.3596
C 8.21329 7.92254 8.11627
C 8.34838 7.43875 6.89325
C 6.85365 7.03923 6.64235
H 6.04233 8.46682 8.45163
H 6.67134 6.79736 8.98352
H 8.89947 8.31214 8.83723
H 9.31569 7.37553 6.30294
H 6.42405 7.66488 5.91475
H 6.60301 6.01436 6.33006
10
 Atoms. Timestep: 1620
C 6.72652 7.66435 8.33916
C 8.17899 7.92621 8.11571
C 8.38581 7.46472 6.85604
C 6.94616 7.02743 6.61936
H 6.01302 8.54965 8.58428
H 6.4366 6.89949 9.12237
H 8.92223 8.19889 8.87991
H 9.28213 7.447 6.25196
H 6.35422 7.70099 5.94363
H 6.69098 5.92774 6.52524
10
 Atoms. Timestep: 1640
C 6.65725 7.60908 8.31188
C 8.20805 7.90709 8.14317
C 8.36821 7.50457 6.88117
C 6.99948 7.05229 6.6163
H 6.15298 8.55284 8.40898
H 6.31504 6.93609 9.06624
H 8.96357 8.2594 8.87613
H 9.17286 7.45833 6.18486
H 6.27666 7.57613 5.93051
H 6.845 5.99904 6.70718
10
 Atoms. Timestep: 1660
C 6.71912 7.64796 8.3221
C 8.21178 7.85669 8.22096
C 8.34795 7.56291 6.90287
C 6.9377 7.03815 6.60744
H 6.1306 8.5441 8.12243
H 6.27485 6.83498 8.95057
H 8.91319 8.34018 8.87782
H 9.21653 7.54188 6.16374
H 6.3395 7.37984 5.79852
H 6.95006 5.94479 6.65571
10
 Atoms. Timestep: 1680
C 6.75933 7.67417 8.30331
C 8.21577 7.84379 8.22235
C 8.31812 7.59092 6.9145
C 6.94818 6.9858 6.61464
H 6.02781 8.51171 8.07808
H 6.23677 6.92425 8.94587
H 8.8582 8.29987 8.98326
H 9.21532 7.74889 6.32229
H 6.39346 7.3242 5.68883
H 6.94407 5.84296 6.54186
10
 Atoms. Timestep: 1700
C 6.64681 7.62106 8.26198
C 8.17933 7.89749 8.21247
C 8.35299 7.58556 6.90894
C 7.03831 6.93681 6.59295
H 6.11854 8.56843 8.20643
H 6.27409 7.06096 9.08647
H 8.892 8.16554 9.02972
H 9.1742 7.86931 6.29631
H 6.42368 7.43355 5.79587
H 6.93684 5.87665 6.61619
10
 Atoms. Timestep: 1720
C 6.61427 7.59359 8.25563
C 8.09604 7.91502 8.19793
C 8.41968 7.58974 6.93523
C 7.07976 6.96595 6.5922
H 6.11262 8.56153 8.20676
H 6.26599 7.00362 9.14805
H 8.82201 8.14584 8.95031
H 9.20396 7.82409 6.14814
H 6.46047 7.41662 5.86617
H 7.00041 5.88254 6.68364
10
 Atoms. Timestep: 1740
C 6.66906 7.61878 8.28502
C 8.11366 7.90661 8.19884
C 8.39639 7.59612 6.92523
C 7.06303 7.00987 6.60989
H 5.89119 8.41758 8.10221
H 6.23096 6.82869 8.94854
H 8.68703 8.3373 9.03414
H 9.31228 7.67883 6.31611
H 6.44917 7.31579 5.72317
H 7.10055 5.8536 6.65095
10
 Atoms. Timestep: 1760
C 6.64782 7.60103 8.25007
C 8.16556 7.95737 8.24692
C 8.37425 7.6092 6.94767
C 7.03299 6.9776 6.5782
H 5.84187 8.31899 8.13804
H 6.33317 6.73786 8.77965
H 8.69877 8.5228 9.05232
H 9.34152 7.55479 6.51912
H 6.4796 7.29266 5.65961
H 7.10539 5.92171 6.60306
10
 Atoms. Timestep: 1780
C 6.62509 7.55937 8.20098
C 8.07325 8.04171 8.24507
C 8.40323 7.59864 7.03254
C 7.08342 6.95329 6.53302
H 5.88806 8.35449 8.29455
H 6.43325 6.6611 8.84085
H 8.77015 8.51459 8.90535
H 9.37725 7.4959 6.47002
H 6.52196 7.42064 5.74821
H 7.0234 5.85524 6.56045
10
 Atoms. Timestep: 1800
C 6.61474 7.53902 8.21346
C 7.99586 8.08521 8.17122
C 8.43485 7.52134 7.02979
C 7.16577 6.96879 6.56526
H 5.80361 8.30025 8.40073
H 6.4537 6.69242 8.9307
H 8.63004 8.55066 8.94798
H 9.406 7.59163 6.50235
H 6.5979 7.56268 5.82824
H 6.96546 5.83616 6.40056
10
 Atoms. Timestep: 1820
C 6.59723 7.53441 8.25646
C 8.02072 8.08566 8.13724
C 8.48854 7.49793 7.02581
C 7.12747 6.94841 6.58747
H 5.69705 8.15399 8.27581
H 6.48797 6.71106 8.91978
H 8.35141 8.73246 8.97467
H 9.43824 7.61612 6.58184
H 6.7019 7.66015 5.84116
H 7.04366 5.94779 6.25392
10
 Atoms. Timestep: 1840
C 6.61514 7.50661 8.21924
C 7.99739 8.09487 8.21866
C 8.48344 7.52695 7.06864
C 7.12077 6.94877 6.56036
H 5.7033 8.09593 8.14119
H 6.52373 6.64221 8.91515
H 8.39094 8.93159 8.79177
H 9.49437 7.51378 6.56817
H 6.66639 7.6511 5.86318
H 7.04485 5.92219 6.20816
10
 Atoms. Timestep: 1860
C 6.62142 7.46681 8.18446
C 7.9943 8.12188 8.22382
C 8.41692 7.55234 7.11779
C 7.20521 6.96786 6.52468
H 5.72791 8.13107 8.17449
H 6.47309 6.58506 8.85794
H 8.47961 8.95483 8.72983
H 9.4178 7.46188 6.66074
H 6.58182 7.59302 5.86552
H 7.01672 5.8408 6.29602
10
 Atoms. Timestep: 1880
C 6.59189 7.47752 8.19053
C 7.96304 8.14866 8.19819
C 8.4553 7.55167 7.07146
C 7.19121 6.94157 6.54092
H 5.71886 8.12358 8.2569
H 6.45802 6.58505 8.75957
H 8.45566 8.82979 8.9451
H 9.46872 7.54413 6.73941
H 6.64571 7.53409 5.79058
H 7.16845 5.88685 6.3908
10
 Atoms. Timestep: 1900
C 6.56701 7.52951 8.19026
C 7.94856 8.11831 8.17386
C 8.49972 7.60832 7.07434
C 7.17068 6.91662 6.56844
H 5.643 8.11356 8.2588
H 6.50273 6.58124 8.77829
H 8.33564 8.59827 9.04839
H 9.53086 7.62307 6.67063
H 6.7484 7.41433 5.6956
H 7.24752 5.85294 6.39586
10
 Atoms. Timestep: 1920
C 6.5615 7.51636 8.14381
C 7.94266 8.08865 8.24012
C 8.44359 7.63621 7.065
C 7.24288 6.93041 6.55858
H 5.65301 8.14916 8.14466
H 6.48474 6.67682 8.8798
H 8.41261 8.58847 9.09657
H 9.45485 7.69606 6.59978
H 6.74224 7.31954 5.64889
H 7.23274 5.76015 6.47429
10
 Atoms. Timestep: 1940
C 6.56525 7.47248 8.13099
C 7.97001 8.06729 8.2796
C 8.4077 7.67479 7.0884
C 7.2606 6.90114 6.52112
H 5.75351 8.18684 7.95599
H 6.28492 6.73771 8.86127
H 8.49747 8.65974 9.06121
H 9.34583 7.80189 6.59946
H 6.71359 7.29345 5.6718
H 7.30727 5.84615 6.6187
10
 Atoms. Timestep: 1960
C 6.56708 7.46765 8.15136
C 7.96706 8.03984 8.29017
C 8.44438 7.70817 7.06471
C 7.23384 6.88336 6.56534
H 5.85547 8.23135 7.80317
H 6.05567 6.70634 8.77942
H 8.43202 8.65757 9.04039
H 9.3926 7.98468 6.58886
H 6.70563 7.22767 5.65433
H 7.40844 5.81831 6.59341
10
 Atoms. Timestep: 1980
C 6.54263 7.4979 8.15098
C 7.9595 8.00662 8.27296
C 8.44133 7.72555 7.05293
C 7.28177 6.8782 6.60088
H 5.87151 8.295 7.80356
H 6.02695 6.71692 8.76028
H 8.32909 8.59286 9.11447
H 9.36594 8.10071 6.55903
H 6.71071 7.13527 5.68264
H 7.46846 5.72956 6.50246
10
 Atoms. Timestep: 2000
C 6.53149 7.5027 8.09022
C 7.93433 8.00879 8.2956
C 8.41439 7.74077 7.07517
C 7.32905 6.84211 6.56112
H 5.80065 8.30414 7.89643
H 6.16117 6.80991 8.81869
H 8.36329 8.52518 9.19078
H 9.28023 8.06302 6.51761
H 6.75526 7.15908 5.71578
H 7.50787 5.79238 6.61706
10
 Atoms. Timestep: 2020
C 6.53788 7.48081 8.0692
C 7.91099 8.04951 8.31281
C 8.41783 7.74629 7.09044
C 7.31445 6.85679 6.54376
H 5.73794 8.22033 7.89808
H 6.22251 6.77555 8.85449
H 8.40051 8.47954 9.16927
H 9.33331 8.00272 6.56546
H 6.82757 7.13368 5.57494
H 7.51522 5.80776 6.72953
10
 Atoms. Timestep: 2040
C 6.52494 7.46405 8.13249
C 7.90959 8.0837 8.25916
C 8.44248 7.7441 7.08871
C 7.29958 6.91625 6.55224
H 5.7022 8.10643 7.82007
H 6.17745 6.61234 8.77957
H 8.33699 8.51937 9.14924
H 9.47035 7.95546 6.72412
H 6.91982 7.00415 5.50394
H 7.45765 5.77365 6.71646
10
 Atoms. Timestep: 2060
C 6.51826 7.43979 8.12074
C 7.87334 8.09446 8.2488
C 8.4734 7.73882 7.08501
C 7.31844 6.90371 6.56742
H 5.66192 8.06344 7.86065
H 6.21801 6.58247 8.69623
H 8.28767 8.6698 9.12748
H 9.51555 7.88684 6.78888
H 6.90583 7.09951 5.60335
H 7.4343 5.85723 6.6806
10
 Atoms. Timestep: 2080
C 6.51257 7.43793 8.05031
C 7.85805 8.11566 8.26794
C 8.46623 7.72253 7.15591
C 7.36929 6.8566 6.54515
H 5.61936 8.09246 7.98017
H 6.33754 6.59338 8.73302
H 8.19592 8.79518 9.03288
H 9.44694 7.83941 6.72827
H 6.78407 7.3267 5.69505
H 7.50336 5.7766 6.60377
10
 Atoms. Timestep: 2100
C 6.52439 7.44104 8.0481
C 7.82408 8.16471 8.27698
C 8.46502 7.65672 7.1795
C 7.38872 6.8555 6.5491
H 5.6131 8.04836 7.98681
H 6.39409 6.59862 8.76772
H 8.09074 8.89898 9.02199
H 9.46062 7.89349 6.74358
H 6.8134 7.34497 5.73254
H 7.53875 5.72779 6.31428
10
 Atoms. Timestep: 2120
C 6.52998 7.41621 8.11321
C 7.80774 8.18619 8.20263