LAMMPS (2 Aug 2023 - Update 2)
#13 Butadiene
units           metal
boundary        p p p
atom_style      atomic

neighbor        2.0 bin
neigh_modify    delay 0 every 1 check yes

read_data       restart.lmp
Reading data file ...
  orthogonal box = (0 0 0) to (15 15 15)
  1 by 1 by 3 MPI processor grid
  reading atoms ...
  10 atoms
  reading velocities ...
  10 velocities
  read_data CPU = 0.001 seconds
mass            1 12.0
mass            2 2

variable        sysvol          equal vol
variable        sysmass         equal mass(all)/6.0221367e+23
variable        sysdensity      equal v_sysmass/v_sysvol/1.0e-24
variable	out_freq 	equal 100

pair_style      deepmd ../files/frozen_model_1_compressed.pb ../files/frozen_model_2_compressed.pb ../files/frozen_model_3_compressed.pb ../files/frozen_model_3_compressed.pb out_file md.out out_freq 10 atomic relative 1.0
Summary of lammps deepmd module ...
  >>> Info of deepmd-kit:
  installed to:       /rs1/researchers/w/wjpfaend/rahul/MLP/DeePMD-kit/deepmd_cpu
  source:             v2.2.8-dirty
  source branch:      master
  source commit:      b875ea8
  source commit at:   2024-01-22 22:28:58 -0500
  support model ver.: 1.1 
  build variant:      cpu
  build with tf inc:  /rs1/researchers/w/wjpfaend/rahul/MLP/DeePMD-kit/tensorflow/lib/python3.11/site-packages/tensorflow/include;/rs1/researchers/w/wjpfaend/rahul/MLP/DeePMD-kit/tensorflow/lib/python3.11/site-packages/tensorflow/include
  build with tf lib:  /rs1/researchers/w/wjpfaend/rahul/MLP/DeePMD-kit/tensorflow/lib/python3.11/site-packages/tensorflow/libtensorflow_cc.so.2
  set tf intra_op_parallelism_threads: 0
  set tf inter_op_parallelism_threads: 0
  >>> Info of lammps module:
  use deepmd-kit at:  /rs1/researchers/w/wjpfaend/rahul/MLP/DeePMD-kit/deepmd_cpu
  source:             v2.2.8-dirty
  source branch:      master
  source commit:      b875ea8
  source commit at:   2024-01-22 22:28:58 -0500
  build float prec:   double
  build with tf inc:  /rs1/researchers/w/wjpfaend/rahul/MLP/DeePMD-kit/tensorflow/lib/python3.11/site-packages/tensorflow/include;/rs1/researchers/w/wjpfaend/rahul/MLP/DeePMD-kit/tensorflow/lib/python3.11/site-packages/tensorflow/include
  build with tf lib:  /rs1/researchers/w/wjpfaend/rahul/MLP/DeePMD-kit/tensorflow/lib/python3.11/site-packages/tensorflow/libtensorflow_cc.so.2
pair_coeff	* *

#
velocity        all create 300.0 2345678 rot no dist gaussian
fix             1 all nvt temp 300.0 300.0 0.05
fix             2 all plumed plumedfile plumed.dat outfile PLUMED.log

timestep        0.0005
thermo_style    custom step pe ke etotal v_sysdensity temp press vol
thermo          10

dump            10 all custom 100 btd.dump id type x y z
dump		101 all xyz 20 btd.xyz
dump_modify	101 element C H

fix		extra all print 20 "$(step), $(ke), $(pe), $(etotal), $(temp), $(press), $(vol)" file logfile screen no

restart	        20000 dump.restart

run             50000

CITE-CITE-CITE-CITE-CITE-CITE-CITE-CITE-CITE-CITE-CITE-CITE-CITE

Your simulation uses code contributions which should be cited:

- USER-DEEPMD package:

@article{Wang_ComputPhysCommun_2018_v228_p178,
  author = {Wang, Han and Zhang, Linfeng and Han, Jiequn and E, Weinan},
  doi = {10.1016/j.cpc.2018.03.016},
  url = {https://doi.org/10.1016/j.cpc.2018.03.016},
  year = 2018,
  month = {jul},
  publisher = {Elsevier {BV}},
  volume = 228,
  journal = {Comput. Phys. Commun.},
  title = {{DeePMD-kit: A deep learning package for many-body potential energy representation and molecular dynamics}},
  pages = {178--184}
}
@misc{Zeng_JChemPhys_2023_v159_p054801,
  title  = {{DeePMD-kit v2: A software package for deep potential models}},
  author =   {Jinzhe Zeng and Duo Zhang and Denghui Lu and Pinghui Mo and Zeyu Li
         and Yixiao Chen and Mari{\'a}n Rynik and Li'ang Huang and Ziyao Li and 
         Shaochen Shi and Yingze Wang and Haotian Ye and Ping Tuo and Jiabin
         Yang and Ye Ding and Yifan Li and Davide Tisi and Qiyu Zeng and Han 
         Bao and Yu Xia and Jiameng Huang and Koki Muraoka and Yibo Wang and 
         Junhan Chang and Fengbo Yuan and Sigbj{\o}rn L{\o}land Bore and Chun
         Cai and Yinnian Lin and Bo Wang and Jiayan Xu and Jia-Xin Zhu and 
         Chenxing Luo and Yuzhi Zhang and Rhys E A Goodall and Wenshuo Liang
         and Anurag Kumar Singh and Sikai Yao and Jingchao Zhang and Renata
         Wentzcovitch and Jiequn Han and Jie Liu and Weile Jia and Darrin M
         York and Weinan E and Roberto Car and Linfeng Zhang and Han Wang},
  journal =  {J. Chem. Phys.},
  volume =   159,
  issue =    5,  
  year =    2023,
  pages  =   054801,
  doi =      {10.1063/5.0155600},
}

CITE-CITE-CITE-CITE-CITE-CITE-CITE-CITE-CITE-CITE-CITE-CITE-CITE

Generated 0 of 1 mixed pair_coeff terms from geometric mixing rule
Neighbor list info ...
  update: every = 1 steps, delay = 0 steps, check = yes
  max neighbors/atom: 2000, page size: 100000
  master list distance cutoff = 8
  ghost atom cutoff = 8
  binsize = 4, bins = 4 4 4
  1 neighbor lists, perpetual/occasional/extra = 1 0 0
  (1) pair deepmd, perpetual
      attributes: full, newton on
      pair build: full/bin/atomonly
      stencil: full/bin/3d
      bin: standard
Per MPI rank memory allocation (min/avg/max) = 2.957 | 2.999 | 3.082 Mbytes
   Step         PotEng         KinEng         TotEng      v_sysdensity       Temp          Press          Volume    
         0  -55.260839      0.34900239    -54.911837      0.029520714    300           -504.60057      3375         
        10  -55.546563      0.61626618    -54.930297      0.029520714    529.73807     -562.73552      3375         
        20  -55.51577       0.60431575    -54.911454      0.029520714    519.46557      706.30221      3375         
        30  -55.414253      0.50521018    -54.909043      0.029520714    434.27512      1404.0219      3375         
        40  -55.319078      0.3716637     -54.947414      0.029520714    319.4795      -683.92198      3375         
        50  -55.566354      0.59116162    -54.975192      0.029520714    508.15837     -1044.2245      3375         
        60  -55.48655       0.45865598    -55.027894      0.029520714    394.25746      419.92012      3375         
        70  -55.392727      0.35786237    -55.034865      0.029520714    307.61597      299.29133      3375         
        80  -55.62721       0.59630754    -55.030903      0.029520714    512.58177      350.024        3375         
        90  -55.676178      0.57049267    -55.105685      0.029520714    490.39148     -136.32907      3375         
       100  -55.573515      0.41458749    -55.158928      0.029520714    356.37649     -1029.7227      3375         
       110  -55.66477       0.46846708    -55.196303      0.029520714    402.69101      173.18752      3375         
       120  -55.677659      0.47085376    -55.206805      0.029520714    404.74258      1423.8069      3375         
       130  -55.71685       0.48108749    -55.235763      0.029520714    413.53942     -188.29201      3375         
       140  -55.604987      0.33600825    -55.268979      0.029520714    288.83032     -1367.6053      3375         
       150  -55.631323      0.33455988    -55.296763      0.029520714    287.58532     -304.81852      3375         
       160  -55.797498      0.47224858    -55.32525       0.029520714    405.94156      618.33245      3375         
       170  -55.660052      0.37283679    -55.287215      0.029520714    320.48788      1146.8217      3375         
       180  -55.532062      0.21529079    -55.316771      0.029520714    185.06245      175.80908      3375         
       190  -55.565683      0.23466634    -55.331016      0.029520714    201.71753     -1396.4041      3375         
       200  -55.820514      0.47602851    -55.344486      0.029520714    409.19076     -492.86472      3375         
       210  -55.63941       0.29534394    -55.344066      0.029520714    253.87557      1251.3011      3375         
       220  -55.609333      0.27567452    -55.333658      0.029520714    236.96788      337.17992      3375         
       230  -55.659959      0.32408596    -55.335873      0.029520714    278.58201     -954.25317      3375         
       240  -55.731617      0.38239187    -55.349225      0.029520714    328.70136     -404.36305      3375         
       250  -55.829698      0.45395523    -55.375743      0.029520714    390.21672      461.41619      3375         
       260  -55.629181      0.2814936     -55.347688      0.029520714    241.96992      953.0019       3375         
       270  -55.702927      0.36226213    -55.340665      0.029520714    311.39798      345.95133      3375         
       280  -55.742884      0.38205459    -55.360829      0.029520714    328.41144     -1481.4633      3375         
       290  -55.751658      0.38077012    -55.370888      0.029520714    327.30732     -1058.4848      3375         
       300  -55.666721      0.28269686    -55.384024      0.029520714    243.00423      1292.6885      3375         
       310  -55.717074      0.33851419    -55.37856       0.029520714    290.98441      1047.3052      3375         
       320  -55.692223      0.33493184    -55.357291      0.029520714    287.90505     -454.19989      3375         
       330  -55.60778       0.22766207    -55.380118      0.029520714    195.69672     -622.49853      3375         
       340  -55.744841      0.34923076    -55.39561       0.029520714    300.19631     -337.07368      3375         
       350  -55.685997      0.28398394    -55.402013      0.029520714    244.1106       291.86811      3375         
       360  -55.602485      0.2372303     -55.365255      0.029520714    203.92149      903.78099      3375         
       370  -55.690797      0.31700883    -55.373788      0.029520714    272.49856     -431.05116      3375         
       380  -55.711043      0.33094491    -55.380098      0.029520714    284.47792     -1066.399       3375         
       390  -55.795451      0.40790329    -55.387548      0.029520714    350.63079      706.87635      3375         
       400  -55.661069      0.26680864    -55.39426       0.029520714    229.34683      843.20783      3375         
       410  -55.644468      0.30012221    -55.344346      0.029520714    257.98294     -279.2148       3375         
       420  -55.804892      0.44607566    -55.358817      0.029520714    383.4435      -545.62882      3375         
       430  -55.794769      0.43083161    -55.363937      0.029520714    370.33982     -663.2385       3375         
       440  -55.698501      0.3192013     -55.3793        0.029520714    274.38319      59.4482        3375         
       450  -55.590743      0.24752813    -55.343215      0.029520714    212.77344      1376.6586      3375         
       460  -55.765245      0.43831629    -55.326928      0.029520714    376.7736       193.2734       3375         
       470  -55.655998      0.32322033    -55.332777      0.029520714    277.83792     -1274.9795      3375         
       480  -55.642489      0.30782397    -55.334665      0.029520714    264.60332     -98.607076      3375         
       490  -55.671939      0.31958285    -55.352356      0.029520714    274.71117      521.1246       3375         
       500  -55.605102      0.31384904    -55.291253      0.029520714    269.78242      131.15297      3375         
       510  -55.658646      0.37253785    -55.286108      0.029520714    320.23092      210.21356      3375         
       520  -55.563604      0.27748101    -55.286123      0.029520714    238.52073     -583.05879      3375         
       530  -55.694522      0.40954989    -55.284972      0.029520714    352.0462      -473.31008      3375         
       540  -55.663533      0.40607509    -55.257458      0.029520714    349.05929      1127.5228      3375         
       550  -55.595829      0.38152808    -55.214301      0.029520714    327.95885      508.82101      3375         
       560  -55.65556       0.46641549    -55.189145      0.029520714    400.92747     -935.94549      3375         
       570  -55.761432      0.58184979    -55.179583      0.029520714    500.15399     -613.23357      3375         
       580  -55.746799      0.56787087    -55.178928      0.029520714    488.13781     -92.023852      3375         
       590  -55.465672      0.3160617     -55.149611      0.029520714    271.68441      477.4581       3375         
       600  -55.606257      0.49486731    -55.11139       0.029520714    425.38446      1252.4763      3375         
       610  -55.635792      0.51600592    -55.119786      0.029520714    443.55506     -487.02615      3375         
       620  -55.481468      0.36266932    -55.118799      0.029520714    311.748       -1450.948       3375         
       630  -55.545295      0.42136401    -55.123931      0.029520714    362.20154      437.08331      3375         
       640  -55.583546      0.46199389    -55.121552      0.029520714    397.1267       728.48679      3375         
       650  -55.557652      0.48003995    -55.077612      0.029520714    412.63896      14.688415      3375         
       660  -55.425516      0.32083518    -55.10468       0.029520714    275.78767     -209.41733      3375         
       670  -55.385891      0.27299083    -55.1129        0.029520714    234.661       -603.6302       3375         
       680  -55.598463      0.46790278    -55.13056       0.029520714    402.20594      141.51324      3375         
       690  -55.734916      0.6402495     -55.094666      0.029520714    550.35397      1547.0449      3375         
       700  -55.654481      0.53957243    -55.114909      0.029520714    463.81266     -35.852401      3375         
       710  -55.509077      0.37034937    -55.138727      0.029520714    318.34972     -1831.454       3375         
       720  -55.777161      0.60693942    -55.170222      0.029520714    521.72086     -461.10394      3375         
       730  -55.745322      0.5191524     -55.22617       0.029520714    446.25975      918.61118      3375         
       740  -55.487921      0.26251295    -55.225408      0.029520714    225.65429      661.49583      3375         
       750  -55.639707      0.38707898    -55.252628      0.029520714    332.73037      299.74357      3375         
       760  -55.705611      0.40463399    -55.300977      0.029520714    347.82053     -717.67516      3375         
       770  -55.677452      0.32680847    -55.350644      0.029520714    280.92227     -807.4691       3375         
       780  -55.643535      0.28196966    -55.361565      0.029520714    242.37914      851.52288      3375         
       790  -55.64722       0.28007307    -55.367147      0.029520714    240.74884      766.55689      3375         
       800  -55.65086       0.26537345    -55.385486      0.029520714    228.11315     -943.177        3375         
       810  -55.724049      0.31524895    -55.4088        0.029520714    270.98578     -525.28549      3375         
       820  -55.718075      0.28472863    -55.433347      0.029520714    244.75073      701.2415       3375         
       830  -55.677255      0.23992283    -55.437332      0.029520714    206.23597      467.5383       3375         
       840  -55.81469       0.39916253    -55.415527      0.029520714    343.1173       21.966549      3375         
       850  -55.762055      0.32323875    -55.438816      0.029520714    277.85376     -657.54857      3375         
       860  -55.75758       0.30197701    -55.455603      0.029520714    259.57732     -811.94356      3375         
       870  -55.837516      0.37544354    -55.462073      0.029520714    322.72863      634.6063       3375         
       880  -55.728205      0.27326379    -55.454941      0.029520714    234.89563      1098.7733      3375         
       890  -55.665432      0.22237832    -55.443054      0.029520714    191.15484     -353.00896      3375         
       900  -55.77348       0.31756986    -55.45591       0.029520714    272.98082     -762.38458      3375         
       910  -55.827818      0.36128739    -55.46653       0.029520714    310.5601       13.148821      3375         
       920  -55.651857      0.17635033    -55.475507      0.029520714    151.5895       238.289        3375         
       930  -55.638753      0.19769925    -55.441054      0.029520714    169.94089      333.13541      3375         
       940  -55.773984      0.32514149    -55.448843      0.029520714    279.48934     -88.573468      3375         
       950  -55.72066       0.26981336    -55.450847      0.029520714    231.92966     -760.08983      3375         
       960  -55.70912       0.25918243    -55.449938      0.029520714    222.7914       277.25086      3375         
       970  -55.688304      0.24488328    -55.443421      0.029520714    210.49994      1054.9971      3375         
       980  -55.739801      0.33421147    -55.405589      0.029520714    287.28583     -135.55807      3375         
       990  -55.802499      0.40117404    -55.401325      0.029520714    344.84638     -726.90351      3375         
      1000  -55.717311      0.31704082    -55.40027       0.029520714    272.52606     -410.41882      3375         
      1010  -55.7058        0.2960392     -55.409761      0.029520714    254.47321     -65.529225      3375         
      1020  -55.75773       0.39669062    -55.361039      0.029520714    340.99246      733.43876      3375         
      1030  -55.789641      0.44495332    -55.344687      0.029520714    382.47874      599.80052      3375         
      1040  -55.615009      0.27499242    -55.340017      0.029520714    236.38155     -892.59702      3375         
      1050  -55.691389      0.35784115    -55.333548      0.029520714    307.59773     -421.93223      3375         
      1060  -55.721905      0.3926183     -55.329287      0.029520714    337.49193      740.6711       3375         
      1070  -55.547138      0.24923875    -55.297899      0.029520714    214.24388      65.596954      3375         
      1080  -55.629506      0.36072969    -55.268776      0.029520714    310.0807      -94.339007      3375         
      1090  -55.666494      0.39674369    -55.26975       0.029520714    341.03808     -194.63926      3375         
      1100  -55.597442      0.3355718     -55.26187       0.029520714    288.45516     -624.77816      3375         
      1110  -55.56404       0.32866602    -55.235374      0.029520714    282.519        511.78552      3375         
      1120  -55.604764      0.38926869    -55.215495      0.029520714    334.61263      1220.7756      3375         
      1130  -55.681697      0.49343043    -55.188267      0.029520714    424.14933     -633.09326      3375         
      1140  -55.659368      0.49308611    -55.166282      0.029520714    423.85335     -1042.8078      3375         
      1150  -55.547841      0.3866897     -55.161151      0.029520714    332.39575      221.23171      3375         
      1160  -55.632384      0.47232561    -55.160059      0.029520714    406.00777      105.55768      3375         
      1170  -55.688617      0.58605327    -55.102564      0.029520714    503.76727      565.95469      3375         
      1180  -55.632312      0.52645927    -55.105853      0.029520714    452.54068      579.35638      3375         
      1190  -55.536397      0.42135497    -55.115042      0.029520714    362.19377     -1093.2843      3375         
      1200  -55.575784      0.46092055    -55.114864      0.029520714    396.20406     -629.95685      3375         
      1210  -55.597463      0.48301471    -55.114448      0.029520714    415.19605      1163.747       3375         
      1220  -55.541344      0.42734905    -55.113995      0.029520714    367.34624      142.96216      3375         
      1230  -55.32684       0.21330403    -55.113536      0.029520714    183.35464     -754.86724      3375         
      1240  -55.532137      0.40040284    -55.131734      0.029520714    344.18346      84.953514      3375         
      1250  -55.780678      0.61147786    -55.1692        0.029520714    525.62206      81.151334      3375         
      1260  -55.49185       0.31844281    -55.173407      0.029520714    273.7312       297.11394      3375         
      1270  -55.487457      0.29812175    -55.189335      0.029520714    256.26336      670.93545      3375         
      1280  -55.709786      0.47316147    -55.236625      0.029520714    406.72627     -808.38643      3375         
      1290  -55.663485      0.38272738    -55.280757      0.029520714    328.98976     -814.09992      3375         
      1300  -55.722699      0.38338182    -55.339317      0.029520714    329.55231      767.6303       3375         
      1310  -55.807827      0.42282235    -55.385005      0.029520714    363.45512      464.6981       3375         
      1320  -55.6865        0.28597301    -55.400527      0.029520714    245.82038     -223.67596      3375         
      1330  -55.746192      0.30471315    -55.441479      0.029520714    261.92928     -124.51825      3375         
      1340  -55.837508      0.36123281    -55.476275      0.029520714    310.51318     -370.20127      3375         
      1350  -55.732691      0.24292889    -55.489763      0.029520714    208.81997     -95.380888      3375         
      1360  -55.756916      0.26779227    -55.489123      0.029520714    230.19235      614.60986      3375         
      1370  -55.732603      0.22963218    -55.502971      0.029520714    197.39021     -70.378106      3375         
      1380  -55.665079      0.15500607    -55.510073      0.029520714    133.24213     -477.72173      3375         
      1390  -55.834352      0.31249465    -55.521857      0.029520714    268.6182       316.56681      3375         
      1400  -55.818485      0.28741159    -55.531074      0.029520714    247.05698      292.01785      3375         
      1410  -55.646178      0.14000706    -55.506171      0.029520714    120.34908     -134.61742      3375         
      1420  -55.724465      0.20981086    -55.514655      0.029520714    180.35194     -76.021613      3375         
      1430  -55.854491      0.33050888    -55.523982      0.029520714    284.10311     -365.2199       3375         
      1440  -55.778984      0.25254317    -55.526441      0.029520714    217.08433     -86.505804      3375         
      1450  -55.738186      0.23151129    -55.506675      0.029520714    199.00548      726.13948      3375         
      1460  -55.821719      0.32374733    -55.497972      0.029520714    278.29093      119.34959      3375         
      1470  -55.786282      0.29628518    -55.489997      0.029520714    254.68465     -713.342        3375         
      1480  -55.778037      0.29077732    -55.48726       0.029520714    249.95014     -166.66206      3375         
      1490  -55.762328      0.27488415    -55.487443      0.029520714    236.28849      335.4212       3375         
      1500  -55.753253      0.29805523    -55.455198      0.029520714    256.20618      318.1121       3375         
      1510  -55.762058      0.3216944     -55.440364      0.029520714    276.52624      236.3433       3375         
      1520  -55.686414      0.24700216    -55.439412      0.029520714    212.32132     -637.52384      3375         
      1530  -55.667622      0.22906288    -55.438559      0.029520714    196.90084     -555.12192      3375         
      1540  -55.728619      0.31992798    -55.408691      0.029520714    275.00784      710.11186      3375         
      1550  -55.734028      0.35158334    -55.382445      0.029520714    302.21857      575.08844      3375         
      1560  -55.590396      0.22507549    -55.365321      0.029520714    193.47331     -562.01657      3375         
      1570  -55.653827      0.29677948    -55.357048      0.029520714    255.10956     -350.0169       3375         
      1580  -55.790641      0.44109389    -55.349547      0.029520714    379.1612       174.02526      3375         
      1590  -55.648581      0.34215341    -55.306428      0.029520714    294.11267      242.0307       3375         
      1600  -55.606398      0.32713307    -55.279265      0.029520714    281.20128      557.89556      3375         
      1610  -55.721705      0.44525118    -55.276454      0.029520714    382.73478     -339.22787      3375         
      1620  -55.706464      0.44306832    -55.263396      0.029520714    380.85841     -1002.0744      3375         
      1630  -55.632417      0.38598385    -55.246433      0.029520714    331.789        258.93192      3375         
      1640  -55.638819      0.39549864    -55.243321      0.029520714    339.96785      734.41034      3375         
      1650  -55.703863      0.48166496    -55.222198      0.029520714    414.03581     -344.97848      3375         
      1660  -55.679016      0.47056328    -55.208453      0.029520714    404.49288     -122.75866      3375         
      1670  -55.504436      0.28862272    -55.215813      0.029520714    248.09806      325.9946       3375         
      1680  -55.529976      0.316307      -55.213669      0.029520714    271.89527     -189.45521      3375         
      1690  -55.686971      0.48267718    -55.204293      0.029520714    414.90591      249.21123      3375         
      1700  -55.669794      0.46199056    -55.207804      0.029520714    397.12384      60.405514      3375         
      1710  -55.469864      0.26119482    -55.20867       0.029520714    224.52123     -933.53821      3375         
      1720  -55.49037       0.28801516    -55.202355      0.029520714    247.5758       175.55521      3375         
      1730  -55.713314      0.50604412    -55.20727       0.029520714    434.99196      897.34173      3375         
      1740  -55.735872      0.52867547    -55.207196      0.029520714    454.44572     -135.81404      3375         
      1750  -55.580734      0.3714174     -55.209317      0.029520714    319.26778     -66.667255      3375         
      1760  -55.561443      0.33853093    -55.222912      0.029520714    290.9988       96.453804      3375         
      1770  -55.682432      0.45924018    -55.223192      0.029520714    394.75963     -733.4182       3375         
      1780  -55.721536      0.4935389     -55.227997      0.029520714    424.24256     -71.233557      3375         
      1790  -55.645132      0.39366316    -55.251469      0.029520714    338.39008      502.36194      3375         
      1800  -55.702064      0.43373136    -55.268333      0.029520714    372.83243     -68.466157      3375         
      1810  -55.725609      0.44152079    -55.284088      0.029520714    379.52816      415.6809       3375         
      1820  -55.597199      0.28272904    -55.31447       0.029520714    243.03189      275.15086      3375         
      1830  -55.621608      0.28560175    -55.336006      0.029520714    245.50126     -968.53492      3375         
      1840  -55.721997      0.38042058    -55.341576      0.029520714    327.00686     -402.80885      3375         
      1850  -55.659399      0.2860554     -55.373343      0.029520714    245.89121      508.58249      3375         
      1860  -55.550829      0.15945727    -55.391371      0.029520714    137.06835      159.86985      3375         
      1870  -55.720757      0.31900715    -55.40175       0.029520714    274.21631      485.56269      3375         
      1880  -55.820452      0.38883954    -55.431613      0.029520714    334.24373      189.64767      3375         
      1890  -55.741356      0.28869289    -55.452663      0.029520714    248.15837     -807.67508      3375         
      1900  -55.694529      0.23291708    -55.461612      0.029520714    200.21388     -85.58536       3375         
      1910  -55.76205       0.27898415    -55.483066      0.029520714    239.81282      333.05839      3375         
      1920  -55.810635      0.3129219     -55.497713      0.029520714    268.98547     -433.08513      3375         
      1930  -55.846579      0.34249175    -55.504088      0.029520714    294.4035       183.13521      3375         
      1940  -55.821353      0.29754273    -55.52381       0.029520714    255.76563      595.73767      3375         
      1950  -55.793749      0.25558465    -55.538164      0.029520714    219.69877     -287.78727      3375         
      1960  -55.838077      0.30321927    -55.534858      0.029520714    260.64515     -164.73654      3375         
      1970  -55.72086       0.17842743    -55.542432      0.029520714    153.37496      13.726346      3375         
      1980  -55.707722      0.1656355     -55.542087      0.029520714    142.37911     -432.72585      3375         
      1990  -55.803355      0.26447887    -55.538876      0.029520714    227.34417      269.93428      3375         
      2000  -55.784498      0.23779742    -55.546701      0.029520714    204.40899      489.58348      3375         
      2010  -55.682073      0.13542252    -55.546651      0.029520714    116.40824     -341.34584      3375         
      2020  -55.801507      0.27484601    -55.526661      0.029520714    236.2557       105.33972      3375         
      2030  -55.838214      0.31169246    -55.526522      0.029520714    267.92865      364.10771      3375         
      2040  -55.730969      0.20445142    -55.526517      0.029520714    175.745       -551.92219      3375         
      2050  -55.715354      0.19543918    -55.519914      0.029520714    167.99815     -259.01742      3375         
      2060  -55.784062      0.26649168    -55.517571      0.029520714    229.07437      313.51915      3375         
      2070  -55.868775      0.36281278    -55.505962      0.029520714    311.87131     -78.475615      3375         
      2080  -55.825062      0.33638207    -55.48868       0.029520714    289.15166      164.57319      3375         
      2090  -55.73438       0.24333176    -55.491048      0.029520714    209.16627      323.36216      3375         
      2100  -55.768087      0.27998487    -55.488102      0.029520714    240.67302     -400.34246      3375         
      2110  -55.796968      0.32585311    -55.471115      0.029520714    280.10104     -127.83554      3375         
      2120  -55.673538      0.2020181     -55.47152       0.029520714    173.65333      476.54795      3375         
      2130  -55.731228      0.25855073    -55.472678      0.029520714    222.24839     -355.17402      3375         
      2140  -55.753061      0.30039693    -55.452664      0.029520714    258.21909     -582.09556      3375         
      2150  -55.691414      0.24564207    -55.445772      0.029520714    211.15219      338.53532      3375         
      2160  -55.650294      0.2067252     -55.443568      0.029520714    177.69953      388.61776      3375         
      2170  -55.720469      0.29264925    -55.42782       0.029520714    251.55923      342.27884      3375         
      2180  -55.778213      0.36558144    -55.412632      0.029520714    314.25123      317.20958      3375         
      2190  -55.67728       0.27495202    -55.402328      0.029520714    236.34683     -699.99128      3375         
      2200  -55.617569      0.2309394     -55.38663       0.029520714    198.51388     -778.04708      3375         
      2210  -55.721913      0.34180112    -55.380111      0.029520714    293.80984      386.4141       3375         
      2220  -55.863185      0.49216824    -55.371017      0.029520714    423.06435      243.62418      3375         
      2230  -55.689282      0.35191186    -55.33737       0.029520714    302.50096      41.203145      3375         
      2240  -55.656228      0.32588292    -55.330345      0.029520714    280.12666      607.68263      3375         
      2250  -55.734877      0.40386629    -55.331011      0.029520714    347.16062     -122.39865      3375         
      2260  -55.674053      0.35794615    -55.316107      0.029520714    307.688       -813.83602      3375         
      2270  -55.649382      0.34748539    -55.301896      0.029520714    298.69599      30.333068      3375         
      2280  -55.714322      0.41732796    -55.296994      0.029520714    358.73218     -23.726265      3375         
      2290  -55.589478      0.31531313    -55.274164      0.029520714    271.04095      62.633881      3375         
      2300  -55.600718      0.3243058     -55.276413      0.029520714    278.77099      807.92108      3375         
      2310  -55.645134      0.36271822    -55.282416      0.029520714    311.79003     -23.610131      3375         
      2320  -55.569014      0.30789535    -55.261119      0.029520714    264.66468     -626.12709      3375         
      2330  -55.692825      0.44606812    -55.246757      0.029520714    383.43701      316.21171      3375         
      2340  -55.638489      0.38766148    -55.250828      0.029520714    333.23108     -181.4415       3375         
      2350  -55.52521       0.288166      -55.237044      0.029520714    247.70547     -833.13582      3375         
      2360  -55.677354      0.44969555    -55.227658      0.029520714    386.55513      424.7661       3375         
      2370  -55.802187      0.57161086    -55.230576      0.029520714    491.35267      686.68691      3375         
      2380  -55.543354      0.33566804    -55.207686      0.029520714    288.53788      198.59747      3375         
      2390  -55.661617      0.45426939    -55.207347      0.029520714    390.48677      360.31162      3375         
      2400  -55.762046      0.54349918    -55.218547      0.029520714    467.18807     -816.53035      3375         
      2410  -55.605012      0.39322645    -55.211786      0.029520714    338.01469     -1253.8724      3375         
      2420  -55.614267      0.39964846    -55.214619      0.029520714    343.535        695.52256      3375         
      2430  -55.672753      0.44010362    -55.232649      0.029520714    378.30997      831.14166      3375         
      2440  -55.606882      0.37056407    -55.236318      0.029520714    318.53427     -396.19097      3375         
      2450  -55.626485      0.38640256    -55.240082      0.029520714    332.14892      184.51926      3375         
      2460  -55.594656      0.3337725     -55.260884      0.029520714    286.9085       210.08985      3375         
      2470  -55.503764      0.23883672    -55.264928      0.029520714    205.30236     -465.55868      3375         
      2480  -55.705586      0.42630343    -55.279283      0.029520714    366.44743      236.1346       3375         
      2490  -55.679105      0.36805171    -55.311053      0.029520714    316.37466     -28.968476      3375         
      2500  -55.632321      0.30188647    -55.330435      0.029520714    259.49949     -592.7299       3375         
      2510  -55.704613      0.34950403    -55.355109      0.029520714    300.4312       572.29877      3375         
      2520  -55.775285      0.37824711    -55.397038      0.029520714    325.13856      359.55065      3375         
      2530  -55.692103      0.26582088    -55.426283      0.029520714    228.49775     -658.4789       3375         
      2540  -55.775592      0.33614216    -55.43945       0.029520714    288.94544      153.59181      3375         
      2550  -55.846323      0.36893926    -55.477384      0.029520714    317.13759      479.6923       3375         
      2560  -55.785726      0.28187229    -55.503853      0.029520714    242.29544     -423.73962      3375         
      2570  -55.747564      0.22786659    -55.519697      0.029520714    195.87252     -225.57378      3375         
      2580  -55.759773      0.22125614    -55.538517      0.029520714    190.19022      16.588022      3375         
      2590  -55.823324      0.2825295     -55.540794      0.029520714    242.86037     -97.895402      3375         
      2600  -55.758842      0.21854918    -55.540293      0.029520714    187.86334      628.49866      3375         
      2610  -55.698697      0.14285743    -55.55584       0.029520714    122.79924      290.93159      3375         
      2620  -55.758728      0.19667714    -55.56205       0.029520714    169.06228     -725.68277      3375         
      2630  -55.845929      0.29181787    -55.554111      0.029520714    250.84459     -149.49786      3375         
      2640  -55.758557      0.20110158    -55.557456      0.029520714    172.8655       388.87841      3375         
      2650  -55.721625      0.16976048    -55.551865      0.029520714    145.92491     -297.88791      3375         
      2660  -55.774504      0.23181309    -55.542691      0.029520714    199.2649      -12.804842      3375         
      2670  -55.851969      0.30854792    -55.543421      0.029520714    265.22562      396.35933      3375         
      2680  -55.806701      0.27187085    -55.53483       0.029520714    233.69827      28.854606      3375         
      2690  -55.754446      0.23251608    -55.52193       0.029520714    199.86919      132.45438      3375         
      2700  -55.819952      0.30177727    -55.518175      0.029520714    259.40561     -169.19743      3375         
      2710  -55.7945        0.29244491    -55.502055      0.029520714    251.38358     -914.66286      3375         
      2720  -55.776163      0.29564394    -55.480519      0.029520714    254.13345      41.425644      3375         
      2730  -55.739319      0.26183542    -55.477484      0.029520714    225.07189      939.04297      3375         
      2740  -55.747542      0.27828562    -55.469257      0.029520714    239.21236      196.54571      3375         
      2750  -55.719992      0.27450411    -55.445488      0.029520714    235.9618      -72.370899      3375         
      2760  -55.642511      0.20526662    -55.437244      0.029520714    176.44574     -85.75829       3375         
      2770  -55.672316      0.24921069    -55.423106      0.029520714    214.21976     -780.1834       3375         
      2780  -55.764844      0.36619707    -55.398647      0.029520714    314.78042     -204.93748      3375         
      2790  -55.656571      0.27043353    -55.386138      0.029520714    232.46276      648.19219      3375         
      2800  -55.595753      0.22110019    -55.374653      0.029520714    190.05617      301.82719      3375         
      2810  -55.753214      0.40281322    -55.350401      0.029520714    346.25541      388.81492      3375         
      2820  -55.734507      0.39553013    -55.338977      0.029520714    339.99491      129.35213      3375         
      2830  -55.658613      0.32642786    -55.332185      0.029520714    280.59509     -1101.935       3375         
      2840  -55.728364      0.41817186    -55.310192      0.029520714    359.45759     -673.95562      3375         
      2850  -55.746514      0.44506514    -55.301449      0.029520714    382.57486      667.01236      3375         
      2860  -55.627124      0.33044263    -55.296682      0.029520714    284.04616      488.05299      3375         
      2870  -55.703133      0.41261286    -55.29052       0.029520714    354.67911      251.79299      3375         
      2880  -55.701777      0.40846996    -55.293307      0.029520714    351.1179       113.9645       3375         
      2890  -55.659538      0.36839641    -55.291141      0.029520714    316.67096     -694.52808      3375         
      2900  -55.644346      0.37123596    -55.27311       0.029520714    319.11182     -149.07961      3375         
      2910  -55.539917      0.25914586    -55.280771      0.029520714    222.75996      527.48382      3375         
      2920  -55.532091      0.24892088    -55.28317       0.029520714    213.97064     -351.31714      3375         
      2930  -55.748397      0.46665817    -55.281739      0.029520714    401.13608     -173.89929      3375         
      2940  -55.638596      0.35159377    -55.287002      0.029520714    302.22753      685.02475      3375         
      2950  -55.506787      0.22256639    -55.28422       0.029520714    191.31651      11.692455      3375         
      2960  -55.688808      0.42954612    -55.259262      0.029520714    369.23483     -418.81306      3375         
      2970  -55.735258      0.46966783    -55.26559       0.029520714    403.72317     -269.69382      3375         
      2980  -55.662833      0.38762781    -55.275205      0.029520714    333.20214     -174.91604      3375         
      2990  -55.727461      0.45465422    -55.272807      0.029520714    390.81757      684.86952      3375         
      3000  -55.73802       0.46252827    -55.275492      0.029520714    397.58605      711.50789      3375         
      3010  -55.644994      0.36161685    -55.283377      0.029520714    310.8433      -865.62907      3375         
      3020  -55.645957      0.35824601    -55.287711      0.029520714    307.94575     -813.95293      3375         
      3030  -55.709565      0.41013327    -55.299432      0.029520714    352.54767      388.2424       3375         
      3040  -55.71015       0.40104843    -55.309101      0.029520714    344.7384       397.69541      3375         
      3050  -55.644399      0.33613884    -55.30826       0.029520714    288.94259      270.51925      3375         
      3060  -55.583308      0.25889832    -55.324409      0.029520714    222.54717     -48.218094      3375         
      3070  -55.586519      0.2483532     -55.338165      0.029520714    213.48266     -531.60962      3375         
      3080  -55.616004      0.28580114    -55.330203      0.029520714    245.67265      29.473316      3375         
      3090  -55.640372      0.30382541    -55.336546      0.029520714    261.16618      552.56418      3375         
      3100  -55.609655      0.2695728     -55.340083      0.029520714    231.72288     -53.564753      3375         
      3110  -55.716132      0.37084453    -55.345288      0.029520714    318.77535     -204.28247      3375         
      3120  -55.855668      0.49367236    -55.361996      0.029520714    424.35729      139.20416      3375         
      3130  -55.741187      0.35344946    -55.387738      0.029520714    303.82267     -225.50961      3375         
      3140  -55.657286      0.2856855     -55.3716        0.029520714    245.57324     -192.97673      3375         
      3150  -55.809166      0.42364026    -55.385526      0.029520714    364.15818      17.410959      3375         
      3160  -55.778537      0.36039699    -55.41814       0.029520714    309.79471     -164.28026      3375         
      3170  -55.686544      0.24744528    -55.439099      0.029520714    212.70222      492.82533      3375         
      3180  -55.767086      0.30531234    -55.461774      0.029520714    262.44434      794.82964      3375         
      3190  -55.833065      0.35163293    -55.481433      0.029520714    302.26119     -507.97614      3375         
      3200  -55.720682      0.22193327    -55.498749      0.029520714    190.77228     -931.81619      3375         
      3210  -55.651845      0.12828509    -55.52356       0.029520714    110.27296     -112.03262      3375         
      3220  -55.736485      0.1917252     -55.54476       0.029520714    164.80563      290.09639      3375         
      3230  -55.738948      0.19943466    -55.539513      0.029520714    171.43263      686.50298      3375         
      3240  -55.774093      0.22364194    -55.550451      0.029520714    192.24104      535.78942      3375         
      3250  -55.78125       0.21402024    -55.56723       0.029520714    183.9703      -673.57063      3375         
      3260  -55.786955      0.21071736    -55.576237      0.029520714    181.13116     -753.84562      3375         
      3270  -55.86377       0.28094528    -55.582825      0.029520714    241.49859      321.72315      3375         
      3280  -55.842021      0.26446384    -55.577557      0.029520714    227.33125      270.04198      3375         
      3290  -55.788958      0.21639982    -55.572558      0.029520714    186.01576      51.074449      3375         
      3300  -55.830127      0.24404994    -55.586077      0.029520714    209.78361      167.50087      3375         
      3310  -55.896617      0.29561346    -55.601003      0.029520714    254.10725     -249.89164      3375         
      3320  -55.782388      0.19256865    -55.58982       0.029520714    165.53066     -158.69344      3375         
      3330  -55.774108      0.20111968    -55.572988      0.029520714    172.88106      413.05117      3375         
      3340  -55.853037      0.28051344    -55.572524      0.029520714    241.12738     -393.08999      3375         
      3350  -55.754365      0.18414893    -55.570216      0.029520714    158.29312     -492.25043      3375         
      3360  -55.697508      0.12577888    -55.571729      0.029520714    108.11864      727.08668      3375         
      3370  -55.791952      0.2227042     -55.569248      0.029520714    191.43497      470.02467      3375         
      3380  -55.756419      0.22589551    -55.530524      0.029520714    194.17819     -189.29989      3375         
      3390  -55.693908      0.17313462    -55.520773      0.029520714    148.8253      -141.51932      3375         
      3400  -55.773905      0.25795496    -55.51595       0.029520714    221.73627     -809.39887      3375         
      3410  -55.787058      0.29336898    -55.493689      0.029520714    252.17791     -260.99084      3375         
      3420  -55.7445        0.28417852    -55.460321      0.029520714    244.27785      1323.0602      3375         
      3430  -55.785769      0.34849459    -55.437274      0.029520714    299.5635       332.2668       3375         
      3440  -55.729277      0.31828887    -55.410988      0.029520714    273.59887     -868.90009      3375         
      3450  -55.769327      0.37056864    -55.398758      0.029520714    318.5382      -119.68415      3375         
      3460  -55.809122      0.4128202     -55.396302      0.029520714    354.85733     -101.4322       3375         
      3470  -55.60725       0.25191305    -55.355337      0.029520714    216.54268     -0.94159647     3375         
      3480  -55.652198      0.30148054    -55.350717      0.029520714    259.15055      719.99097      3375         
      3490  -55.794429      0.43966762    -55.354762      0.029520714    377.93519     -391.02238      3375         
      3500  -55.654587      0.30279241    -55.351794      0.029520714    260.27823     -641.37972      3375         
      3510  -55.50298       0.16145465    -55.341525      0.029520714    138.78528      766.21988      3375         
      3520  -55.662519      0.32416783    -55.338352      0.029520714    278.65239      419.55342      3375         
      3530  -55.685521      0.37362912    -55.311892      0.029520714    321.16896     -611.797        3375         
      3540  -55.592258      0.27386852    -55.318389      0.029520714    235.41545     -183.56258      3375         
      3550  -55.63585       0.30890946    -55.326941      0.029520714    265.5364      -79.701662      3375         
      3560  -55.679132      0.35807772    -55.321055      0.029520714    307.80109      68.57395       3375         
      3570  -55.710402      0.42648407    -55.283918      0.029520714    366.60271      917.68906      3375         
      3580  -55.6832        0.3942855     -55.288915      0.029520714    338.92504     -275.23079      3375         
      3590  -55.685063      0.39828996    -55.286773      0.029520714    342.36725     -1072.9565      3375         
      3600  -55.75874       0.47422906    -55.284511      0.029520714    407.64396      447.44142      3375         
      3610  -55.687548      0.39461117    -55.292937      0.029520714    339.20499      746.83221      3375         
      3620  -55.60432       0.32810773    -55.276213      0.029520714    282.03909     -380.39142      3375         
      3630  -55.684059      0.40486706    -55.279192      0.029520714    348.02087     -334.58424      3375         
      3640  -55.692338      0.39839608    -55.293942      0.029520714    342.45846     -265.59942      3375         
      3650  -55.587729      0.2855979     -55.302131      0.029520714    245.49795     -77.627414      3375         
      3660  -55.547693      0.26542809    -55.282265      0.029520714    228.16012      944.91384      3375         
      3670  -55.637844      0.35031197    -55.287532      0.029520714    301.12571      424.14782      3375         
      3680  -55.653024      0.36207741    -55.290947      0.029520714    311.2392      -1031.3787      3375         
      3690  -55.613082      0.31809051    -55.294992      0.029520714    273.42836     -287.47949      3375         
      3700  -55.571323      0.26100129    -55.310322      0.029520714    224.35487      557.10558      3375         
      3710  -55.63239       0.34486999    -55.28752       0.029520714    296.44782      4.8441731      3375         
      3720  -55.825606      0.55049597    -55.27511       0.029520714    473.20246      7.5269943      3375         
      3730  -55.70459       0.4096593     -55.29493       0.029520714    352.14025     -66.207629      3375         
      3740  -55.623911      0.31188966    -55.312021      0.029520714    268.09816     -249.36515      3375         
      3750  -55.778097      0.4642001     -55.313897      0.029520714    399.02314      436.84783      3375         
      3760  -55.734552      0.42906942    -55.305483      0.029520714    368.82506      296.79587      3375         
      3770  -55.630345      0.32265106    -55.307694      0.029520714    277.34858     -1095.6757      3375         
      3780  -55.69614       0.36678929    -55.32935       0.029520714    315.28949     -473.82784      3375         
      3790  -55.719188      0.36598198    -55.353206      0.029520714    314.59554      1195.6441      3375         
      3800  -55.597491      0.23611041    -55.36138       0.029520714    202.95885      781.97732      3375         
      3810  -55.662823      0.30931777    -55.353505      0.029520714    265.88738     -135.02254      3375         
      3820  -55.696652      0.31810247    -55.37855       0.029520714    273.43865     -810.69171      3375         
      3830  -55.673658      0.27188234    -55.401775      0.029520714    233.70814     -1197.1456      3375         
      3840  -55.703007      0.29331709    -55.40969       0.029520714    252.13331      263.70121      3375         
      3850  -55.620882      0.20849442    -55.412388      0.029520714    179.22033      1502.9749      3375         
      3860  -55.705531      0.29241716    -55.413113      0.029520714    251.35974      296.85247      3375         
      3870  -55.843489      0.40887672    -55.434612      0.029520714    351.46755     -516.12174      3375         
      3880  -55.769143      0.30613582    -55.463007      0.029520714    263.1522      -227.56125      3375         
      3890  -55.703878      0.22247526    -55.481403      0.029520714    191.23817     -460.8983       3375         
      3900  -55.830074      0.37245807    -55.457616      0.029520714    320.16234     -6.8181559      3375         
      3910  -55.808945      0.32281947    -55.486125      0.029520714    277.49334      335.05875      3375         
      3920  -55.690006      0.18471967    -55.505286      0.029520714    158.78373     -278.17991      3375         
      3930  -55.868781      0.34600165    -55.522779      0.029520714    297.42059      302.24118      3375         
      3940  -55.821438      0.27908213    -55.542356      0.029520714    239.89703      745.62665      3375         
      3950  -55.66113       0.13591798    -55.525212      0.029520714    116.83414     -386.07991      3375         
      3960  -55.738247      0.21638434    -55.521863      0.029520714    186.00246     -682.68884      3375         
      3970  -55.811982      0.26838555    -55.543597      0.029520714    230.70233     -282.24403      3375         
      3980  -55.782439      0.22292659    -55.559512      0.029520714    191.62613      30.498281      3375         
      3990  -55.727652      0.17777812    -55.549873      0.029520714    152.81682      949.92063      3375         
      4000  -55.751348      0.20697015    -55.544378      0.029520714    177.91008      706.50243      3375         
      4010  -55.762167      0.21717877    -55.544989      0.029520714    186.68535     -997.68925      3375         
      4020  -55.85983       0.31606454    -55.543765      0.029520714    271.68686     -832.1226       3375         
      4030  -55.814373      0.26816545    -55.546208      0.029520714    230.51314      331.90963      3375         
      4040  -55.688442      0.15531128    -55.533131      0.029520714    133.50448      487.09841      3375         
      4050  -55.842309      0.33377566    -55.508533      0.029520714    286.9112       514.77859      3375         
      4060  -55.876516      0.37529287    -55.501223      0.029520714    322.59911     -303.10251      3375         
      4070  -55.714809      0.21840303    -55.496406      0.029520714    187.73771     -1003.1562      3375         
      4080  -55.740095      0.26534617    -55.474748      0.029520714    228.0897       338.81222      3375         
      4090  -55.795419      0.36359053    -55.431829      0.029520714    312.53986      1064.7919      3375         
      4100  -55.672785      0.2713549     -55.40143       0.029520714    233.25476     -287.4687       3375         
      4110  -55.592066      0.19976147    -55.392305      0.029520714    171.71355     -763.20974      3375         
      4120  -55.801515      0.42588785    -55.375627      0.029520714    366.0902      -197.93076      3375         
      4130  -55.677136      0.32202173    -55.355115      0.029520714    276.80761      203.32876      3375         
      4140  -55.494843      0.21021511    -55.284628      0.029520714    180.69943      838.19409      3375         
      4150  -55.617205      0.33543701    -55.281768      0.029520714    288.33929      145.07476      3375         
      4160  -55.666679      0.39763282    -55.269046      0.029520714    341.80237     -972.7556       3375         
      4170  -55.742408      0.4850725     -55.257336      0.029520714    416.96491      63.686125      3375         
      4180  -55.565089      0.31182917    -55.253259      0.029520714    268.04616      931.51713      3375         
      4190  -55.57762       0.36196267    -55.215658      0.029520714    311.14056     -353.66936      3375         
      4200  -55.725772      0.52354432    -55.202227      0.029520714    450.03501     -904.76923      3375         
      4210  -55.692907      0.48218948    -55.210717      0.029520714    414.48669     -218.89931      3375         
      4220  -55.691986      0.46820662    -55.22378       0.029520714    402.46712      645.06175      3375         
      4230  -55.659971      0.4565576     -55.203414      0.029520714    392.4537       1250.5669      3375         
      4240  -55.633605      0.42559891    -55.208006      0.029520714    365.84183      200.91033      3375         
      4250  -55.573437      0.3522528     -55.221184      0.029520714    302.79403     -1603.7799      3375         
      4260  -55.575616      0.34709048    -55.228526      0.029520714    298.35653     -1010.3663      3375         
      4270  -55.587413      0.34579844    -55.241614      0.029520714    297.2459       685.89691      3375         
      4280  -55.659312      0.43026636    -55.229045      0.029520714    369.85393      704.98255      3375         
      4290  -55.552079      0.32690296    -55.225176      0.029520714    281.00348      576.06281      3375         
      4300  -55.531973      0.28581005    -55.246163      0.029520714    245.68031      171.5939       3375         
      4310  -55.692982      0.42339391    -55.269588      0.029520714    363.94643     -768.40633      3375         
      4320  -55.649635      0.38402829    -55.265607      0.029520714    330.10801     -345.18148      3375         
      4330  -55.563558      0.30583243    -55.257726      0.029520714    262.8914       428.68276      3375         
      4340  -55.683576      0.4166847     -55.266891      0.029520714    358.17923     -544.0215       3375         
      4350  -55.732898      0.44921166    -55.283686      0.029520714    386.13918     -389.69418      3375         
      4360  -55.77287       0.46260748    -55.310262      0.029520714    397.65413      1137.9272      3375         
      4370  -55.721054      0.3776465     -55.343408      0.029520714    324.62228      592.1537       3375         
      4380  -55.676445      0.36825343    -55.308191      0.029520714    316.54806     -356.88178      3375         
      4390  -55.644335      0.30174583    -55.342589      0.029520714    259.37859     -522.96391      3375         
      4400  -55.696934      0.32492315    -55.372011      0.029520714    279.30165     -1122.288       3375         
      4410  -55.704881      0.31911018    -55.385771      0.029520714    274.30487      49.604256      3375         
      4420  -55.654401      0.26229013    -55.392111      0.029520714    225.46275      1814.3315      3375         
      4430  -55.741781      0.33604013    -55.405741      0.029520714    288.85773      301.38297      3375         
      4440  -55.643676      0.22915304    -55.414523      0.029520714    196.97834     -1119.7588      3375         
      4450  -55.624372      0.19225167    -55.43212       0.029520714    165.25818     -256.78249      3375         
      4460  -55.814692      0.35411417    -55.460578      0.029520714    304.39405     -119.82276      3375         
      4470  -55.705113      0.27582895    -55.429284      0.029520714    237.10062      186.96222      3375         
      4480  -55.617822      0.17582989    -55.441992      0.029520714    151.14213      895.72702      3375         
      4490  -55.789896      0.32791504    -55.461981      0.029520714    281.87346     -437.4789       3375         
      4500  -55.893294      0.41951049    -55.473784      0.029520714    360.60826     -737.78489      3375         
      4510  -55.774356      0.29180932    -55.482546      0.029520714    250.83724      807.49816      3375         
      4520  -55.701778      0.21785644    -55.483922      0.029520714    187.26786      173.76425      3375         
      4530  -55.762718      0.29025066    -55.472468      0.029520714    249.49742     -796.06594      3375         
      4540  -55.79683       0.30354442    -55.493285      0.029520714    260.92465     -1.1729894      3375         
      4550  -55.799862      0.28377274    -55.516089      0.029520714    243.92905      95.174184      3375         
      4560  -55.710647      0.19802922    -55.512618      0.029520714    170.22452      200.39513      3375         
      4570  -55.730064      0.2338021     -55.496262      0.029520714    200.97464      849.13146      3375         
      4580  -55.789255      0.2799633     -55.509292      0.029520714    240.65448     -529.72527      3375         
      4590  -55.730567      0.21710891    -55.513459      0.029520714    186.62529     -1056.6319      3375         
      4600  -55.724141      0.20543536    -55.518706      0.029520714    176.59079      607.4122       3375         
      4610  -55.749004      0.22403372    -55.52497       0.029520714    192.57781      678.91692      3375         
      4620  -55.772694      0.26805806    -55.504636      0.029520714    230.42082     -244.33208      3375         
      4630  -55.735875      0.23105918    -55.504816      0.029520714    198.61685     -286.80207      3375         
      4640  -55.776989      0.26239181    -55.514597      0.029520714    225.55015     -542.98646      3375         
      4650  -55.820234      0.31842729    -55.501806      0.029520714    273.71786      66.970313      3375         
      4660  -55.788768      0.32669629    -55.462071      0.029520714    280.82584      1191.6995      3375         
      4670  -55.727347      0.26981048    -55.457537      0.029520714    231.92719      89.630106      3375         
      4680  -55.729957      0.28349724    -55.44646       0.029520714    243.69224     -1072.0291      3375         
      4690  -55.865427      0.43726236    -55.428165      0.029520714    375.86765     -122.0925       3375         
      4700  -55.70754       0.28992331    -55.417617      0.029520714    249.21604      336.23988      3375         
      4710  -55.56906       0.19794468    -55.371115      0.029520714    170.15185     -58.420109      3375         
      4720  -55.749664      0.39637951    -55.353285      0.029520714    340.72504      199.45545      3375         
      4730  -55.751717      0.41223885    -55.339478      0.029520714    354.35761     -4.0784447      3375         
      4740  -55.574602      0.24619495    -55.328407      0.029520714    211.62744     -123.35634      3375         
      4750  -55.592841      0.2914456     -55.301395      0.029520714    250.52458      557.72869      3375         
      4760  -55.66658       0.3914984     -55.275082      0.029520714    336.52927     -114.61337      3375         
      4770  -55.566522      0.32223824    -55.244283      0.029520714    276.99373     -1058.9015      3375         
      4780  -55.582232      0.34408597    -55.238146      0.029520714    295.77388     -86.602431      3375         
      4790  -55.694103      0.45640631    -55.237697      0.029520714    392.32366      1006.499       3375         
      4800  -55.638815      0.43173139    -55.207083      0.029520714    371.11327      518.16457      3375         
      4810  -55.704079      0.53548674    -55.168592      0.029520714    460.30064      5.8733053      3375         
      4820  -55.618026      0.44028537    -55.17774       0.029520714    378.4662      -933.40198      3375         
      4830  -55.608048      0.4223711     -55.185677      0.029520714    363.06722     -1188.3124      3375         
      4840  -55.698379      0.53129011    -55.167089      0.029520714    456.69324      658.35488      3375         
      4850  -55.634114      0.47693753    -55.157177      0.029520714    409.97215      1483.9659      3375         
      4860  -55.506243      0.34936524    -55.156878      0.029520714    300.3119      -163.62165      3375         
      4870  -55.61234       0.44176334    -55.170577      0.029520714    379.73666     -626.14778      3375         
      4880  -55.718067      0.5226462     -55.195421      0.029520714    449.26299     -106.77497      3375         
      4890  -55.458499      0.26132098    -55.197178      0.029520714    224.62968     -298.23771      3375         
      4900  -55.591335      0.42876517    -55.16257       0.029520714    368.56352      310.60681      3375         
      4910  -55.636829      0.4371323     -55.199697      0.029520714    375.75585      204.45319      3375         
      4920  -55.473851      0.26018497    -55.213666      0.029520714    223.65317     -512.43727      3375         
      4930  -55.655661      0.42590124    -55.22976       0.029520714    366.10171      453.29316      3375         
      4940  -55.674465      0.43225027    -55.242215      0.029520714    371.55929      960.06061      3375         
      4950  -55.663776      0.43763298    -55.226143      0.029520714    376.18623     -670.02842      3375         
      4960  -55.736338      0.48047018    -55.255868      0.029520714    413.00879     -1011.1434      3375         
      4970  -55.650696      0.36340686    -55.287289      0.029520714    312.38198     -80.304606      3375         
      4980  -55.694451      0.36879137    -55.325659      0.029520714    317.01047      337.10214      3375         
      4990  -55.797896      0.47534422    -55.322551      0.029520714    408.60255      1060.5654      3375         
      5000  -55.687154      0.33752898    -55.349625      0.029520714    290.13753      426.1861       3375         
      5010  -55.58736       0.21192465    -55.375436      0.029520714    182.16894     -1448.3713      3375         
      5020  -55.787805      0.3935796     -55.394226      0.029520714    338.31825     -696.21287      3375         
      5030  -55.769766      0.34477135    -55.424994      0.029520714    296.36302      935.60463      3375         
      5040  -55.57198       0.1436111     -55.428369      0.029520714    123.44709      549.30835      3375         
      5050  -55.686396      0.25680941    -55.429586      0.029520714    220.75156      156.43136      3375         
      5060  -55.751622      0.30014588    -55.451476      0.029520714    258.00328     -364.46562      3375         
      5070  -55.724588      0.25345037    -55.471138      0.029520714    217.86415     -980.37828      3375         
      5080  -55.682946      0.21967463    -55.463271      0.029520714    188.83077      273.76404      3375         
      5090  -55.743076      0.28332512    -55.459751      0.029520714    243.54428      1047.2537      3375         
      5100  -55.819548      0.35591206    -55.463636      0.029520714    305.9395      -193.33012      3375         
      5110  -55.751837      0.27987659    -55.471961      0.029520714    240.57995     -427.84109      3375         
      5120  -55.768004      0.28159025    -55.486414      0.029520714    242.053        84.17665       3375         
      5130  -55.802486      0.31282023    -55.489666      0.029520714    268.89807     -147.35845      3375         
      5140  -55.780512      0.32497463    -55.455537      0.029520714    279.3459       83.881628      3375         
      5150  -55.72667       0.25798788    -55.468682      0.029520714    221.76457     -106.94638      3375         
      5160  -55.727978      0.24988343    -55.478094      0.029520714    214.79804     -387.57273      3375         
      5170  -55.77058       0.29173048    -55.47885       0.029520714    250.76947      693.02772      3375         
      5180  -55.711528      0.2409092     -55.470619      0.029520714    207.08385      831.78182      3375         
      5190  -55.686817      0.23445551    -55.452361      0.029520714    201.53631     -794.80198      3375         
      5200  -55.666189      0.21359417    -55.452595      0.029520714    183.60405     -925.46992      3375         
      5210  -55.744773      0.28911232    -55.45566       0.029520714    248.51892      100.21198      3375         
      5220  -55.717906      0.26306821    -55.454838      0.029520714    226.13158      660.14334      3375         
      5230  -55.63873       0.21077205    -55.427957      0.029520714    181.17817      849.05421      3375         
      5240  -55.760726      0.33447352    -55.426252      0.029520714    287.51108     -197.35399      3375         
      5250  -55.80648       0.37938112    -55.427099      0.029520714    326.11334     -1223.1571      3375         
      5260  -55.750853      0.32783848    -55.423014      0.029520714    281.80765     -202.20812      3375         
      5270  -55.642682      0.23422508    -55.408457      0.029520714    201.33823      859.31857      3375         
      5280  -55.768507      0.38372595    -55.384781      0.029520714    329.84813      249.21385      3375         
      5290  -55.821643      0.43256467    -55.389078      0.029520714    371.82955     -167.9744       3375         
      5300  -55.709565      0.31697523    -55.39259       0.029520714    272.46968     -131.636        3375         
      5310  -55.677583      0.26545389    -55.412129      0.029520714    228.18229     -192.69478      3375         
      5320  -55.684078      0.30494393    -55.379134      0.029520714    262.12766      173.97765      3375         
      5330  -55.728386      0.3645766     -55.36381       0.029520714    313.38748      123.64135      3375         
      5340  -55.589948      0.21541305    -55.374535      0.029520714    185.16754     -698.80403      3375         
      5350  -55.669804      0.29088637    -55.378918      0.029520714    250.04387      27.73213       3375         
      5360  -55.713621      0.32270992    -55.390912      0.029520714    277.39918      1099.7928      3375         
      5370  -55.624313      0.26557888    -55.358734      0.029520714    228.28974      268.27154      3375         
      5380  -55.646067      0.31370467    -55.332362      0.029520714    269.65833     -596.41188      3375         
      5390  -55.662085      0.31307486    -55.34901       0.029520714    269.11695     -799.08826      3375         
      5400  -55.809468      0.4558857     -55.353582      0.029520714    391.87614     -444.65505      3375         
      5410  -55.691291      0.35289375    -55.338398      0.029520714    303.34498      913.96215      3375         
      5420  -55.647649      0.32748609    -55.320163      0.029520714    281.50474      1336.2173      3375         
      5430  -55.770352      0.4514201     -55.318932      0.029520714    388.03754     -691.06933      3375         
      5440  -55.749835      0.42894536    -55.32089       0.029520714    368.71841     -1365.5588      3375         
      5450  -55.689448      0.35720416    -55.332243      0.029520714    307.05018      137.57344      3375         
      5460  -55.665882      0.34481734    -55.321064      0.029520714    296.40256      504.4685       3375         
      5470  -55.699444      0.41236876    -55.287075      0.029520714    354.46929      511.89878      3375         
      5480  -55.607048      0.29498099    -55.312067      0.029520714    253.56358      302.70744      3375         
      5490  -55.575502      0.25736866    -55.318133      0.029520714    221.23229     -814.26067      3375         
      5500  -55.644242      0.32297982    -55.321262      0.029520714    277.63118     -485.08231      3375         
      5510  -55.654481      0.34930812    -55.305173      0.029520714    300.2628       923.05101      3375         
      5520  -55.667489      0.37709167    -55.290398      0.029520714    324.14534     -7.5560357      3375         
      5530  -55.597015      0.30946064    -55.287554      0.029520714    266.01019     -769.20835      3375         
      5540  -55.634883      0.3424509     -55.292432      0.029520714    294.36838      249.88145      3375         
      5550  -55.775116      0.46495947    -55.310156      0.029520714    399.67589      463.84884      3375         
      5560  -55.645345      0.37541862    -55.269926      0.029520714    322.7072       366.45634      3375         
      5570  -55.615264      0.36278436    -55.25248       0.029520714    311.84688      300.92006      3375         
      5580  -55.72195       0.45778163    -55.264168      0.029520714    393.50587     -1356.5365      3375         
      5590  -55.77538       0.51418342    -55.261196      0.029520714    441.98845     -1106.6758      3375         
      5600  -55.703596      0.44326156    -55.260335      0.029520714    381.02452      1409.113       3375         
      5610  -55.56836       0.3120307     -55.25633       0.029520714    268.2194       1192.6234      3375         
      5620  -55.601047      0.36655204    -55.234495      0.029520714    315.08555     -530.69178      3375         
      5630  -55.639019      0.39326774    -55.245751      0.029520714    338.05019     -687.34648      3375         
      5640  -55.624475      0.3641192     -55.260355      0.029520714    312.99431     -427.50676      3375         
      5650  -55.498407      0.25036229    -55.248045      0.029520714    215.20966      189.74066      3375         
      5660  -55.657235      0.43469134    -55.222544      0.029520714    373.65762      1096.6605      3375         
      5670  -55.652905      0.4191511     -55.233753      0.029520714    360.29934     -250.10196      3375         
      5680  -55.526918      0.29260308    -55.234315      0.029520714    251.51955     -1093.0148      3375         
      5690  -55.714837      0.47877059    -55.236066      0.029520714    411.54783      467.56531      3375         
      5700  -55.741661      0.50171659    -55.239945      0.029520714    431.27205      690.01917      3375         
      5710  -55.543353      0.34167314    -55.20168       0.029520714    293.69982     -328.30501      3375         
      5720  -55.643415      0.42377934    -55.219636      0.029520714    364.27774     -346.34073      3375         
      5730  -55.784102      0.55015856    -55.233943      0.029520714    472.91243     -233.70921      3375         
      5740  -55.644616      0.39004677    -55.25457       0.029520714    335.28146      158.6804       3375         
      5750  -55.635221      0.39941351    -55.235808      0.029520714    343.33305      905.41253      3375         
      5760  -55.706348      0.46137123    -55.244977      0.029520714    396.59146     -211.6886       3375         
      5770  -55.588061      0.32540131    -55.26266       0.029520714    279.71268     -1307.1744      3375         
      5780  -55.712664      0.4287986     -55.283865      0.029520714    368.59226      150.3968       3375         
      5790  -55.607639      0.29818168    -55.309458      0.029520714    256.31487      1101.3459      3375         
      5800  -55.484169      0.19368074    -55.290488      0.029520714    166.4866       213.54444      3375         
      5810  -55.750424      0.45201466    -55.298409      0.029520714    388.54862     -397.46576      3375         
      5820  -55.741698      0.4148272     -55.326871      0.029520714    356.58254     -701.98514      3375         
      5830  -55.6053        0.25079255    -55.354508      0.029520714    215.57951     -358.09909      3375         
      5840  -55.62686       0.27677765    -55.350082      0.029520714    237.91612      979.44534      3375         
      5850  -55.770891      0.4251356     -55.345755      0.029520714    365.44357      750.75         3375         
      5860  -55.714461      0.34883358    -55.365627      0.029520714    299.85489     -827.77128      3375         
      5870  -55.716104      0.32847459    -55.387629      0.029520714    282.35444     -682.97234      3375         
      5880  -55.794827      0.36897407    -55.425853      0.029520714    317.16752      312.95941      3375         
      5890  -55.691122      0.28055019    -55.410572      0.029520714    241.15897      219.35601      3375         
      5900  -55.787009      0.39266192    -55.394347      0.029520714    337.52942      312.09291      3375         
      5910  -55.740457      0.3039822     -55.436475      0.029520714    261.30096     -77.15453       3375         
      5920  -55.736413      0.28139755    -55.455015      0.029520714    241.88735     -515.69377      3375         
      5930  -55.744142      0.27206925    -55.472073      0.029520714    233.86881      333.28514      3375         
      5940  -55.671077      0.20610534    -55.464972      0.029520714    177.1667       646.44755      3375         
      5950  -55.719702      0.2635882     -55.456113      0.029520714    226.57856     -727.56083      3375         
      5960  -55.759137      0.28733578    -55.471802      0.029520714    246.99182     -821.35395      3375         
      5970  -55.724345      0.23547361    -55.488872      0.029520714    202.41146      362.56718      3375         
      5980  -55.661047      0.15876469    -55.502282      0.029520714    136.47301      754.95163      3375         
      5990  -55.780741      0.31500769    -55.465734      0.029520714    270.77839      857.30236      3375         
      6000  -55.832911      0.35705179    -55.475859      0.029520714    306.91921     -113.11438      3375         
      6010  -55.680818      0.19640905    -55.484409      0.029520714    168.83183     -1685.8703      3375         
      6020  -55.742852      0.25490998    -55.487942      0.029520714    219.11883     -696.60149      3375         
      6030  -55.796303      0.31064123    -55.485662      0.029520714    267.02502      1281.1434      3375         
      6040  -55.812616      0.3545653     -55.45805       0.029520714    304.78184      918.98374      3375         
      6050  -55.816883      0.36502807    -55.451855      0.029520714    313.77556     -175.50127      3375         
      6060  -55.709811      0.25370433    -55.456106      0.029520714    218.08246     -615.3579       3375         
      6070  -55.759099      0.28917865    -55.46992       0.029520714    248.57593     -652.76583      3375         
      6080  -55.708568      0.29253684    -55.416031      0.029520714    251.46261      439.06886      3375         
      6090  -55.661222      0.26375367    -55.397469      0.029520714    226.7208       795.1714       3375         
      6100  -55.63642       0.24339162    -55.393028      0.029520714    209.21772     -726.89827      3375         
      6110  -55.694889      0.31651146    -55.378378      0.029520714    272.07102     -503.91704      3375         
      6120  -55.700318      0.33894552    -55.361373      0.029520714    291.35519      962.96901      3375         
      6130  -55.575326      0.25448221    -55.320844      0.029520714    218.75112      372.04816      3375         
      6140  -55.687598      0.43009508    -55.257503      0.029520714    369.70671     -395.37291      3375         
      6150  -55.657602      0.4143528     -55.243249      0.029520714    356.17475     -656.3102       3375         
      6160  -55.548114      0.32317899    -55.224935      0.029520714    277.80238     -670.34341      3375         
      6170  -55.602561      0.38583632    -55.216724      0.029520714    331.66219      998.06108      3375         
      6180  -55.71681       0.544293      -55.172517      0.029520714    467.87044      1508.1965      3375         
      6190  -55.702836      0.56621268    -55.136623      0.029520714    486.71243     -910.79188      3375         
      6200  -55.558706      0.41942805    -55.139278      0.029520714    360.5374      -1613.2096      3375         
      6210  -55.647241      0.50322467    -55.144016      0.029520714    432.56839      236.47134      3375         
      6220  -55.559496      0.40545       -55.154046      0.029520714    348.52197      1028.9012      3375         
      6230  -55.585681      0.46274992    -55.122931      0.029520714    397.77657      713.53261      3375         
      6240  -55.555152      0.41870603    -55.136446      0.029520714    359.91676     -454.5448       3375         
      6250  -55.499017      0.34556656    -55.15345       0.029520714    297.04658     -1499.2931      3375         
      6260  -55.60497       0.44174969    -55.16322       0.029520714    379.72493      132.18058      3375         
      6270  -55.559363      0.40771509    -55.151648      0.029520714    350.46902      1555.1356      3375         
      6280  -55.502721      0.35768099    -55.14504       0.029520714    307.46006      201.14189      3375         
      6290  -55.571067      0.40363565    -55.167432      0.029520714    346.96236     -724.13047      3375         
      6300  -55.731959      0.54885372    -55.183105      0.029520714    471.79079     -341.48811      3375         
      6310  -55.588382      0.36091835    -55.227464      0.029520714    310.24288     -198.0376       3375         
      6320  -55.504885      0.31650625    -55.188379      0.029520714    272.06654      290.29549      3375         
      6330  -55.744645      0.54369057    -55.200955      0.029520714    467.35259      303.22139      3375         
      6340  -55.718946      0.47904708    -55.239899      0.029520714    411.7855      -501.415        3375         
      6350  -55.729994      0.4627983     -55.267196      0.029520714    397.81816      272.66291      3375         
      6360  -55.601368      0.29831079    -55.303057      0.029520714    256.42585      928.94628      3375         
[...]
     48420  -55.877596      0.30815296    -55.569443      0.029520714    264.88612     -295.8925       3375         
     48430  -55.774218      0.22891765    -55.545301      0.029520714    196.77601      212.97835      3375         
     48440  -55.839255      0.32503989    -55.514215      0.029520714    279.402        853.72269      3375         
     48450  -55.818484      0.31726823    -55.501216      0.029520714    272.72154      160.47516      3375         
     48460  -55.707487      0.21411447    -55.493372      0.029520714    184.0513      -538.97163      3375         
     48470  -55.789593      0.30238291    -55.48721       0.029520714    259.92622     -216.60322      3375         
     48480  -55.757184      0.29074056    -55.466443      0.029520714    249.91854     -232.57743      3375         
     48490  -55.687864      0.27404755    -55.413817      0.029520714    235.56935      159.88373      3375         
     48500  -55.638049      0.22492588    -55.413123      0.029520714    193.34471      336.57614      3375         
     48510  -55.735241      0.32808242    -55.407159      0.029520714    282.01734     -379.1114       3375         
     48520  -55.656499      0.25383823    -55.402661      0.029520714    218.19756      180.7714       3375         
     48530  -55.654154      0.29009407    -55.36406       0.029520714    249.36282      961.70962      3375         
     48540  -55.712526      0.37568808    -55.336838      0.029520714    322.93883     -245.57635      3375         
     48550  -55.603909      0.26805473    -55.335855      0.029520714    230.41796     -1219.7438      3375         
     48560  -55.693166      0.3603831     -55.332783      0.029520714    309.78278     -527.48787      3375         
     48570  -55.794323      0.45748799    -55.336835      0.029520714    393.25345      509.61388      3375         
     48580  -55.639217      0.34675856    -55.292458      0.029520714    298.07122      1475.3569      3375         
     48590  -55.720482      0.42897183    -55.29151       0.029520714    368.74117      540.02239      3375         
     48600  -55.743453      0.44211123    -55.301341      0.029520714    380.0357      -1635.5723      3375         
     48610  -55.609305      0.29706199    -55.312243      0.029520714    255.3524      -997.83303      3375         
     48620  -55.672383      0.36913873    -55.303244      0.029520714    317.30906      861.79204      3375         
     48630  -55.72335       0.44640807    -55.276942      0.029520714    383.72924      780.58984      3375         
     48640  -55.603385      0.31720389    -55.286181      0.029520714    272.66624     -248.34711      3375         
     48650  -55.553042      0.25709065    -55.295951      0.029520714    220.99332     -485.92872      3375         
     48660  -55.745107      0.43602375    -55.309083      0.029520714    374.80295     -28.839982      3375         
     48670  -55.513691      0.22055736    -55.293134      0.029520714    189.58956      994.0969       3375         
     48680  -55.60753       0.33043519    -55.277095      0.029520714    284.03976      360.12129      3375         
     48690  -55.672152      0.38683891    -55.285313      0.029520714    332.52401     -1510.0164      3375         
     48700  -55.602362      0.31317647    -55.289185      0.029520714    269.20429     -1129.3675      3375         
     48710  -55.743045      0.43996648    -55.303079      0.029520714    378.19209      1127.063       3375         
     48720  -55.650199      0.3620943     -55.288105      0.029520714    311.25371      1642.8851      3375         
     48730  -55.66913       0.41143521    -55.257695      0.029520714    353.66681      95.735895      3375         
     48740  -55.649851      0.37437334    -55.275477      0.029520714    321.80869     -1363.4664      3375         
     48750  -55.833143      0.54344305    -55.2897        0.029520714    467.13982     -1042.3641      3375         
     48760  -55.628495      0.32516789    -55.303327      0.029520714    279.51203      793.32811      3375         
     48770  -55.63619       0.35203543    -55.284155      0.029520714    302.60718      1011.0831      3375         
     48780  -55.719602      0.43230632    -55.287296      0.029520714    371.60747     -411.06472      3375         
     48790  -55.630673      0.32741466    -55.303259      0.029520714    281.44334     -999.85145      3375         
     48800  -55.626464      0.30564579    -55.320818      0.029520714    262.73097      251.12729      3375         
     48810  -55.732758      0.38836192    -55.344397      0.029520714    333.83317      1127.3912      3375         
     48820  -55.659486      0.34924545    -55.310241      0.029520714    300.20893      190.16349      3375         
     48830  -55.510391      0.18788396    -55.322507      0.029520714    161.50373     -979.84945      3375         
     48840  -55.647909      0.30405604    -55.343853      0.029520714    261.36443     -777.204        3375         
     48850  -55.798107      0.43280233    -55.365305      0.029520714    372.03384      411.30955      3375         
     48860  -55.67835       0.30590147    -55.372448      0.029520714    262.95075      912.60079      3375         
     48870  -55.642543      0.28018503    -55.362358      0.029520714    240.84508      366.5881       3375         
     48880  -55.797793      0.42065357    -55.377139      0.029520714    361.59085     -660.6374       3375         
     48890  -55.638412      0.23804354    -55.400368      0.029520714    204.62055     -517.64116      3375         
     48900  -55.812056      0.37933991    -55.432717      0.029520714    326.07792      210.21209      3375         
     48910  -55.819349      0.37542989    -55.443919      0.029520714    322.7169       86.83885       3375         
     48920  -55.717451      0.2861446     -55.431306      0.029520714    245.96789      46.256565      3375         
     48930  -55.726648      0.26061379    -55.466034      0.029520714    224.02178      118.01861      3375         
     48940  -55.807839      0.31702326    -55.490816      0.029520714    272.51096     -112.69726      3375         
     48950  -55.71428       0.20188994    -55.51239       0.029520714    173.54317      108.99833      3375         
     48960  -55.687411      0.18063032    -55.50678       0.029520714    155.26855      285.4475       3375         
     48970  -55.859565      0.34892722    -55.510638      0.029520714    299.93538     -318.12514      3375         
     48980  -55.67917       0.14993093    -55.529239      0.029520714    128.87957     -391.36252      3375         
     48990  -55.7667        0.21881756    -55.547883      0.029520714    188.09403     -64.158024      3375         
     49000  -55.785905      0.2250124     -55.560893      0.029520714    193.41908      186.35505      3375         
     49010  -55.743281      0.20831704    -55.534964      0.029520714    179.06786      754.32033      3375         
     49020  -55.761929      0.21910134    -55.542828      0.029520714    188.33797      345.38587      3375         
     49030  -55.855955      0.29920356    -55.556751      0.029520714    257.19328     -936.078        3375         
     49040  -55.796892      0.22949808    -55.567394      0.029520714    197.27494     -676.71326      3375         
     49050  -55.787252      0.22956925    -55.557683      0.029520714    197.33611      317.50152      3375         
     49060  -55.801303      0.26387417    -55.537429      0.029520714    226.82438      570.82474      3375         
     49070  -55.778624      0.23524461    -55.543379      0.029520714    202.21461      328.61913      3375         
     49080  -55.86268       0.31762395    -55.545056      0.029520714    273.02732     -332.5742       3375         
     49090  -55.788166      0.24331309    -55.544852      0.029520714    209.15022     -476.16313      3375         
     49100  -55.711222      0.19007352    -55.521148      0.029520714    163.38586      485.02426      3375         
     49110  -55.721968      0.22135601    -55.500612      0.029520714    190.27607      327.34107      3375         
     49120  -55.776761      0.28607958    -55.490681      0.029520714    245.912       -927.55129      3375         
     49130  -55.669837      0.19048793    -55.479349      0.029520714    163.74209     -425.53487      3375         
     49140  -55.785818      0.32302266    -55.462795      0.029520714    277.66801      776.79771      3375         
     49150  -55.649577      0.23714256    -55.412435      0.029520714    203.84608      1056.8769      3375         
     49160  -55.672572      0.28827328    -55.384299      0.029520714    247.79768      175.09653      3375         
     49170  -55.647752      0.28327232    -55.364479      0.029520714    243.49889     -1349.6204      3375         
     49180  -55.687938      0.34237126    -55.345567      0.029520714    294.29992     -1226.4837      3375         
     49190  -55.744998      0.42625963    -55.318739      0.029520714    366.40978      1050.9688      3375         
     49200  -55.688175      0.39604552    -55.29213       0.029520714    340.43795      1305.3317      3375         
     49210  -55.666931      0.40301604    -55.263915      0.029520714    346.42976     -372.65611      3375         
     49220  -55.593372      0.33280039    -55.260572      0.029520714    286.07287     -908.13245      3375         
     49230  -55.768349      0.50373849    -55.26461       0.029520714    433.01006     -266.89121      3375         
     49240  -55.624696      0.3660233     -55.258673      0.029520714    314.63105      935.50263      3375         
     49250  -55.687311      0.45706109    -55.23025       0.029520714    392.8865       704.26496      3375         
     49260  -55.55693       0.32373031    -55.2332        0.029520714    278.2763      -1140.2107      3375         
     49270  -55.567579      0.32633997    -55.241239      0.029520714    280.51954     -1245.3677      3375         
     49280  -55.664625      0.41380398    -55.250821      0.029520714    355.70299      938.84967      3375         
     49290  -55.599987      0.34990542    -55.250082      0.029520714    300.77624      1411.8511      3375         
     49300  -55.609964      0.39440033    -55.215564      0.029520714    339.02375      219.6138       3375         
     49310  -55.638658      0.40631951    -55.232339      0.029520714    349.26939     -1097.5044      3375         
     49320  -55.506365      0.26816809    -55.238197      0.029520714    230.51541     -1250.4571      3375         
     49330  -55.595683      0.32917538    -55.266508      0.029520714    282.95684      612.08931      3375         
     49340  -55.792001      0.54906301    -55.242938      0.029520714    471.9707       1037.261       3375         
     49350  -55.634342      0.41989369    -55.214448      0.029520714    360.93766     -113.12981      3375         
     49360  -55.594647      0.35184216    -55.242805      0.029520714    302.44105     -570.82095      3375         
     49370  -55.708162      0.45033121    -55.257831      0.029520714    387.10154      136.03807      3375         
     49380  -55.765947      0.47826415    -55.287683      0.029520714    411.1125       405.71314      3375         
     49390  -55.519188      0.25140057    -55.267787      0.029520714    216.10216      194.89972      3375         
     49400  -55.776575      0.50853373    -55.268041      0.029520714    437.13202     -717.87356      3375         
     49410  -55.640847      0.34165769    -55.29919       0.029520714    293.68654     -877.7065       3375         
     49420  -55.610303      0.28456837    -55.325734      0.029520714    244.61297      445.91832      3375         
     49430  -55.664349      0.31422267    -55.350127      0.029520714    270.1036       907.89467      3375         
     49440  -55.61638       0.29965163    -55.316729      0.029520714    257.57843      618.428        3375         
     49450  -55.640164      0.3043172     -55.335846      0.029520714    261.58892     -149.98463      3375         
     49460  -55.635137      0.27206445    -55.363072      0.029520714    233.86468     -943.84502      3375         
     49470  -55.77898       0.39124276    -55.387737      0.029520714    336.30953     -603.75587      3375         
     49480  -55.630696      0.23508583    -55.39561       0.029520714    202.07812      254.00025      3375         
     49490  -55.70071       0.31859862    -55.382112      0.029520714    273.86513      555.07579      3375         
     49500  -55.706465      0.30232636    -55.404139      0.029520714    259.87761      523.22878      3375         
     49510  -55.772663      0.3473976     -55.425265      0.029520714    298.62053     -125.09956      3375         
     49520  -55.79172       0.33716244    -55.454558      0.029520714    289.82246     -522.73837      3375         
     49530  -55.778657      0.32703028    -55.451627      0.029520714    281.11293      166.94116      3375         
     49540  -55.731155      0.28604551    -55.445109      0.029520714    245.88271      184.8881       3375         
     49550  -55.69334       0.22216717    -55.471173      0.029520714    190.97334     -671.35125      3375         
     49560  -55.807178      0.31286982    -55.494308      0.029520714    268.94069     -256.46155      3375         
     49570  -55.767224      0.25329986    -55.513924      0.029520714    217.73478      507.68285      3375         
     49580  -55.710458      0.21629555    -55.494162      0.029520714    185.92613      807.39252      3375         
     49590  -55.731332      0.22474835    -55.506583      0.029520714    193.1921       493.9574       3375         
     49600  -55.784492      0.26071876    -55.523773      0.029520714    224.11201     -1116.0665      3375         
     49610  -55.703858      0.16744709    -55.536411      0.029520714    143.93634     -1237.3562      3375         
     49620  -55.804307      0.26305182    -55.541256      0.029520714    226.11749      661.95941      3375         
     49630  -55.791145      0.2635728     -55.527573      0.029520714    226.56532      1078.6986      3375         
     49640  -55.763528      0.23085502    -55.532673      0.029520714    198.44135      37.772227      3375         
     49650  -55.73584       0.18917723    -55.546663      0.029520714    162.61541     -370.10535      3375         
     49660  -55.866074      0.30519539    -55.560878      0.029520714    262.34381     -456.71673      3375         
     49670  -55.794079      0.25048787    -55.543591      0.029520714    215.31761      339.24273      3375         
     49680  -55.823997      0.29004113    -55.533956      0.029520714    249.31731      568.43732      3375         
     49690  -55.814886      0.27265698    -55.542229      0.029520714    234.37402     -1035.5156      3375         
     49700  -55.713428      0.16927948    -55.544149      0.029520714    145.51145     -769.83557      3375         
     49710  -55.821381      0.27732567    -55.544056      0.029520714    238.38719      1112.4501      3375         
     49720  -55.758345      0.22820324    -55.530141      0.029520714    196.1619       1085.2705      3375         
     49730  -55.774377      0.27595366    -55.498423      0.029520714    237.20782     -89.687543      3375         
     49740  -55.716289      0.22226991    -55.494019      0.029520714    191.06165     -1056.2657      3375         
     49750  -55.755469      0.26447267    -55.490996      0.029520714    227.33885     -1207.2339      3375         
     49760  -55.659867      0.1867493     -55.473118      0.029520714    160.52838      810.99008      3375         
     49770  -55.758273      0.32265356    -55.435619      0.029520714    277.35073      1490.5754      3375         
     49780  -55.749467      0.34980922    -55.399658      0.029520714    300.69355     -572.24604      3375         
     49790  -55.650164      0.2672744     -55.382889      0.029520714    229.74719     -815.33415      3375         
     49800  -55.735254      0.36859614    -55.366658      0.029520714    316.84264      435.95177      3375         
     49810  -55.704792      0.35054068    -55.354251      0.029520714    301.3223       463.37742      3375         
     49820  -55.682891      0.38989863    -55.292992      0.029520714    335.15412      12.628084      3375         
     49830  -55.71111       0.43192815    -55.279182      0.029520714    371.2824      -923.51463      3375         
     49840  -55.722323      0.44972312    -55.2726        0.029520714    386.57883     -1050.038       3375         
     49850  -55.551925      0.27989479    -55.27203       0.029520714    240.59559      1245.2728      3375         
     49860  -55.658225      0.40334537    -55.25488       0.029520714    346.71284      1602.1984      3375         
     49870  -55.67802       0.46529346    -55.212727      0.029520714    399.96298     -404.50595      3375         
     49880  -55.567759      0.34981549    -55.217943      0.029520714    300.69894     -1221.491       3375         
     49890  -55.542756      0.3243744     -55.218381      0.029520714    278.82995     -620.05548      3375         
     49900  -55.720321      0.48616393    -55.234157      0.029520714    417.9031       134.32093      3375         
     49910  -55.531231      0.32438769    -55.206843      0.029520714    278.84138      848.30349      3375         
     49920  -55.490234      0.31590734    -55.174326      0.029520714    271.55173      359.02225      3375         
     49930  -55.676948      0.48728621    -55.189662      0.029520714    418.8678      -399.06681      3375         
     49940  -55.631252      0.43678464    -55.194467      0.029520714    375.457        105.73453      3375         
     49950  -55.646407      0.43632898    -55.210078      0.029520714    375.06532      116.75897      3375         
     49960  -55.527103      0.34585793    -55.181245      0.029520714    297.29705     -210.73384      3375         
     49970  -55.739144      0.56940985    -55.169734      0.029520714    489.4607      -309.44564      3375         
     49980  -55.519314      0.32562163    -55.193692      0.029520714    279.90206     -278.76059      3375         
     49990  -55.737443      0.52433964    -55.213104      0.029520714    450.71866      162.40471      3375         
     50000  -55.682459      0.44823899    -55.23422       0.029520714    385.30308      497.44573      3375         
Loop time of 81.9208 on 3 procs for 50000 steps with 10 atoms

Performance: 26.367 ns/day, 0.910 hours/ns, 610.345 timesteps/s, 6.103 katom-step/s
168.6% CPU use with 3 MPI tasks x no OpenMP threads

MPI task timing breakdown:
Section |  min time  |  avg time  |  max time  |%varavg| %total
---------------------------------------------------------------
Pair    | 26.762     | 44.073     | 78.267     | 364.2 | 53.80
Neigh   | 0.00062077 | 0.00077477 | 0.0010636  |   0.0 |  0.00
Comm    | 1.035      | 35.15      | 52.452     | 406.9 | 42.91
Output  | 0.5232     | 0.53123    | 0.53806    |   0.8 |  0.65
Modify  | 1.8833     | 1.9657     | 2.0647     |   5.3 |  2.40
Other   |            | 0.2        |            |       |  0.24

Nlocal:        3.33333 ave          10 max           0 min
Histogram: 2 0 0 0 0 0 0 0 0 1
Nghost:             66 ave          82 max          38 min
Histogram: 1 0 0 0 0 0 0 0 0 2
Neighs:              0 ave           0 max           0 min
Histogram: 3 0 0 0 0 0 0 0 0 0
FullNghs:           30 ave          90 max           0 min
Histogram: 2 0 0 0 0 0 0 0 0 1

Total # of neighbors = 90
Ave neighs/atom = 9
Neighbor list builds = 119
Dangerous builds = 0

write_data	restart.data
System init for write_data ...
Generated 0 of 1 mixed pair_coeff terms from geometric mixing rule
#
Total wall time: 0:01:23
