LAMMPS data file via write_data, version 2 Aug 2023, timestep = 50000, units = metal

10 atoms
2 atom types

0 15 xlo xhi
0 15 ylo yhi
0 15 zlo zhi

Masses

1 12
2 2

Atoms # atomic

10 2 5.665596093326245 8.194367456790832 8.296486083332228 0 0 0
4 1 6.451910677635722 8.145748634219684 7.577671953682593 0 0 0
7 2 9.14292575404675 6.391043162642892 6.746037913547965 0 0 0
8 2 6.374294354356887 6.294892623467783 6.1745712440475184 0 0 0
9 2 6.60227855082864 9.136237416562034 7.107420080019177 0 0 0
1 1 8.237782118114726 7.934832268053709 8.269311713465784 0 0 0
3 1 7.022882573831324 6.924152946759033 6.84102150423166 0 0 0
2 1 8.289544648522654 6.837032289166937 7.189516612773721 0 0 0
6 2 8.30699532766399 7.497729799988733 9.22061419572927 0 0 0
5 2 9.019189811877066 8.655132712856183 8.078739776933611 0 0 0

Velocities

10 0.5767528988201013 -2.359627218660244 -1.585167936647966
4 -2.1829034205652307 -0.2276679466753214 5.3568666269171255
7 -4.741790974614413 3.620843885412742 14.710642317141959
8 -5.190289642374007 -3.639817146347883 -7.261003015230595
9 -2.6405278164911787 -6.385170535862338 -2.7257078007160898
1 4.957467592090944 3.450303121644834 2.4088017977862983
3 -4.431496221346314 5.207806177301246 -2.498235249507781
2 5.694371017242144 -7.026301425716497 -2.1081187462883344
6 -7.166039236765076 -4.782774418682516 -4.856915385544369
5 -5.062739033101793 5.121705874817479 -17.23773475244564
