LAMMPS data file via write_data, version 2 Aug 2023, timestep = 50000, units = metal

10 atoms
2 atom types

0 15 xlo xhi
0 15 ylo yhi
0 15 zlo zhi

Masses

1 12
2 2

Atoms # atomic

10 2 6.273364406994316 7.370443686234911 8.99752364225198 0 0 0
4 1 6.578323414101502 7.790453163540068 8.04828973480425 0 0 0
7 2 9.054907746995038 6.4855451602104495 6.413452609571926 0 0 0
8 2 6.4098167800224175 5.986346884816925 6.547600245526601 0 0 0
9 2 5.802398170172519 8.538452170813505 7.730941758432132 0 0 0
1 1 8.283291376086847 8.292188359535821 7.792825385258235 0 0 0
3 1 6.928067686812104 6.7576975395267755 7.074428546348018 0 0 0
2 1 8.283390184215124 7.056073877612112 6.94127208155927 0 0 0
6 2 8.910616121386147 8.20233746981011 8.739467024700557 0 0 0
5 2 8.234460807926915 9.258396988357191 7.319120230240881 0 0 0

Velocities

10 15.924695053425289 -1.311296133385965 3.8639725724372784
4 -1.42545379149029 3.3995312968537164 -5.309117660316896
7 3.1999841619730685 -13.896902742085697 17.01349146546869
8 -7.761581957583637 -10.410923808661245 -24.4152675916698
9 19.028654589248323 -21.641208840603888 0.6780789179231757
1 -7.468593220616344 -3.331875252944306 5.108032028728658
3 -0.0324834383410854 0.4183131290760337 -0.6852060400325107
2 2.8773115830951257 1.3007472229446393 1.9366775480223226
6 15.702688948214103 15.426456416331467 -6.147214205058467
5 -9.799127591157555 21.113576732826022 2.70462358249065
