10
 Atoms. Timestep: 0
C 6.549 7.05602 7.76034
C 7.54202 7.95517 8.41913
C 8.43614 8.03974 7.40106
C 7.6227 7.14319 6.49781
H 5.61321 7.52522 7.6378
H 6.40172 6.04094 8.14316
H 7.35352 8.39859 9.45817
H 9.47331 8.3899 7.26734
H 7.22131 7.50062 5.60871
H 8.16176 6.19998 6.30381
10
 Atoms. Timestep: 20
C 6.58365 7.03108 7.70048
C 7.55927 7.99037 8.43497
C 8.43682 8.01845 7.43741
C 7.59889 7.12502 6.53316
H 5.56066 7.51508 7.53119
H 6.33384 6.09055 8.21382
H 7.56493 8.56447 9.38349
H 9.46045 8.30361 7.36601
H 7.13442 7.59378 5.58534
H 7.99795 6.16303 6.17306
10
 Atoms. Timestep: 40
C 6.55927 7.09791 7.73658
C 7.5461 8.02039 8.45938
C 8.45353 7.93486 7.43594
C 7.58752 7.08411 6.50159
H 5.56387 7.47211 7.33028
H 6.46161 6.0721 8.21756
H 7.67117 8.56473 9.33999
H 9.45909 8.41482 7.39216
H 7.161 7.76838 5.69018
H 7.92869 6.10424 6.1179
10
 Atoms. Timestep: 60
C 6.54169 7.13941 7.73455
C 7.56711 8.02533 8.39435
C 8.47872 7.86047 7.45986
C 7.57096 7.10911 6.52772
H 5.59222 7.45971 7.46317
H 6.49737 6.176 8.17071
H 7.54878 8.50831 9.41771
H 9.39487 8.42261 7.27495
H 7.25724 7.70273 5.73719
H 7.88263 6.14473 6.12644
10
 Atoms. Timestep: 80
C 6.52617 7.14618 7.72858
C 7.55501 8.00987 8.40623
C 8.53067 7.86848 7.44126
C 7.58523 7.12879 6.52871
H 5.46663 7.58943 7.67398
H 6.40305 6.14716 8.21928
H 7.42932 8.50406 9.41896
H 9.50978 8.26733 7.18696
H 7.25993 7.68874 5.57466
H 7.87282 6.10329 6.18649
10
 Atoms. Timestep: 100
C 6.53379 7.15838 7.72086
C 7.59025 7.98571 8.42801
C 8.4919 7.91631 7.43632
C 7.55258 7.1056 6.51037
H 5.54689 7.70867 7.65036
H 6.32474 6.15355 8.18847
H 7.5273 8.51266 9.31327
H 9.5734 8.08394 7.3149
H 7.24361 7.65976 5.58455
H 7.89698 6.1054 6.26409
10
 Atoms. Timestep: 120
C 6.52242 7.19673 7.74421
C 7.61469 7.97151 8.44479
C 8.45298 7.89753 7.39499
C 7.54598 7.09644 6.5061
H 5.67363 7.72784 7.44234
H 6.28748 6.23318 8.10953
H 7.71543 8.53472 9.41022
H 9.52782 8.08837 7.47615
H 7.19257 7.57335 5.64582
H 7.91066 6.08927 6.26446
10
 Atoms. Timestep: 140
C 6.51254 7.22603 7.72286
C 7.62597 7.98834 8.44164
C 8.48339 7.86188 7.42944
C 7.55077 7.08608 6.53127
H 5.59605 7.78804 7.34728
H 6.17256 6.24113 8.16721
H 7.81179 8.39257 9.48574
H 9.50552 8.22352 7.30959
H 7.13618 7.55039 5.56939
H 7.86588 6.05038 6.25857
10
 Atoms. Timestep: 160
C 6.49329 7.24075 7.69531
C 7.62601 7.97544 8.4435
C 8.5377 7.84652 7.43801
C 7.54097 7.06968 6.54125
H 5.5864 7.8734 7.4824
H 6.09606 6.35287 8.2396
H 7.70447 8.27614 9.44782
H 9.47288 8.31088 7.09721
H 7.27062 7.57725 5.57654
H 7.80577 6.03518 6.33701
10
 Atoms. Timestep: 180
C 6.47914 7.28316 7.7459
C 7.64128 7.92431 8.42909
C 8.50293 7.83778 7.38966
C 7.55905 7.07381 6.52827
H 5.68284 7.95995 7.53743
H 6.10632 6.38334 8.20189
H 7.59763 8.32847 9.44831
H 9.47411 8.2808 7.15657
H 7.38527 7.55267 5.59722
H 7.78338 6.00042 6.39005
10
 Atoms. Timestep: 200
C 6.52485 7.28973 7.71747
C 7.66594 7.90623 8.44897
C 8.47512 7.85448 7.39575
C 7.50529 7.06872 6.54349
H 5.71813 8.03657 7.48781
H 6.06702 6.35403 8.12462
H 7.7051 8.46657 9.43126
H 9.50851 8.16032 7.30238
H 7.31099 7.48101 5.52052
H 7.78702 6.00653 6.38828
10
 Atoms. Timestep: 220
C 6.48032 7.28766 7.72402
C 7.66806 7.95091 8.48336
C 8.50716 7.84595 7.42018
C 7.52753 7.05855 6.49458
H 5.68731 8.0168 7.42389
H 5.98952 6.35954 8.10079
H 7.8583 8.44842 9.4161
H 9.58706 8.07474 7.31462
H 7.116 7.46126 5.513
H 7.78743 6.00082 6.38772
10
 Atoms. Timestep: 240
C 6.48313 7.3034 7.69834
C 7.66337 7.98073 8.43073
C 8.5193 7.78847 7.41853
C 7.5114 7.07869 6.55538
H 5.68285 7.9396 7.42803
H 6.03606 6.4532 8.14543
H 7.83091 8.33089 9.43763
H 9.55872 8.05058 7.25898
H 7.17194 7.49481 5.64978
H 7.78027 6.04319 6.3513
10
 Atoms. Timestep: 260
C 6.4719 7.34905 7.75746
C 7.64576 7.98021 8.39476
C 8.53277 7.74885 7.4017
C 7.53042 7.06548 6.54449
H 5.59888 8.01295 7.42511
H 6.12214 6.38826 8.27621
H 7.69288 8.30346 9.47456
H 9.55865 8.02572 7.21117
H 7.32881 7.64941 5.59601
H 7.73753 5.97868 6.31552
10
 Atoms. Timestep: 280
C 6.50603 7.33383 7.6977
C 7.66389 7.98238 8.42494
C 8.53273 7.7429 7.4343
C 7.4691 7.05929 6.53544
H 5.62948 7.97381 7.55228
H 6.15812 6.47384 8.27208
H 7.68367 8.44811 9.40283
H 9.60409 7.95952 7.23803
H 7.40545 7.62929 5.58344
H 7.61261 6.02501 6.28607
10
 Atoms. Timestep: 300
C 6.47146 7.34436 7.74477
C 7.67445 7.99559 8.45023
C 8.53064 7.71186 7.43775
C 7.52452 7.0765 6.48071
H 5.62444 7.98977 7.54444
H 6.11125 6.4052 8.1664
H 7.78299 8.60612 9.32512
H 9.60927 7.87414 7.35068
H 7.2334 7.59074 5.56322
H 7.55624 5.98416 6.25836
10
 Atoms. Timestep: 320
C 6.5079 7.35386 7.71171
C 7.67501 7.99577 8.4064
C 8.54034 7.67956 7.43594
C 7.46294 7.09326 6.56579
H 5.643 8.00905 7.46677
H 6.10104 6.38009 8.07691
H 7.85423 8.63371 9.30622
H 9.59807 7.80189 7.39577
H 7.13876 7.61828 5.66346
H 7.67176 6.04226 6.26084
10
 Atoms. Timestep: 340
C 6.44285 7.3818 7.7597
C 7.68356 8.01546 8.38827
C 8.55517 7.66714 7.43137
C 7.49836 7.05394 6.53078
H 5.61045 8.05789 7.43728
H 6.09167 6.42596 8.19196
H 7.78124 8.51787 9.36266
H 9.66258 7.74949 7.30296
H 7.1926 7.74014 5.68637
H 7.70585 6.01858 6.24704
10
 Atoms. Timestep: 360
C 6.48686 7.37968 7.70165
C 7.67679 8.02126 8.41157
C 8.54906 7.66008 7.42456
C 7.47669 7.06037 6.55531
H 5.64252 8.01183 7.52829
H 6.06197 6.61336 8.33326
H 7.73383 8.43523 9.3908
H 9.63158 7.7484 7.2352
H 7.36838 7.6418 5.65049
H 7.54933 6.04105 6.19247
10
 Atoms. Timestep: 380
C 6.48933 7.42294 7.74153
C 7.68759 7.99217 8.41039
C 8.5376 7.65477 7.44265
C 7.49441 7.05719 6.50299
H 5.63952 8.12676 7.45898
H 6.06345 6.53603 8.34546
H 7.78583 8.45809 9.40385
H 9.56842 7.79635 7.28374
H 7.38527 7.60816 5.54372
H 7.42799 5.93216 6.26783
10
 Atoms. Timestep: 400
C 6.48061 7.43879 7.70657
C 7.70376 7.97017 8.42773
C 8.55041 7.63453 7.42195
C 7.43052 7.05517 6.54779
H 5.73694 8.17522 7.42936
H 6.06215 6.54403 8.09091
H 7.8946 8.51294 9.38342
H 9.6493 7.83827 7.35949
H 7.26565 7.55995 5.58085
H 7.52361 5.99756 6.4207
10
 Atoms. Timestep: 420
C 6.43373 7.47287 7.72514
C 7.74065 7.95486 8.42407
C 8.54874 7.64869 7.42565
C 7.48389 7.04682 6.54815
H 5.71019 8.24387 7.45239
H 5.86563 6.56567 8.01914
H 7.90683 8.47035 9.33862
H 9.6551 7.74243 7.29836
H 7.13139 7.49132 5.60311
H 7.61278 5.96691 6.43935
10
 Atoms. Timestep: 440
C 6.47921 7.4686 7.69728
C 7.70025 7.95005 8.43673
C 8.56385 7.65871 7.39492
C 7.4648 7.04657 6.57441
H 5.78114 8.31773 7.46206
H 5.77876 6.7056 8.19104
H 7.87681 8.40809 9.42356
H 9.60311 7.6614 7.21248
H 7.23673 7.45235 5.58683
H 7.59878 5.93126 6.39291
10
 Atoms. Timestep: 460
C 6.46866 7.49556 7.73452
C 7.72698 7.94792 8.41971
C 8.5257 7.64955 7.41438
C 7.4453 7.00882 6.52712
H 5.90064 8.35615 7.34565
H 5.91983 6.80159 8.31455
H 7.80345 8.30709 9.46418
H 9.60035 7.71206 7.21159
H 7.4071 7.50557 5.53728
H 7.49284 5.92639 6.44146
10
 Atoms. Timestep: 480
C 6.48551 7.53823 7.70437
C 7.73201 7.95261 8.43572
C 8.53496 7.58695 7.39904
C 7.43364 7.01798 6.55324
H 5.82814 8.32179 7.34111
H 5.89203 6.7854 8.27266
H 7.87887 8.29735 9.44819
H 9.64314 7.83634 7.27293
H 7.36933 7.46368 5.54325
H 7.3958 5.94078 6.45664
10
 Atoms. Timestep: 500
C 6.46192 7.56632 7.69154
C 7.75018 7.94354 8.41833
C 8.58396 7.57069 7.44344
C 7.44744 7.03767 6.56711
H 5.71722 8.35873 7.41946
H 5.77218 6.71629 8.09374
H 8.00179 8.38478 9.37434
H 9.60804 7.73427 7.24981
H 7.19764 7.42679 5.56644
H 7.36612 5.88983 6.46271
10
 Atoms. Timestep: 520
C 6.43033 7.54808 7.70116
C 7.7491 7.9521 8.42515
C 8.58292 7.54983 7.42371
C 7.4228 7.03626 6.55804
H 5.8361 8.44317 7.46453
H 5.85638 6.75914 8.05207
H 7.98611 8.5207 9.36043
H 9.65873 7.52299 7.26651
H 7.21642 7.49138 5.58915
H 7.45937 5.96497 6.508
10
 Atoms. Timestep: 540
C 6.48966 7.56649 7.73138
C 7.75998 7.97004 8.40892
C 8.51644 7.5323 7.40461
C 7.41525 7.03659 6.55129
H 5.8938 8.43367 7.42934
H 5.85574 6.78222 8.22475
H 7.85246 8.51532 9.33365
H 9.63647 7.34139 7.34154
H 7.34948 7.54598 5.57101
H 7.44807 5.96894 6.41148
10
 Atoms. Timestep: 560
C 6.50234 7.59704 7.72143
C 7.75086 8.00686 8.40124
C 8.5478 7.4862 7.43646
C 7.41607 7.02826 6.53789
H 5.78345 8.36589 7.39519
H 5.8691 6.87166 8.3859
H 7.89433 8.46087 9.37381
H 9.60911 7.33213 7.33095
H 7.37168 7.57754 5.56912
H 7.29397 5.90176 6.25195
10
 Atoms. Timestep: 580
C 6.44485 7.61137 7.67941
C 7.77624 8.03079 8.38015
C 8.5958 7.42004 7.47887
C 7.38982 7.01846 6.55821
H 5.70353 8.36499 7.37975
H 5.98705 6.90187 8.26432
H 8.03375 8.44873 9.37656
H 9.65549 7.39338 7.33574
H 7.30262 7.62579 5.66604
H 7.20136 6.00127 6.28672
10
 Atoms. Timestep: 600
C 6.45031 7.65386 7.71228
C 7.80053 8.01355 8.35277
C 8.54926 7.37451 7.47257
C 7.40268 7.03603 6.57405
H 5.73425 8.43765 7.3753
H 5.90878 6.74963 8.16986
H 8.05567 8.54973 9.25749
H 9.68311 7.36707 7.3841
H 7.30832 7.66638 5.66653
H 7.21716 5.98184 6.36571
10
 Atoms. Timestep: 620
C 6.51383 7.64638 7.72322
C 7.77217 8.00331 8.39172
C 8.53659 7.38131 7.43791
C 7.37289 7.05678 6.57296
H 5.87349 8.48789 7.47624
H 5.78592 6.84962 8.14777
H 8.01864 8.69726 9.19587
H 9.61118 7.15747 7.37618
H 7.39636 7.58209 5.59353
H 7.26558 5.91898 6.34455
10
 Atoms. Timestep: 640
C 6.46014 7.66004 7.71597
C 7.815 7.98285 8.41521
C 8.55466 7.41372 7.46461
C 7.38269 7.00077 6.51898
H 5.93079 8.6114 7.48756
H 5.84087 7.02012 8.25374
H 7.96454 8.69728 9.24166
H 9.52199 7.05493 7.32803
H 7.36669 7.53204 5.56747
H 7.22416 5.95996 6.32196
10
 Atoms. Timestep: 660
C 6.49226 7.71347 7.66502
C 7.79424 7.988 8.39271
C 8.55353 7.36301 7.43506
C 7.35992 7.00807 6.59071
H 5.90747 8.59562 7.34887
H 5.84555 7.07081 8.32588
H 8.02717 8.47445 9.34451
H 9.68301 7.14252 7.35181
H 7.2891 7.53429 5.62722
H 7.17205 5.967 6.38967
10
 Atoms. Timestep: 680
C 6.49463 7.79813 7.71424
C 7.82564 7.98046 8.33551
C 8.54639 7.3269 7.45937
C 7.36367 7.00994 6.59566
H 5.90034 8.55463 7.20412
H 5.75641 7.05074 8.21053
H 8.08852 8.23398 9.35273
H 9.64309 7.30186 7.36729
H 7.27029 7.53151 5.6071
H 7.08343 5.85467 6.51857
10
 Atoms. Timestep: 700
C 6.48428 7.76232 7.66559
C 7.84373 7.98496 8.40489
C 8.56564 7.328 7.43044
C 7.30906 7.00495 6.591
H 5.99191 8.68662 7.26473
H 5.76334 7.20137 8.15265
H 8.14324 8.28548 9.43768
H 9.60355 7.21998 7.31062
H 7.34272 7.35553 5.58735
H 7.06298 5.98959 6.58445
10
 Atoms. Timestep: 720
C 6.48767 7.80883 7.68127
C 7.84405 7.92132 8.44194
C 8.5273 7.3794 7.42644
C 7.3524 6.97195 6.55645
H 6.14407 8.82346 7.39937
H 5.65531 7.25973 8.23262
H 8.08996 8.45966 9.3436
H 9.57524 7.01872 7.22677
H 7.34719 7.27301 5.45646
H 7.04364 5.89645 6.59356
10
 Atoms. Timestep: 740
C 6.56395 7.82541 7.67422
C 7.80715 7.88172 8.40849
C 8.51594 7.34243 7.40436
C 7.30895 7.01098 6.61604
H 6.23448 8.80478 7.39237
H 5.64935 7.36452 8.16603
H 8.06153 8.51276 9.25755
H 9.58615 7.00908 7.27829
H 7.29194 7.30956 5.5637
H 7.12455 5.856 6.61238
10
 Atoms. Timestep: 760
C 6.48617 7.87574 7.70445
C 7.86324 7.91878 8.38651
C 8.5631 7.25063 7.43074
C 7.30018 6.96488 6.58395
H 6.20847 8.86804 7.19458
H 5.66017 7.36884 8.13522
H 8.12905 8.41327 9.35612
H 9.59814 7.1285 7.32833
H 7.19569 7.43839 5.61207
H 7.05629 5.9428 6.62885
10
 Atoms. Timestep: 780
C 6.51169 7.86078 7.63257
C 7.90299 7.97618 8.38347
C 8.54233 7.21731 7.48064
C 7.26989 6.99333 6.62939
H 6.13318 8.77892 7.18295
H 5.67258 7.4151 8.18524
H 8.24624 8.25675 9.35478
H 9.62461 7.09966 7.2986
H 7.22119 7.41638 5.58446
H 6.86479 5.9676 6.52652
10
 Atoms. Timestep: 800
C 6.55476 7.91766 7.68725
C 7.87032 7.98364 8.3797
C 8.48455 7.22004 7.45597
C 7.30865 6.96726 6.58721
H 6.11124 8.79959 7.23878
H 5.70444 7.39106 8.29879
H 8.26127 8.34626 9.34002
H 9.55649 6.85691 7.29652
H 7.42213 7.36816 5.56569
H 6.75882 5.92641 6.4884
10
 Atoms. Timestep: 820
C 6.55935 7.90324 7.67473
C 7.89475 7.94977 8.36423
C 8.48771 7.18514 7.4426
C 7.2459 7.00653 6.59425
H 6.16227 8.90197 7.34077
H 5.85718 7.41177 8.2665
H 8.14878 8.58024 9.26021
H 9.40635 6.67534 7.39838
H 7.48061 7.36682 5.60822
H 6.94252 6.01574 6.56005
10
 Atoms. Timestep: 840
C 6.53032 7.94938 7.68453
C 7.9103 7.97559 8.34906
C 8.51524 7.11451 7.47589
C 7.26666 7.01389 6.58493
H 6.16321 8.94838 7.3943
H 5.76005 7.36453 8.24384
H 8.19108 8.60787 9.16433
H 9.45654 6.56445 7.45709
H 7.27911 7.47195 5.51483
H 6.93895 5.9426 6.54814
10
 Atoms. Timestep: 860
C 6.57478 7.94711 7.65759
C 7.91675 7.99731 8.31649
C 8.48354 7.09219 7.51716
C 7.27382 7.01791 6.61059
H 6.12256 8.87558 7.3491
H 5.70162 7.41936 8.185
H 8.35597 8.50526 9.1633
H 9.50505 6.60554 7.4809
H 7.17373 7.47968 5.66407
H 6.77173 6.00752 6.43564
10
 Atoms. Timestep: 880
C 6.56476 7.96808 7.67237
C 7.94559 8.0012 8.33245
C 8.45607 7.08221 7.49631
C 7.23032 6.96254 6.60497
H 6.15193 8.9062 7.18066
H 5.82614 7.4575 8.22422
H 8.41885 8.4821 9.25187
H 9.45683 6.6909 7.48271
H 7.38258 7.54681 5.66934
H 6.70721 6.05233 6.44362
10
 Atoms. Timestep: 900
C 6.57267 7.98691 7.66506
C 7.95139 7.97904 8.34723
C 8.45464 7.07897 7.48357
C 7.20274 6.98859 6.61838
H 6.22248 8.90525 7.19177
H 5.81483 7.54004 8.34131
H 8.30613 8.51172 9.20557
H 9.42682 6.6275 7.3919
H 7.54556 7.43088 5.61481
H 6.71958 6.00354 6.45822
10
 Atoms. Timestep: 920
C 6.59294 8.00804 7.67014
C 7.91687 7.96213 8.33664
C 8.46726 7.06158 7.48832
C 7.25589 7.00712 6.61479
H 6.26078 8.97305 7.30927
H 5.69839 7.66586 8.31608
H 8.25664 8.53015 9.1687
H 9.42633 6.51137 7.31017
H 7.33302 7.31643 5.60038
H 6.75114 5.98991 6.52504
10
 Atoms. Timestep: 940
C 6.57905 8.02587 7.64962
C 7.93426 7.93739 8.34198
C 8.47895 7.05881 7.47971
C 7.22728 6.98582 6.61632
H 6.36311 9.07731 7.29118
H 5.7379 7.64162 8.15658
H 8.32282 8.51235 9.24824
H 9.43411 6.53577 7.41293
H 7.17185 7.38381 5.57397
H 6.77698 6.02173 6.68038
10
 Atoms. Timestep: 960
C 6.61933 8.0522 7.63163
C 7.95518 7.9276 8.36277
C 8.47146 7.08432 7.46258
C 7.16708 6.97844 6.6358
H 6.42109 9.0326 7.17496
H 5.7179 7.60987 8.09933
H 8.37907 8.35588 9.27113
H 9.43255 6.61317 7.50599
H 7.204 7.36516 5.56088
H 6.69109 5.988 6.72009
10
 Atoms. Timestep: 980
C 6.63232 8.07916 7.65312
C 7.94348 7.93567 8.37279
C 8.45117 7.08205 7.45009
C 7.20215 6.96404 6.62749
H 6.40912 8.98913 7.12501
H 5.66806 7.78814 8.21138
H 8.35876 8.26599 9.28193
H 9.45471 6.59805 7.39864
H 7.27081 7.20277 5.5967
H 6.58788 6.01041 6.65441
10
 Atoms. Timestep: 1000
C 6.59582 8.0565 7.63311
C 7.95 7.91795 8.35034
C 8.45673 7.05033 7.47434
C 7.19603 6.98214 6.64712
H 6.47066 9.0566 7.12803
H 5.77715 7.95373 8.27577
H 8.29652 8.33644 9.34572
H 9.40513 6.57369 7.22633
H 7.3374 7.19254 5.57178
H 6.64565 6.06547 6.71193
10
 Atoms. Timestep: 1020
C 6.62576 8.10556 7.63969
C 7.94266 7.90855 8.35398
C 8.45437 7.01206 7.46463
C 7.17695 6.96425 6.64655
H 6.55519 9.09638 7.13925
H 5.69554 7.88484 8.26697
H 8.27675 8.43056 9.2761
H 9.41321 6.56007 7.2579
H 7.30018 7.31842 5.54943
H 6.68465 5.98724 6.77018
10
 Atoms. Timestep: 1040
C 6.67878 8.10866 7.63253
C 7.95821 7.90594 8.35848
C 8.4286 7.0226 7.46835
C 7.15507 6.98358 6.66066
H 6.55276 9.06519 7.18971
H 5.68244 7.81041 8.06453
H 8.38013 8.41841 9.15626
H 9.41176 6.52717 7.43794
H 7.14411 7.28508 5.66006
H 6.62882 5.98909 6.66037
10
 Atoms. Timestep: 1060
C 6.62981 8.10827 7.63948
C 7.98963 7.93195 8.36315
C 8.43477 7.00968 7.48686
C 7.16171 6.95562 6.62369
H 6.52276 9.13826 7.1625
H 5.71866 7.82732 8.08745
H 8.55154 8.42561 9.20755
H 9.3599 6.41696 7.51905
H 7.14668 7.31243 5.56612
H 6.52902 6.06631 6.66719
10
 Atoms. Timestep: 1080
C 6.63551 8.09747 7.61184
C 8.00316 7.95083 8.31707
C 8.41792 6.96848 7.5087
C 7.14878 7.0039 6.64551
H 6.45163 9.08462 7.15148
H 5.75912 7.87627 8.29442
H 8.4943 8.40252 9.22749
H 9.28044 6.32072 7.45344
H 7.36207 7.3011 5.54686
H 6.54424 6.11073 6.71663
10
 Atoms. Timestep: 1100
C 6.67447 8.17584 7.65464
C 8.00145 7.96439 8.2805
C 8.36939 6.91826 7.50263
C 7.1811 6.99294 6.64976
H 6.37532 9.06156 7.13684
H 5.83993 7.85052 8.38441
H 8.32532 8.41029 9.15844
H 9.25101 6.2692 7.4004
H 7.42398 7.26731 5.66105
H 6.54996 6.05255 6.62273
10
 Atoms. Timestep: 1120
C 6.68649 8.1506 7.61832
C 8.03394 7.96986 8.28855
C 8.37404 6.8981 7.53175
C 7.1219 6.98756 6.66682
H 6.38648 9.14526 7.18
H 5.92726 7.85857 8.24677
H 8.41072 8.49269 9.1892
H 9.24261 6.24411 7.47584
H 7.33213 7.34891 5.64437
H 6.52656 6.09374 6.52022
10
 Atoms. Timestep: 1140
C 6.67566 8.14772 7.61082
C 8.05094 7.96281 8.30602
C 8.3813 6.90788 7.56226
C 7.11033 6.95831 6.62183
H 6.53383 9.18989 7.19977
H 5.74733 7.83132 8.21996
H 8.66641 8.52433 9.10165
H 9.21911 6.21759 7.61834
H 7.24375 7.47901 5.57632
H 6.40422 6.11755 6.56738
10
 Atoms. Timestep: 1160
C 6.70168 8.15221 7.63896
C 8.02404 7.94935 8.29864
C 8.3454 6.88778 7.5253
C 7.1353 7.0214 6.647
H 6.59355 9.08147 7.17294
H 5.72096 7.93574 8.16407
H 8.66929 8.47134 8.92981
H 9.19719 6.19217 7.67091
H 7.27603 7.31547 5.6573
H 6.42844 6.15938 6.63459
10
 Atoms. Timestep: 1180
C 6.68946 8.23128 7.65086
C 8.03312 7.90854 8.28823
C 8.34022 6.85895 7.51899
C 7.12613 6.99621 6.67513
H 6.57496 9.19861 7.06056
H 5.84714 8.03045 8.22633
H 8.54577 8.5124 9.03023
H 9.16165 6.1563 7.47696
H 7.39228 7.2343 5.61589
H 6.46865 6.11803 6.67983
10
 Atoms. Timestep: 1200
C 6.73273 8.2299 7.55122
C 8.05798 7.93363 8.30426
C 8.35453 6.83995 7.53952
C 7.06316 6.97651 6.70048
H 6.59869 9.26037 7.09625
H 5.88569 8.12462 8.32856
H 8.46233 8.44168 9.26584
H 9.15909 6.14692 7.313
H 7.35704 7.25129 5.6153
H 6.41074 6.11512 6.69717
10
 Atoms. Timestep: 1220
C 6.79305 8.25222 7.58831
C 8.05996 7.93996 8.29554
C 8.31091 6.87359 7.54028
C 7.08415 6.94622 6.672
H 6.73448 9.15795 7.05626
H 5.83254 8.18137 8.20866
H 8.46858 8.24732 9.21559
H 9.19342 6.19269 7.432
H 7.14212 7.21424 5.65342
H 6.26442 6.1545 6.74627
10
 Atoms. Timestep: 1240
C 6.76372 8.24935 7.60476
C 8.05869 7.89924 8.31216
C 8.32654 6.85046 7.48851
C 7.05028 7.0017 6.68533
H 6.90366 9.15091 6.94185
H 5.85434 8.22495 8.07931
H 8.59127 8.25443 9.17571
H 9.17979 6.20608 7.66091
H 7.08487 7.14759 5.58667
H 6.31469 6.23153 6.89996
10
 Atoms. Timestep: 1260
C 6.76387 8.3005 7.56958
C 8.04601 7.83335 8.32516
C 8.36754 6.84381 7.503
C 7.02259 6.99736 6.69923
H 6.92787 9.27351 6.96962
H 5.74178 8.36991 8.11897
H 8.65421 8.3663 9.12841
H 9.11983 6.06574 7.55131
H 7.12767 7.08428 5.54925
H 6.35259 6.21018 6.98962
10
 Atoms. Timestep: 1280
C 6.8268 8.32831 7.54319
C 8.02734 7.87437 8.32384
C 8.309 6.81486 7.50983
C 7.06099 6.96799 6.73009
H 6.89069 9.26303 7.0794
H 5.86949 8.46415 8.12807
H 8.56946 8.36651 9.13246
H 9.06916 6.01 7.30851
H 7.10096 7.05472 5.67699
H 6.27943 6.14843 6.92185
10
 Atoms. Timestep: 1300
C 6.84854 8.31674 7.55937
C 8.09088 7.90366 8.29737
C 8.24294 6.78914 7.54105
C 7.01305 6.96602 6.72967
H 7.00303 9.25606 6.93118
H 5.99599 8.35286 8.14192
H 8.49802 8.31583 9.17551
H 9.07289 6.12505 7.33813
H 7.14731 7.09468 5.64733
H 6.23425 6.22219 6.89023
10
 Atoms. Timestep: 1320
C 6.84808 8.32157 7.56085
C 8.13786 7.89966 8.2697
C 8.25954 6.764 7.56791
C 6.94942 6.99281 6.70443
H 7.005 9.16194 6.82972
H 5.88718 8.36755 8.20115
H 8.62778 8.28161 9.21556
H 9.09653 6.09648 7.56261
H 7.19654 7.1479 5.58551
H 6.14154 6.29633 6.87713
10
 Atoms. Timestep: 1340
C 6.85101 8.33158 7.55556
C 8.10453 7.88663 8.26419
C 8.26647 6.75333 7.55285
C 7.00523 6.99785 6.72317
H 6.87148 9.18844 6.95184
H 5.91531 8.55332 8.13011
H 8.79865 8.28268 9.03253
H 8.99502 5.90016 7.72174
H 7.10012 7.15218 5.67201
H 6.07998 6.32687 6.80615
10
 Atoms. Timestep: 1360
C 6.85119 8.37721 7.55231
C 8.11385 7.87011 8.25987
C 8.22758 6.73394 7.56343
C 7.01778 6.97983 6.73723
H 6.9493 9.36656 6.95873
H 5.98943 8.4598 8.17609
H 8.78747 8.38771 8.88244
H 8.78451 5.79849 7.66865
H 7.15122 7.1677 5.66291
H 6.19972 6.27325 6.86318
10
 Atoms. Timestep: 1380
C 6.8975 8.36507 7.52373
C 8.15665 7.90787 8.23562
C 8.16231 6.68685 7.5988
C 6.95249 7.03068 6.73881
H 7.04723 9.31978 6.99458
H 6.01897 8.29755 8.22922
H 8.77872 8.48847 8.96101
H 8.74822 5.80326 7.59149
H 7.27136 7.12177 5.63493
H 6.24578 6.24631 6.89603
10
 Atoms. Timestep: 1400
C 6.94103 8.3807 7.55773
C 8.2005 7.90772 8.19133
C 8.12313 6.7087 7.64621
C 6.96872 6.98644 6.70888
H 6.92971 9.28224 6.98716
H 6.01524 8.41774 8.1882
H 8.77319 8.36255 9.01955
H 8.81279 5.83355 7.62502
H 7.19874 7.09207 5.66087
H 5.99405 6.33045 6.78328
10
 Atoms. Timestep: 1420
C 6.9056 8.36675 7.514
C 8.20135 7.90464 8.20889
C 8.15083 6.67008 7.6198
C 6.95 7.00577 6.75632
H 6.88197 9.31558 6.87834
H 6.11104 8.53222 8.20081
H 8.8649 8.22715 8.98885
H 8.85281 5.81214 7.78808
H 7.17289 7.11288 5.70439
H 5.99379 6.53664 6.73448
10
 Atoms. Timestep: 1440
C 6.91235 8.44165 7.51199
C 8.16836 7.84679 8.20884
C 8.18458 6.66376 7.61726
C 6.92236 7.00817 6.76302
H 7.03868 9.26277 6.77814
H 6.07444 8.52756 8.27094
H 8.8992 8.27819 8.89887
H 8.72709 5.78236 7.79732
H 7.26113 7.17374 5.65069
H 5.99754 6.43311 6.8864
10
 Atoms. Timestep: 1460
C 6.98146 8.4019 7.52175
C 8.16144 7.87207 8.21846
C 8.1119 6.65634 7.59548
C 6.93831 7.0421 6.77053
H 7.15129 9.24745 6.90818
H 6.06271 8.63883 8.0973
H 8.87081 8.41809 8.87462
H 8.66623 5.69797 7.69159
H 7.09976 7.09728 5.72211
H 6.11453 6.28597 6.9579
10
 Atoms. Timestep: 1480
C 6.98461 8.42348 7.51922
C 8.20997 7.86373 8.23892
C 8.09322 6.68072 7.62881
C 6.9199 6.97588 6.75074
H 7.28003 9.36394 6.91122
H 6.07607 8.7004 8.03121
H 8.84032 8.38891 8.93584
H 8.67109 5.72113 7.56159
H 6.97048 7.03347 5.65736
H 6.03984 6.34922 6.96559
10
 Atoms. Timestep: 1500
C 6.9852 8.42342 7.44771
C 8.19183 7.85775 8.24659
C 8.13955 6.65014 7.61928
C 6.8633 7.03028 6.79463
H 7.28111 9.24637 6.80834
H 6.13045 8.68541 8.10508
H 8.87681 8.20196 9.0335
H 8.7792 5.80151 7.6266
H 7.03692 6.98426 5.64345
H 5.94022 6.53095 7.02278
10
 Atoms. Timestep: 1520
C 7.03726 8.48001 7.47677
C 8.15408 7.81823 8.21871
C 8.1308 6.65001 7.58677
C 6.88415 7.0078 6.80054
H 7.18924 9.18402 6.66414
H 6.15462 8.78209 8.11678
H 8.8186 8.11159 9.03971
H 8.82524 5.8203 7.72415
H 7.03775 6.98319 5.74357
H 5.86081 6.60251 7.10387
10
 Atoms. Timestep: 1540
C 7.03408 8.44565 7.48026
C 8.18408 7.8209 8.2248
C 8.09701 6.64279 7.58518
C 6.89489 7.04023 6.8098
H 7.23203 9.22009 6.66988
H 6.24478 8.89756 8.03472
H 8.7666 8.21215 9.04678
H 8.71838 5.69535 7.69027
H 6.91685 6.97593 5.72919
H 5.98502 6.52146 7.1179
10
 Atoms. Timestep: 1560
C 7.036 8.47118 7.45557
C 8.21878 7.84804 8.24253
C 8.10387 6.62865 7.62135
C 6.85198 7.01234 6.78749
H 7.45242 9.22199 6.78882
H 6.1918 8.88487 8.06799
H 8.82505 8.29719 9.04637
H 8.52332 5.64164 7.58923
H 6.84116 6.98989 5.60015
H 6.02643 6.42312 7.15487
10
 Atoms. Timestep: 1580
C 7.08133 8.45044 7.44646
C 8.19573 7.82678 8.22455
C 8.06815 6.65111 7.61328
C 6.85247 7.03509 6.80837
H 7.47157 9.24677 6.81298
H 6.18879 8.80347 8.0103
H 8.9038 8.24096 8.9424
H 8.54624 5.69573 7.66394
H 6.9019 6.98241 5.76599
H 5.9256 6.47005 7.13742
10
 Atoms. Timestep: 1600
C 7.09322 8.48882 7.46602
C 8.19932 7.80815 8.21343
C 8.03792 6.60706 7.60771
C 6.848 7.02765 6.8278
H 7.31708 9.28877 6.69048
H 6.22144 8.82679 7.99705
H 8.97464 8.16335 8.88177
H 8.69999 5.71432 7.80172
H 7.00673 6.9738 5.74283
H 5.83331 6.66286 7.08538
10
 Atoms. Timestep: 1620
C 7.05457 8.49035 7.43629
C 8.24625 7.79594 8.1826
C 8.05456 6.57953 7.69486
C 6.82507 7.06984 6.81317
H 7.27711 9.22371 6.6782
H 6.2671 8.89577 8.11586
H 9.00188 8.15243 8.89318
H 8.62528 5.64295 7.75365
H 7.02663 6.98561 5.66469
H 5.8433 6.70555 7.02194
10
 Atoms. Timestep: 1640
C 7.09133 8.47949 7.456
C 8.27087 7.845 8.15887
C 7.9897 6.57732 7.69172
C 6.84625 7.03797 6.80079
H 7.35019 9.24053 6.71219
H 6.32406 8.8879 8.1684
H 8.99484 8.23579 8.89524
H 8.43676 5.60593 7.73212
H 6.98651 7.04733 5.75087
H 5.84275 6.56379 6.98589
10
 Atoms. Timestep: 1660
C 7.13543 8.46948 7.46538
C 8.2706 7.8134 8.14989
C 7.95718 6.62487 7.65966
C 6.83211 7.03994 6.83051
H 7.39181 9.31056 6.76739
H 6.34406 8.81092 8.0894
H 8.97869 8.27942 8.8008
H 8.31731 5.59885 7.83823
H 7.03479 7.05196 5.749
H 5.88546 6.48214 7.01156
10
 Atoms. Timestep: 1680
C 7.11614 8.50271 7.43201
C 8.2781 7.80875 8.16375
C 7.99683 6.5692 7.67202
C 6.79423 7.07842 6.81951
H 7.38249 9.32802 6.77538
H 6.26533 8.79564 8.10221
H 9.1029 8.20238 8.78876
H 8.34656 5.5498 7.96269
H 7.05041 6.98801 5.68897
H 5.86451 6.60169 7.04723
10
 Atoms. Timestep: 1700
C 7.1095 8.51361 7.43258
C 8.27548 7.79078 8.14531
C 7.98904 6.56287 7.71094
C 6.84088 7.06367 6.80396
H 7.33026 9.31917 6.72697
H 6.28405 8.85861 8.10716
H 9.11456 8.0891 8.78779
H 8.4046 5.6075 7.92752
H 6.92469 6.97953 5.74729
H 5.7765 6.78056 7.0355
10
 Atoms. Timestep: 1720
C 7.15117 8.48439 7.43907
C 8.27968 7.80646 8.14288
C 7.92689 6.57533 7.69787
C 6.83558 7.06338 6.83233
H 7.34939 9.26672 6.6679
H 6.39806 8.87151 8.08138
H 9.03949 8.13008 8.83177
H 8.44784 5.61916 7.81717
H 6.94972 6.98547 5.74813
H 5.77959 6.76967 7.06979
10
 Atoms. Timestep: 1740
C 7.18145 8.50523 7.41818
C 8.28831 7.79063 8.16398
C 7.94669 6.58404 7.68864
C 6.75138 7.06911 6.84551
H 7.4841 9.21719 6.64067
H 6.40109 8.92685 8.11483
H 8.99822 8.23041 8.87523
H 8.38058 5.55439 7.72736
H 7.03822 6.97377 5.72526
H 5.81486 6.62331 7.10778
10
 Atoms. Timestep: 1760
C 7.16317 8.50795 7.4082
C 8.26822 7.78037 8.17564
C 7.97145 6.56934 7.66247
C 6.78074 7.08028 6.86535
H 7.57339 9.20003 6.68138
H 6.42028 9.07147 8.01373
H 9.03908 8.19052 8.86058
H 8.31436 5.56116 7.76747
H 6.86842 6.97332 5.80662
H 5.807 6.5959 7.08922
10
 Atoms. Timestep: 1780
C 7.16934 8.52856 7.43488
C 8.24338 7.77885 8.18064
C 7.96594 6.56258 7.64872
C 6.81135 7.05479 6.85206
H 7.59385 9.18696 6.61818
H 6.40499 9.11235 7.92116
H 9.06041 8.05294 8.81755
H 8.37206 5.5779 7.85354
H 6.77264 6.99246 5.75469
H 5.77999 6.74868 7.22604
10
 Atoms. Timestep: 1800
C 7.1978 8.4988 7.38685
C 8.25417 7.75194 8.19191
C 7.96 6.57109 7.66799
C 6.75831 7.11697 6.85132
H 7.57176 9.13665 6.59218
H 6.38781 9.02246 7.94675
H 9.0426 8.04269 8.88103
H 8.45778 5.58547 7.8431
H 6.78689 6.94747 5.71352
H 5.85548 6.85249 7.32399
10
 Atoms. Timestep: 1820
C 7.24938 8.53695 7.37246
C 8.27873 7.76678 8.18969
C 7.93301 6.55498 7.66685
C 6.74609 7.07254 6.85674
H 7.59285 9.20743 6.57982
H 6.45029 9.00116 8.00526
H 8.97749 8.13369 8.99518
H 8.40167 5.57444 7.72998
H 6.72562 6.90404 5.79131
H 5.73282 6.81171 7.273
10
 Atoms. Timestep: 1840
C 7.23262 8.50163 7.37633
C 8.28143 7.76556 8.15085
C 7.92495 6.56369 7.67746
C 6.77575 7.09281 6.89904
H 7.62158 9.24177 6.63575
H 6.58488 9.10625 7.97208
H 8.90438 8.12079 8.93772
H 8.25013 5.54754 7.6972
H 6.74063 6.88972 5.8418
H 5.73392 6.77178 7.18243
10
 Atoms. Timestep: 1860
C 7.22091 8.5522 7.40588
C 8.2909 7.76065 8.14201
C 7.91201 6.53635 7.68006
C 6.73757 7.08793 6.8698
H 7.66991 9.1257 6.56648
H 6.50909 9.19015 8.01753
H 9.04435 8.0788 8.85274
H 8.22111 5.47096 7.86084
H 6.91153 6.93841 5.71471
H 5.79963 6.79321 7.29025
10
 Atoms. Timestep: 1880
C 7.22791 8.51743 7.38805
C 8.2918 7.71962 8.15734
C 7.88289 6.5483 7.69924
C 6.76179 7.14712 6.86364
H 7.59906 9.09291 6.56576
H 6.48108 9.09778 7.94124
H 9.23037 8.02229 8.71297
H 8.24412 5.56985 8.00504
H 6.8162 7.01963 5.81044
H 5.76686 6.82276 7.2039
10
 Atoms. Timestep: 1900
C 7.2932 8.5424 7.38828
C 8.3176 7.7506 8.15338
C 7.84856 6.54119 7.74169
C 6.73984 7.08008 6.87164
H 7.59969 9.2695 6.57283
H 6.49043 9.01995 7.94472
H 9.25387 7.99067 8.64467
H 8.20432 5.54774 7.95554
H 6.75665 7.03397 5.77593
H 5.62381 6.87251 7.06541
10
 Atoms. Timestep: 1920
C 7.26994 8.50272 7.33646
C 8.35262 7.74292 8.09636
C 7.82049 6.53637 7.78831
C 6.71124 7.14543 6.88884
H 7.65765 9.29695 6.68791
H 6.58453 9.00025 8.06758
H 9.18113 8.0593 8.68726
H 8.10068 5.4685 7.87797
H 6.95665 6.92541 5.76879
H 5.71765 6.90491 7.13976
10
 Atoms. Timestep: 1940
C 7.29601 8.57191 7.38684
C 8.36072 7.70412 8.0371
C 7.7779 6.53695 7.76928
C 6.73905 7.11248 6.87302
H 7.63939 9.24973 6.59883
H 6.63564 9.06024 8.13197
H 9.13377 8.12078 8.74257
H 8.00489 5.48231 7.97417
H 6.98059 6.85259 5.86255
H 5.68768 6.90164 7.18147
10
 Atoms. Timestep: 1960
C 7.31196 8.53266 7.38322
C 8.35529 7.72154 8.06116
C 7.79206 6.51616 7.75085
C 6.75154 7.16024 6.8986
H 7.54606 9.2009 6.54277
H 6.68094 9.1188 8.0335
H 9.21775 7.96295 8.71235
H 7.94647 5.52671 8.13723
H 6.80931 6.91724 5.83065
H 5.65837 6.90977 7.06952
10
 Atoms. Timestep: 1980
C 7.3253 8.53789 7.32879
C 8.37713 7.69191 8.12996
C 7.83025 6.53411 7.77248
C 6.6677 7.1384 6.88752
H 7.64429 9.20531 6.48403
H 6.6279 9.1302 8.00613
H 9.27945 7.86258 8.63648
H 7.94999 5.51913 8.17703
H 6.77269 7.10224 5.6973
H 5.64738 6.98667 7.17554
10
 Atoms. Timestep: 2000
C 7.34725 8.52842 7.31316
C 8.36183 7.6995 8.11483
C 7.75521 6.52536 7.76666
C 6.68422 7.16508 6.89431
H 7.80894 9.13443 6.55291
H 6.65878 9.09744 7.91905
H 9.32538 7.93929 8.65886
H 8.03233 5.48668 8.05117
H 6.7377 7.03246 5.86864
H 5.66978 7.01955 7.30466
10
 Atoms. Timestep: 2020
C 7.41038 8.55791 7.34952
C 8.32096 7.67 8.05925
C 7.73798 6.52519 7.78063
C 6.7078 7.16377 6.94072
H 7.89122 9.11796 6.51554
H 6.72062 9.22462 7.86434
H 9.16343 8.02225 8.68332
H 8.00013 5.49293 7.84266
H 6.66882 6.81291 5.88837
H 5.61708 7.04808 7.314
10
 Atoms. Timestep: 2040
C 7.38514 8.55616 7.29193
C 8.36033 7.68484 8.11372
C 7.75593 6.48203 7.76493
C 6.65467 7.19772 6.96056
H 7.87242 9.06763 6.43636
H 6.85983 9.38303 7.8968
H 9.15095 7.95077 8.769
H 7.97446 5.40049 7.82226
H 6.65892 6.75889 5.8598
H 5.67097 7.13466 7.31791
10
 Atoms. Timestep: 2060
C 7.40619 8.547 7.26477
C 8.35289 7.64574 8.15259
C 7.7729 6.53703 7.73556
C 6.63325 7.17619 6.94834
H 7.81447 8.94459 6.34285
H 6.93502 9.32389 7.82401
H 9.21613 7.83239 8.81955
H 7.96458 5.48441 7.97193
H 6.58712 7.01548 5.9147
H 5.61533 7.18345 7.4084
10
 Atoms. Timestep: 2080
C 7.47169 8.51672 7.29802
C 8.33458 7.67124 8.11792
C 7.73039 6.52521 7.72589
C 6.651 7.20446 6.95628
H 7.87194 8.86401 6.3253
H 6.8488 9.3088 7.74029
H 9.23898 7.77744 8.78893
H 7.9494 5.52719 8.08889
H 6.4608 7.10171 5.8731
H 5.62817 7.13509 7.48386
10
 Atoms. Timestep: 2100
C 7.46364 8.54687 7.27468
C 8.36328 7.62315 8.08945
C 7.71875 6.49096 7.77503
C 6.63179 7.24504 6.97362
H 8.06267 8.94137 6.4125
H 6.81815 9.39735 7.72335
H 9.18284 7.89205 8.70157
H 7.84931 5.43193 8.03653
H 6.41567 6.9591 5.85103
H 5.73058 7.16204 7.48731
10
 Atoms. Timestep: 2120
C 7.4672 8.576 7.23618
C 8.38193 7.61494 8.08227
C 7.68266 6.47868 7.79368