ITEM: TIMESTEP
0
ITEM: NUMBER OF ATOMS
10
ITEM: BOX BOUNDS pp pp pp
0.0000000000000000e+00 1.5000000000000000e+01
0.0000000000000000e+00 1.5000000000000000e+01
0.0000000000000000e+00 1.5000000000000000e+01
ITEM: ATOMS id type x y z
10 2 8.16176 6.19998 6.30381
4 1 7.6227 7.14319 6.49781
7 2 7.35352 8.39859 9.45817
8 2 9.47331 8.3899 7.26734
9 2 7.22131 7.50062 5.60871
1 1 6.549 7.05602 7.76034
3 1 8.43614 8.03974 7.40106
2 1 7.54202 7.95517 8.41913
6 2 6.40172 6.04094 8.14316
5 2 5.61321 7.52522 7.6378
ITEM: TIMESTEP
100
ITEM: NUMBER OF ATOMS
10
ITEM: BOX BOUNDS pp pp pp
0.0000000000000000e+00 1.5000000000000000e+01
0.0000000000000000e+00 1.5000000000000000e+01
0.0000000000000000e+00 1.5000000000000000e+01
ITEM: ATOMS id type x y z
10 2 7.89698 6.1054 6.26409
4 1 7.55258 7.1056 6.51037
7 2 7.5273 8.51266 9.31327
8 2 9.5734 8.08394 7.3149
9 2 7.24361 7.65976 5.58455
1 1 6.53379 7.15838 7.72086
3 1 8.4919 7.91631 7.43632
2 1 7.59025 7.98571 8.42801
6 2 6.32474 6.15355 8.18847
5 2 5.54689 7.70867 7.65036
ITEM: TIMESTEP
200
ITEM: NUMBER OF ATOMS
10
ITEM: BOX BOUNDS pp pp pp
0.0000000000000000e+00 1.5000000000000000e+01
0.0000000000000000e+00 1.5000000000000000e+01
0.0000000000000000e+00 1.5000000000000000e+01
ITEM: ATOMS id type x y z
10 2 7.78702 6.00653 6.38828
4 1 7.50529 7.06872 6.54349
7 2 7.7051 8.46657 9.43126
8 2 9.50851 8.16032 7.30238
9 2 7.31099 7.48101 5.52052
1 1 6.52485 7.28973 7.71747
3 1 8.47512 7.85448 7.39575
2 1 7.66594 7.90623 8.44897
6 2 6.06702 6.35403 8.12462
5 2 5.71813 8.03657 7.48781
ITEM: TIMESTEP
300
ITEM: NUMBER OF ATOMS
10
ITEM: BOX BOUNDS pp pp pp
0.0000000000000000e+00 1.5000000000000000e+01
0.0000000000000000e+00 1.5000000000000000e+01
0.0000000000000000e+00 1.5000000000000000e+01
ITEM: ATOMS id type x y z
10 2 7.55624 5.98416 6.25836
4 1 7.52452 7.0765 6.48071
7 2 7.78299 8.60612 9.32512
8 2 9.60927 7.87414 7.35068
9 2 7.2334 7.59074 5.56322
1 1 6.47146 7.34436 7.74477
3 1 8.53064 7.71186 7.43775
2 1 7.67445 7.99559 8.45023
6 2 6.11125 6.4052 8.1664
5 2 5.62444 7.98977 7.54444
ITEM: TIMESTEP
400
ITEM: NUMBER OF ATOMS
10
ITEM: BOX BOUNDS pp pp pp
0.0000000000000000e+00 1.5000000000000000e+01
0.0000000000000000e+00 1.5000000000000000e+01
0.0000000000000000e+00 1.5000000000000000e+01
ITEM: ATOMS id type x y z
10 2 7.52361 5.99756 6.4207
4 1 7.43052 7.05517 6.54779
7 2 7.8946 8.51294 9.38342
8 2 9.6493 7.83827 7.35949
9 2 7.26565 7.55995 5.58085
1 1 6.48061 7.43879 7.70657
3 1 8.55041 7.63453 7.42195
2 1 7.70376 7.97017 8.42773
6 2 6.06215 6.54403 8.09091
5 2 5.73694 8.17522 7.42936
ITEM: TIMESTEP
500
ITEM: NUMBER OF ATOMS
10
ITEM: BOX BOUNDS pp pp pp
0.0000000000000000e+00 1.5000000000000000e+01
0.0000000000000000e+00 1.5000000000000000e+01
0.0000000000000000e+00 1.5000000000000000e+01
ITEM: ATOMS id type x y z
10 2 7.36612 5.88983 6.46271
4 1 7.44744 7.03767 6.56711
7 2 8.00179 8.38478 9.37434
8 2 9.60804 7.73427 7.24981
9 2 7.19764 7.42679 5.56644
1 1 6.46192 7.56632 7.69154
3 1 8.58396 7.57069 7.44344
2 1 7.75018 7.94354 8.41833
6 2 5.77218 6.71629 8.09374
5 2 5.71722 8.35873 7.41946
ITEM: TIMESTEP
600
ITEM: NUMBER OF ATOMS
10
ITEM: BOX BOUNDS pp pp pp
0.0000000000000000e+00 1.5000000000000000e+01
0.0000000000000000e+00 1.5000000000000000e+01
0.0000000000000000e+00 1.5000000000000000e+01
ITEM: ATOMS id type x y z
10 2 7.21716 5.98184 6.36571
4 1 7.40268 7.03603 6.57405
7 2 8.05567 8.54973 9.25749
8 2 9.68311 7.36707 7.3841
9 2 7.30832 7.66638 5.66653
1 1 6.45031 7.65386 7.71228
3 1 8.54926 7.37451 7.47257
2 1 7.80053 8.01355 8.35277
6 2 5.90878 6.74963 8.16986
5 2 5.73425 8.43765 7.3753
ITEM: TIMESTEP
700
ITEM: NUMBER OF ATOMS
10
ITEM: BOX BOUNDS pp pp pp
0.0000000000000000e+00 1.5000000000000000e+01
0.0000000000000000e+00 1.5000000000000000e+01
0.0000000000000000e+00 1.5000000000000000e+01
ITEM: ATOMS id type x y z
10 2 7.06298 5.98959 6.58445
4 1 7.30906 7.00495 6.591
7 2 8.14324 8.28548 9.43768
8 2 9.60355 7.21998 7.31062
9 2 7.34272 7.35553 5.58735
1 1 6.48428 7.76232 7.66559
3 1 8.56564 7.328 7.43044
2 1 7.84373 7.98496 8.40489
6 2 5.76334 7.20137 8.15265
5 2 5.99191 8.68662 7.26473
ITEM: TIMESTEP
800
ITEM: NUMBER OF ATOMS
10
ITEM: BOX BOUNDS pp pp pp
0.0000000000000000e+00 1.5000000000000000e+01
0.0000000000000000e+00 1.5000000000000000e+01
0.0000000000000000e+00 1.5000000000000000e+01
ITEM: ATOMS id type x y z
10 2 6.75882 5.92641 6.4884
4 1 7.30865 6.96726 6.58721
7 2 8.26127 8.34626 9.34002
8 2 9.55649 6.85691 7.29652
9 2 7.42213 7.36816 5.56569
1 1 6.55476 7.91766 7.68725
3 1 8.48455 7.22004 7.45597
2 1 7.87032 7.98364 8.3797
6 2 5.70444 7.39106 8.29879
5 2 6.11124 8.79959 7.23878
ITEM: TIMESTEP
900
ITEM: NUMBER OF ATOMS
10
ITEM: BOX BOUNDS pp pp pp
0.0000000000000000e+00 1.5000000000000000e+01
0.0000000000000000e+00 1.5000000000000000e+01
0.0000000000000000e+00 1.5000000000000000e+01
ITEM: ATOMS id type x y z
10 2 6.71958 6.00354 6.45822
4 1 7.20274 6.98859 6.61838
7 2 8.30613 8.51172 9.20557
8 2 9.42682 6.6275 7.3919
9 2 7.54556 7.43088 5.61481
1 1 6.57267 7.98691 7.66506
3 1 8.45464 7.07897 7.48357
2 1 7.95139 7.97904 8.34723
6 2 5.81483 7.54004 8.34131
5 2 6.22248 8.90525 7.19177
ITEM: TIMESTEP
1000
ITEM: NUMBER OF ATOMS
10
ITEM: BOX BOUNDS pp pp pp
0.0000000000000000e+00 1.5000000000000000e+01
0.0000000000000000e+00 1.5000000000000000e+01
0.0000000000000000e+00 1.5000000000000000e+01
ITEM: ATOMS id type x y z
10 2 6.64565 6.06547 6.71193
4 1 7.19603 6.98214 6.64712
7 2 8.29652 8.33644 9.34572
8 2 9.40513 6.57369 7.22633
9 2 7.3374 7.19254 5.57178
1 1 6.59582 8.0565 7.63311
3 1 8.45673 7.05033 7.47434
2 1 7.95 7.91795 8.35034
6 2 5.77715 7.95373 8.27577
5 2 6.47066 9.0566 7.12803
ITEM: TIMESTEP
1100
ITEM: NUMBER OF ATOMS
10
ITEM: BOX BOUNDS pp pp pp
0.0000000000000000e+00 1.5000000000000000e+01
0.0000000000000000e+00 1.5000000000000000e+01
0.0000000000000000e+00 1.5000000000000000e+01
ITEM: ATOMS id type x y z
10 2 6.54996 6.05255 6.62273
4 1 7.1811 6.99294 6.64976
7 2 8.32532 8.41029 9.15844
8 2 9.25101 6.2692 7.4004
9 2 7.42398 7.26731 5.66105
1 1 6.67447 8.17584 7.65464
3 1 8.36939 6.91826 7.50263
2 1 8.00145 7.96439 8.2805
6 2 5.83993 7.85052 8.38441
5 2 6.37532 9.06156 7.13684
ITEM: TIMESTEP
1200
ITEM: NUMBER OF ATOMS
10
ITEM: BOX BOUNDS pp pp pp
0.0000000000000000e+00 1.5000000000000000e+01
0.0000000000000000e+00 1.5000000000000000e+01
0.0000000000000000e+00 1.5000000000000000e+01
ITEM: ATOMS id type x y z
10 2 6.41074 6.11512 6.69717
4 1 7.06316 6.97651 6.70048
7 2 8.46233 8.44168 9.26584
8 2 9.15909 6.14692 7.313
9 2 7.35704 7.25129 5.6153
1 1 6.73273 8.2299 7.55122
3 1 8.35453 6.83995 7.53952
2 1 8.05798 7.93363 8.30426
6 2 5.88569 8.12462 8.32856
5 2 6.59869 9.26037 7.09625
ITEM: TIMESTEP
1300
ITEM: NUMBER OF ATOMS
10
ITEM: BOX BOUNDS pp pp pp
0.0000000000000000e+00 1.5000000000000000e+01
0.0000000000000000e+00 1.5000000000000000e+01
0.0000000000000000e+00 1.5000000000000000e+01
ITEM: ATOMS id type x y z
10 2 6.23425 6.22219 6.89023
4 1 7.01305 6.96602 6.72967
7 2 8.49802 8.31583 9.17551
8 2 9.07289 6.12505 7.33813
9 2 7.14731 7.09468 5.64733
1 1 6.84854 8.31674 7.55937
3 1 8.24294 6.78914 7.54105
2 1 8.09088 7.90366 8.29737
6 2 5.99599 8.35286 8.14192
5 2 7.00303 9.25606 6.93118
ITEM: TIMESTEP
1400
ITEM: NUMBER OF ATOMS
10
ITEM: BOX BOUNDS pp pp pp
0.0000000000000000e+00 1.5000000000000000e+01
0.0000000000000000e+00 1.5000000000000000e+01
0.0000000000000000e+00 1.5000000000000000e+01
ITEM: ATOMS id type x y z
10 2 5.99405 6.33045 6.78328
4 1 6.96872 6.98644 6.70888
7 2 8.77319 8.36255 9.01955
8 2 8.81279 5.83355 7.62502
9 2 7.19874 7.09207 5.66087
1 1 6.94103 8.3807 7.55773
3 1 8.12313 6.7087 7.64621
2 1 8.2005 7.90772 8.19133
6 2 6.01524 8.41774 8.1882
5 2 6.92971 9.28224 6.98716
ITEM: TIMESTEP
1500
ITEM: NUMBER OF ATOMS
10
ITEM: BOX BOUNDS pp pp pp
0.0000000000000000e+00 1.5000000000000000e+01
0.0000000000000000e+00 1.5000000000000000e+01
0.0000000000000000e+00 1.5000000000000000e+01
ITEM: ATOMS id type x y z
10 2 5.94022 6.53095 7.02278
4 1 6.8633 7.03028 6.79463
7 2 8.87681 8.20196 9.0335
8 2 8.7792 5.80151 7.6266
9 2 7.03692 6.98426 5.64345
1 1 6.9852 8.42342 7.44771
3 1 8.13955 6.65014 7.61928
2 1 8.19183 7.85775 8.24659
6 2 6.13045 8.68541 8.10508
5 2 7.28111 9.24637 6.80834
ITEM: TIMESTEP
1600
ITEM: NUMBER OF ATOMS
10
ITEM: BOX BOUNDS pp pp pp
0.0000000000000000e+00 1.5000000000000000e+01
0.0000000000000000e+00 1.5000000000000000e+01
0.0000000000000000e+00 1.5000000000000000e+01
ITEM: ATOMS id type x y z
10 2 5.83331 6.66286 7.08538
4 1 6.848 7.02765 6.8278
7 2 8.97464 8.16335 8.88177
8 2 8.69999 5.71432 7.80172
9 2 7.00673 6.9738 5.74283
1 1 7.09322 8.48882 7.46602
3 1 8.03792 6.60706 7.60771
2 1 8.19932 7.80815 8.21343
6 2 6.22144 8.82679 7.99705
5 2 7.31708 9.28877 6.69048
ITEM: TIMESTEP
1700
ITEM: NUMBER OF ATOMS
10
ITEM: BOX BOUNDS pp pp pp
0.0000000000000000e+00 1.5000000000000000e+01
0.0000000000000000e+00 1.5000000000000000e+01
0.0000000000000000e+00 1.5000000000000000e+01
ITEM: ATOMS id type x y z
10 2 5.7765 6.78056 7.0355
4 1 6.84088 7.06367 6.80396
7 2 9.11456 8.0891 8.78779
8 2 8.4046 5.6075 7.92752
9 2 6.92469 6.97953 5.74729
1 1 7.1095 8.51361 7.43258
3 1 7.98904 6.56287 7.71094
2 1 8.27548 7.79078 8.14531
6 2 6.28405 8.85861 8.10716
5 2 7.33026 9.31917 6.72697
ITEM: TIMESTEP
1800
ITEM: NUMBER OF ATOMS
10
ITEM: BOX BOUNDS pp pp pp
0.0000000000000000e+00 1.5000000000000000e+01
0.0000000000000000e+00 1.5000000000000000e+01
0.0000000000000000e+00 1.5000000000000000e+01
ITEM: ATOMS id type x y z
10 2 5.85548 6.85249 7.32399
4 1 6.75831 7.11697 6.85132
7 2 9.0426 8.04269 8.88103
8 2 8.45778 5.58547 7.8431
9 2 6.78689 6.94747 5.71352
1 1 7.1978 8.4988 7.38685
3 1 7.96 6.57109 7.66799
2 1 8.25417 7.75194 8.19191
6 2 6.38781 9.02246 7.94675
5 2 7.57176 9.13665 6.59218
ITEM: TIMESTEP
1900
ITEM: NUMBER OF ATOMS
10
ITEM: BOX BOUNDS pp pp pp
0.0000000000000000e+00 1.5000000000000000e+01
0.0000000000000000e+00 1.5000000000000000e+01
0.0000000000000000e+00 1.5000000000000000e+01
ITEM: ATOMS id type x y z
10 2 5.62381 6.87251 7.06541
4 1 6.73984 7.08008 6.87164
7 2 9.25387 7.99067 8.64467
8 2 8.20432 5.54774 7.95554
9 2 6.75665 7.03397 5.77593
1 1 7.2932 8.5424 7.38828
3 1 7.84856 6.54119 7.74169
2 1 8.3176 7.7506 8.15338
6 2 6.49043 9.01995 7.94472
5 2 7.59969 9.2695 6.57283
ITEM: TIMESTEP
2000
ITEM: NUMBER OF ATOMS
10
ITEM: BOX BOUNDS pp pp pp
0.0000000000000000e+00 1.5000000000000000e+01
0.0000000000000000e+00 1.5000000000000000e+01
0.0000000000000000e+00 1.5000000000000000e+01
ITEM: ATOMS id type x y z
10 2 5.66978 7.01955 7.30466
4 1 6.68422 7.16508 6.89431
7 2 9.32538 7.93929 8.65886
8 2 8.03233 5.48668 8.05117
9 2 6.7377 7.03246 5.86864
1 1 7.34725 8.52842 7.31316
3 1 7.75521 6.52536 7.76666
2 1 8.36183 7.6995 8.11483
6 2 6.65878 9.09744 7.91905
5 2 7.80894 9.13443 6.55291
ITEM: TIMESTEP
2100
ITEM: NUMBER OF ATOMS
10
ITEM: BOX BOUNDS pp pp pp
0.0000000000000000e+00 1.5000000000000000e+01
0.0000000000000000e+00 1.5000000000000000e+01
0.0000000000000000e+00 1.5000000000000000e+01
ITEM: ATOMS id type x y z
10 2 5.73058 7.16204 7.48731
4 1 6.63179 7.24504 6.97362
7 2 9.18284 7.89205 8.70157
8 2 7.84931 5.43193 8.03653
9 2 6.41567 6.9591 5.85103
1 1 7.46364 8.54687 7.27468
3 1 7.71875 6.49096 7.77503
2 1 8.36328 7.62315 8.08945
6 2 6.81815 9.39735 7.72335
5 2 8.06267 8.94137 6.4125
ITEM: TIMESTEP
2200
ITEM: NUMBER OF ATOMS
10
ITEM: BOX BOUNDS pp pp pp
0.0000000000000000e+00 1.5000000000000000e+01
0.0000000000000000e+00 1.5000000000000000e+01
0.0000000000000000e+00 1.5000000000000000e+01
ITEM: ATOMS id type x y z
10 2 5.51612 7.31325 7.37334
4 1 6.61413 7.24435 7.01656
7 2 9.40527 7.70971 8.41246
8 2 7.47532 5.53495 8.27708
9 2 6.59981 7.01214 5.94554
1 1 7.55152 8.54744 7.25193
3 1 7.59918 6.51234 7.87337
2 1 8.39582 7.55866 7.9669
6 2 7.06106 9.40009 7.80529
5 2 8.10247 9.07312 6.4227
ITEM: TIMESTEP
2300
ITEM: NUMBER OF ATOMS
10
ITEM: BOX BOUNDS pp pp pp
0.0000000000000000e+00 1.5000000000000000e+01
0.0000000000000000e+00 1.5000000000000000e+01
0.0000000000000000e+00 1.5000000000000000e+01
ITEM: ATOMS id type x y z
10 2 5.59084 7.44044 7.58477
4 1 6.57024 7.36702 7.05382
7 2 9.3772 7.6968 8.43399
8 2 7.45438 5.48726 8.30047
9 2 6.42502 6.97071 6.07599
1 1 7.61998 8.52521 7.18094
3 1 7.5291 6.49578 7.83452
2 1 8.413 7.52242 8.01553
6 2 7.29609 9.37774 7.69842
5 2 8.18647 8.78447 6.28654
ITEM: TIMESTEP
2400
ITEM: NUMBER OF ATOMS
10
ITEM: BOX BOUNDS pp pp pp
0.0000000000000000e+00 1.5000000000000000e+01
0.0000000000000000e+00 1.5000000000000000e+01
0.0000000000000000e+00 1.5000000000000000e+01
ITEM: ATOMS id type x y z
10 2 5.62763 7.58323 7.59178
4 1 6.52282 7.3637 7.07915
7 2 9.46139 7.59135 8.43976
8 2 7.29416 5.53584 8.3041
9 2 6.19239 7.04116 6.01148
1 1 7.68023 8.50073 7.16139
3 1 7.49966 6.52316 7.87812
2 1 8.44295 7.49234 7.99006
6 2 7.47954 9.4934 7.66134
5 2 8.19491 8.69547 6.22819
ITEM: TIMESTEP
2500
ITEM: NUMBER OF ATOMS
10
ITEM: BOX BOUNDS pp pp pp
0.0000000000000000e+00 1.5000000000000000e+01
0.0000000000000000e+00 1.5000000000000000e+01
0.0000000000000000e+00 1.5000000000000000e+01
ITEM: ATOMS id type x y z
10 2 5.53557 7.68053 7.58598
4 1 6.52986 7.42419 7.07155
7 2 9.50041 7.41198 8.17213
8 2 7.18041 5.68537 8.46622
9 2 6.36368 7.03781 6.08202
1 1 7.72834 8.43752 7.17168
3 1 7.4166 6.59647 7.95222
2 1 8.4638 7.42195 7.91856
6 2 7.55721 9.42532 7.7517
5 2 8.15513 8.69824 6.14693
ITEM: TIMESTEP
2600
ITEM: NUMBER OF ATOMS
10
ITEM: BOX BOUNDS pp pp pp
0.0000000000000000e+00 1.5000000000000000e+01
0.0000000000000000e+00 1.5000000000000000e+01
0.0000000000000000e+00 1.5000000000000000e+01
ITEM: ATOMS id type x y z
10 2 5.63911 7.8905 7.75226
4 1 6.49412 7.54118 7.15154
7 2 9.48703 7.36179 8.30422
8 2 7.08803 5.56676 8.39967
9 2 6.06692 7.25778 6.21801
1 1 7.79432 8.42361 7.06008
3 1 7.40161 6.54422 7.93291
2 1 8.45151 7.37305 7.98615
6 2 7.78487 9.41193 7.43526
5 2 8.20867 8.43887 5.9955
ITEM: TIMESTEP
2700
ITEM: NUMBER OF ATOMS
10
ITEM: BOX BOUNDS pp pp pp
0.0000000000000000e+00 1.5000000000000000e+01
0.0000000000000000e+00 1.5000000000000000e+01
0.0000000000000000e+00 1.5000000000000000e+01
ITEM: ATOMS id type x y z
10 2 5.78267 8.11664 7.75299
4 1 6.48416 7.57962 7.2182
7 2 9.49916 7.09065 8.20563
8 2 6.99849 5.76856 8.61788
9 2 6.14959 7.26579 6.13577
1 1 7.88927 8.39013 7.01957
3 1 7.27986 6.60064 8.01436
2 1 8.44562 7.28367 7.86087
6 2 7.8949 9.39506 7.47573
5 2 8.20567 8.4589 6.02301
ITEM: TIMESTEP
2800
ITEM: NUMBER OF ATOMS
10
ITEM: BOX BOUNDS pp pp pp
0.0000000000000000e+00 1.5000000000000000e+01
0.0000000000000000e+00 1.5000000000000000e+01
0.0000000000000000e+00 1.5000000000000000e+01
ITEM: ATOMS id type x y z
10 2 5.71137 8.33891 7.76984
4 1 6.53216 7.68821 7.20766
7 2 9.43913 6.88672 8.14079
8 2 6.92553 5.81363 8.78425
9 2 6.02938 7.34646 6.29921
1 1 7.92562 8.34659 6.99598
3 1 7.22132 6.65072 8.09016
2 1 8.45483 7.16293 7.79737
6 2 8.00006 9.38855 7.40052
5 2 8.21494 8.35504 5.94738
ITEM: TIMESTEP
2900
ITEM: NUMBER OF ATOMS
10
ITEM: BOX BOUNDS pp pp pp
0.0000000000000000e+00 1.5000000000000000e+01
0.0000000000000000e+00 1.5000000000000000e+01
0.0000000000000000e+00 1.5000000000000000e+01
ITEM: ATOMS id type x y z
10 2 5.92859 8.59884 7.92007
4 1 6.49007 7.78125 7.28982
7 2 9.38836 6.77157 8.25401
8 2 6.86932 5.81618 8.62169
9 2 5.91257 7.52597 6.39991
1 1 7.95402 8.27898 6.94042
3 1 7.21385 6.65626 8.05155
2 1 8.43891 7.13752 7.84043
6 2 8.2037 9.30158 7.1377
5 2 8.24033 8.08181 5.82235
ITEM: TIMESTEP
3000
ITEM: NUMBER OF ATOMS
10
ITEM: BOX BOUNDS pp pp pp
0.0000000000000000e+00 1.5000000000000000e+01
0.0000000000000000e+00 1.5000000000000000e+01
0.0000000000000000e+00 1.5000000000000000e+01
ITEM: ATOMS id type x y z
10 2 5.91175 8.58878 7.73565
4 1 6.50641 7.8601 7.31893
7 2 9.35181 6.5182 8.01008
8 2 6.86052 6.00638 8.84368
9 2 5.9413 7.45836 6.41966
1 1 8.0179 8.21795 6.9095
3 1 7.16721 6.76105 8.11817
2 1 8.41224 7.03506 7.76767
6 2 8.24714 9.22902 7.33366
5 2 8.18894 8.17436 5.86067
ITEM: TIMESTEP
3100
ITEM: NUMBER OF ATOMS
10
ITEM: BOX BOUNDS pp pp pp
0.0000000000000000e+00 1.5000000000000000e+01
0.0000000000000000e+00 1.5000000000000000e+01
0.0000000000000000e+00 1.5000000000000000e+01
ITEM: ATOMS id type x y z
10 2 6.12275 8.76538 7.90905
4 1 6.51601 7.91514 7.31654
7 2 9.31483 6.44859 8.07036
8 2 6.72468 5.98424 8.82956
9 2 5.84335 7.67706 6.54544
1 1 8.0111 8.19081 6.8733
3 1 7.13381 6.7598 8.14945
2 1 8.41911 6.98565 7.767
6 2 8.47577 9.17675 7.09985
5 2 8.1624 8.05955 5.79693
ITEM: TIMESTEP
3200
ITEM: NUMBER OF ATOMS
10
ITEM: BOX BOUNDS pp pp pp
0.0000000000000000e+00 1.5000000000000000e+01
0.0000000000000000e+00 1.5000000000000000e+01
0.0000000000000000e+00 1.5000000000000000e+01
ITEM: ATOMS id type x y z
10 2 6.32644 8.92018 8.04357
4 1 6.59336 7.97359 7.37339
7 2 9.2299 6.34747 8.02593
8 2 6.62679 6.06777 8.80844
9 2 5.76976 7.7993 6.61949
1 1 8.08249 8.11663 6.82907
3 1 7.07959 6.81062 8.18233
2 1 8.34576 6.95961 7.7314
6 2 8.57727 9.0557 7.04819
5 2 7.98672 7.86687 5.64625
ITEM: TIMESTEP
3300
ITEM: NUMBER OF ATOMS
10
ITEM: BOX BOUNDS pp pp pp
0.0000000000000000e+00 1.5000000000000000e+01
0.0000000000000000e+00 1.5000000000000000e+01
0.0000000000000000e+00 1.5000000000000000e+01
ITEM: ATOMS id type x y z
10 2 6.32777 9.00322 7.88266
4 1 6.66859 8.09071 7.42767
7 2 9.08991 6.12341 7.73021
8 2 6.53023 6.35096 9.07845
9 2 5.849 7.78309 6.63704
1 1 8.06483 8.02876 6.76129
3 1 7.07701 6.90181 8.27581
2 1 8.26555 6.80309 7.66855
6 2 8.70835 8.89635 7.06909
5 2 8.16287 8.11677 5.69163
ITEM: TIMESTEP
3400
ITEM: NUMBER OF ATOMS
10
ITEM: BOX BOUNDS pp pp pp
0.0000000000000000e+00 1.5000000000000000e+01
0.0000000000000000e+00 1.5000000000000000e+01
0.0000000000000000e+00 1.5000000000000000e+01
ITEM: ATOMS id type x y z
10 2 6.70625 9.10268 8.08371
4 1 6.70583 8.1838 7.4832
7 2 9.11225 6.11523 7.87092
8 2 6.37382 6.40546 8.91616
9 2 5.85757 8.14758 6.85105
1 1 8.07906 7.95514 6.69515
3 1 7.02889 6.92865 8.24039
2 1 8.23714 6.76874 7.67285
6 2 8.80954 8.721 6.9099
5 2 7.95905 7.71011 5.70777
ITEM: TIMESTEP
3500
ITEM: NUMBER OF ATOMS
10
ITEM: BOX BOUNDS pp pp pp
0.0000000000000000e+00 1.5000000000000000e+01
0.0000000000000000e+00 1.5000000000000000e+01
0.0000000000000000e+00 1.5000000000000000e+01
ITEM: ATOMS id type x y z
10 2 6.74438 9.21116 8.09388
4 1 6.72922 8.25642 7.49328
7 2 8.98554 5.95257 7.72023
8 2 6.37433 6.52976 9.02428
9 2 5.80285 8.21055 6.90708
1 1 8.12379 7.88123 6.73004
3 1 7.0405 7.02656 8.29157
2 1 8.16258 6.66585 7.60495
6 2 8.88912 8.61968 6.82932
5 2 7.99127 7.71595 5.59516
ITEM: TIMESTEP
3600
ITEM: NUMBER OF ATOMS
10
ITEM: BOX BOUNDS pp pp pp
0.0000000000000000e+00 1.5000000000000000e+01
0.0000000000000000e+00 1.5000000000000000e+01
0.0000000000000000e+00 1.5000000000000000e+01
ITEM: ATOMS id type x y z
10 2 6.78557 9.28224 8.01299
4 1 6.82545 8.31085 7.51027
7 2 8.76278 5.7776 7.6432
8 2 6.38271 6.68056 9.09447
9 2 5.80669 8.21828 6.94481
1 1 8.07907 7.87067 6.70814
3 1 7.05531 7.05788 8.32404
2 1 8.09647 6.62011 7.57566
6 2 9.04675 8.47799 6.88743
5 2 8.00167 7.62629 5.59749
ITEM: TIMESTEP
3700
ITEM: NUMBER OF ATOMS
10
ITEM: BOX BOUNDS pp pp pp
0.0000000000000000e+00 1.5000000000000000e+01
0.0000000000000000e+00 1.5000000000000000e+01
0.0000000000000000e+00 1.5000000000000000e+01
ITEM: ATOMS id type x y z
10 2 7.16158 9.2566 8.14631
4 1 6.89575 8.38104 7.5483
7 2 8.7878 5.79808 7.70398
8 2 6.32262 6.66572 9.03455
9 2 5.91899 8.45451 7.12954
1 1 8.08507 7.7789 6.63488
3 1 6.97544 7.06806 8.27443
2 1 8.05145 6.63342 7.64089
6 2 9.07291 8.34235 6.64053
5 2 7.81389 7.53423 5.64308
ITEM: TIMESTEP
3800
ITEM: NUMBER OF ATOMS
10
ITEM: BOX BOUNDS pp pp pp
0.0000000000000000e+00 1.5000000000000000e+01
0.0000000000000000e+00 1.5000000000000000e+01
0.0000000000000000e+00 1.5000000000000000e+01
ITEM: ATOMS id type x y z
10 2 7.21032 9.36577 7.95812
4 1 6.94 8.37695 7.54191
7 2 8.46669 5.63733 7.58494
8 2 6.44691 6.89177 9.28078
9 2 5.96104 8.54416 7.13854
1 1 8.12092 7.75816 6.65424
3 1 7.0196 7.14006 8.36604
2 1 7.92461 6.55118 7.54858
6 2 9.06734 8.14025 6.71396
5 2 7.94093 7.6826 5.54812
ITEM: TIMESTEP
3900
ITEM: NUMBER OF ATOMS
10
ITEM: BOX BOUNDS pp pp pp
0.0000000000000000e+00 1.5000000000000000e+01
0.0000000000000000e+00 1.5000000000000000e+01
0.0000000000000000e+00 1.5000000000000000e+01
ITEM: ATOMS id type x y z
10 2 7.56966 9.27538 8.04283
4 1 7.06015 8.45176 7.52992
7 2 8.30795 5.49076 7.58331
8 2 6.41157 6.9319 9.2535
9 2 5.987 8.68121 7.14501
1 1 8.07683 7.70674 6.63788
3 1 7.01045 7.19134 8.3837
2 1 7.85276 6.52293 7.54511
6 2 9.15634 8.01527 6.66529
5 2 7.69033 7.58885 5.61942
ITEM: TIMESTEP
4000
ITEM: NUMBER OF ATOMS
10
ITEM: BOX BOUNDS pp pp pp
0.0000000000000000e+00 1.5000000000000000e+01
0.0000000000000000e+00 1.5000000000000000e+01
0.0000000000000000e+00 1.5000000000000000e+01
ITEM: ATOMS id type x y z
10 2 7.80902 9.37514 8.02416
4 1 7.16839 8.53603 7.60042
7 2 8.12931 5.44906 7.572
8 2 6.33404 6.9932 9.19789
9 2 6.22749 9.06301 7.2266
1 1 8.02818 7.5853 6.57809
3 1 6.98267 7.21331 8.36366
2 1 7.80005 6.46678 7.59599
6 2 9.17264 7.91952 6.44347
5 2 7.57579 7.61155 5.59588
ITEM: TIMESTEP
4100
ITEM: NUMBER OF ATOMS
10
ITEM: BOX BOUNDS pp pp pp
0.0000000000000000e+00 1.5000000000000000e+01
0.0000000000000000e+00 1.5000000000000000e+01
0.0000000000000000e+00 1.5000000000000000e+01
ITEM: ATOMS id type x y z
10 2 7.91201 9.35498 7.91993
4 1 7.28307 8.54485 7.59813
7 2 7.65932 5.3467 7.52745
8 2 6.56076 7.11775 9.36971
9 2 6.43044 8.97314 7.14753
1 1 8.01161 7.5616 6.60735
3 1 7.08506 7.30048 8.39678
2 1 7.59135 6.44344 7.51799
6 2 9.04254 7.70671 6.67687
5 2 7.69238 7.61851 5.52601
ITEM: TIMESTEP
4200
ITEM: NUMBER OF ATOMS
10
ITEM: BOX BOUNDS pp pp pp
0.0000000000000000e+00 1.5000000000000000e+01
0.0000000000000000e+00 1.5000000000000000e+01
0.0000000000000000e+00 1.5000000000000000e+01
ITEM: ATOMS id type x y z
10 2 8.22539 9.15166 8.05946
4 1 7.4285 8.59258 7.57256
7 2 7.60959 5.32173 7.58578
8 2 6.4147 7.12969 9.3063
9 2 6.61024 9.22115 7.19745
1 1 7.99283 7.52292 6.56041
3 1 7.01086 7.32316 8.43976
2 1 7.52172 6.42643 7.55108
6 2 9.0772 7.65973 6.39311
5 2 7.46333 7.54551 5.60401
ITEM: TIMESTEP
4300
ITEM: NUMBER OF ATOMS
10
ITEM: BOX BOUNDS pp pp pp
0.0000000000000000e+00 1.5000000000000000e+01
0.0000000000000000e+00 1.5000000000000000e+01
0.0000000000000000e+00 1.5000000000000000e+01
ITEM: ATOMS id type x y z
10 2 8.33769 9.19785 7.99445
4 1 7.48711 8.54256 7.63936
7 2 7.35598 5.39843 7.6073
8 2 6.44323 7.20216 9.37606
9 2 6.76527 9.29745 7.17819
1 1 7.97997 7.46381 6.53878
3 1 7.02754 7.36663 8.43753
2 1 7.44308 6.47096 7.52253
6 2 9.13271 7.56566 6.322
5 2 7.46288 7.4947 5.58178
ITEM: TIMESTEP
4400
ITEM: NUMBER OF ATOMS
10
ITEM: BOX BOUNDS pp pp pp
0.0000000000000000e+00 1.5000000000000000e+01
0.0000000000000000e+00 1.5000000000000000e+01
0.0000000000000000e+00 1.5000000000000000e+01
ITEM: ATOMS id type x y z
10 2 8.41679 9.09595 7.96878
4 1 7.58323 8.54025 7.58511
7 2 7.10591 5.41872 7.5344
8 2 6.68777 7.19899 9.43352
9 2 6.81178 9.18622 7.25332
1 1 7.9695 7.46016 6.55308
3 1 7.04697 7.41141 8.45198
2 1 7.31599 6.49037 7.53254
6 2 9.02023 7.40375 6.47958
5 2 7.58743 7.50327 5.48318
ITEM: TIMESTEP
4500
ITEM: NUMBER OF ATOMS
10
ITEM: BOX BOUNDS pp pp pp
0.0000000000000000e+00 1.5000000000000000e+01
0.0000000000000000e+00 1.5000000000000000e+01
0.0000000000000000e+00 1.5000000000000000e+01
ITEM: ATOMS id type x y z
10 2 8.72015 8.82579 8.01651
4 1 7.72142 8.57925 7.60278
7 2 7.0273 5.39492 7.59199
8 2 6.50878 7.4107 9.45967
9 2 7.21664 9.49642 7.3396
1 1 7.93442 7.40383 6.49652
3 1 6.95416 7.43377 8.43298
2 1 7.28411 6.47169 7.57661
6 2 9.02729 7.24345 6.20042
5 2 7.25918 7.51749 5.62747
ITEM: TIMESTEP
4600
ITEM: NUMBER OF ATOMS
10
ITEM: BOX BOUNDS pp pp pp
0.0000000000000000e+00 1.5000000000000000e+01
0.0000000000000000e+00 1.5000000000000000e+01
0.0000000000000000e+00 1.5000000000000000e+01
ITEM: ATOMS id type x y z
10 2 8.79137 8.82851 7.95944
4 1 7.7988 8.51901 7.63391
7 2 6.53078 5.64032 7.45436
8 2 6.73276 7.49848 9.45312
9 2 7.23412 9.41315 7.24874
1 1 7.89065 7.31683 6.56938
3 1 7.09867 7.52528 8.43609
2 1 7.13001 6.51727 7.50862
6 2 8.94915 7.05357 6.25419
5 2 7.37705 7.51567 5.63112
ITEM: TIMESTEP
4700
ITEM: NUMBER OF ATOMS
10
ITEM: BOX BOUNDS pp pp pp
0.0000000000000000e+00 1.5000000000000000e+01
0.0000000000000000e+00 1.5000000000000000e+01
0.0000000000000000e+00 1.5000000000000000e+01
ITEM: ATOMS id type x y z
10 2 8.92688 8.69392 8.04424
4 1 7.9523 8.46125 7.56348
7 2 6.37575 5.63474 7.3472
8 2 6.7885 7.63143 9.54406
9 2 7.51342 9.45681 7.30684
1 1 7.86323 7.33493 6.51353
3 1 7.09484 7.55465 8.483
2 1 6.99633 6.54713 7.56513
6 2 8.78801 6.87577 6.32713
5 2 7.29128 7.5396 5.56871
ITEM: TIMESTEP
4800
ITEM: NUMBER OF ATOMS
10
ITEM: BOX BOUNDS pp pp pp
0.0000000000000000e+00 1.5000000000000000e+01
0.0000000000000000e+00 1.5000000000000000e+01
0.0000000000000000e+00 1.5000000000000000e+01
ITEM: ATOMS id type x y z
10 2 9.06627 8.28173 8.11517
4 1 8.04013 8.42667 7.63372
7 2 6.38754 5.73265 7.45907
8 2 6.76552 7.85003 9.4751
9 2 7.84389 9.433 7.25299
1 1 7.79047 7.28355 6.47946
3 1 7.07217 7.60301 8.45817
2 1 6.96135 6.6246 7.55998
6 2 8.69771 6.74351 6.15019
5 2 7.17836 7.55208 5.6485
ITEM: TIMESTEP
4900
ITEM: NUMBER OF ATOMS
10
ITEM: BOX BOUNDS pp pp pp
0.0000000000000000e+00 1.5000000000000000e+01
0.0000000000000000e+00 1.5000000000000000e+01
0.0000000000000000e+00 1.5000000000000000e+01
ITEM: ATOMS id type x y z
10 2 9.07316 8.43992 8.05099
4 1 8.10284 8.32589 7.58665
7 2 6.0671 5.97131 7.35498
8 2 6.93357 7.77468 9.54994
9 2 7.84353 9.3726 7.28569
1 1 7.76393 7.23509 6.52811
3 1 7.16548 7.61075 8.50088
2 1 6.83461 6.74509 7.52807
6 2 8.67938 6.65187 6.25811
5 2 7.32615 7.50872 5.52701
ITEM: TIMESTEP
5000
ITEM: NUMBER OF ATOMS
10
ITEM: BOX BOUNDS pp pp pp
0.0000000000000000e+00 1.5000000000000000e+01
0.0000000000000000e+00 1.5000000000000000e+01
0.0000000000000000e+00 1.5000000000000000e+01
ITEM: ATOMS id type x y z
10 2 9.19603 8.14479 8.02092
4 1 8.21741 8.30548 7.59925
7 2 6.03523 5.95044 7.45417
8 2 6.88392 7.90692 9.53027
9 2 8.03452 9.33326 7.30309
1 1 7.77288 7.24969 6.48792
3 1 7.11783 7.67141 8.48968
2 1 6.76996 6.73718 7.55659
6 2 8.53939 6.53304 6.18665
5 2 7.16647 7.56898 5.59325
ITEM: TIMESTEP
5100
ITEM: NUMBER OF ATOMS
10
ITEM: BOX BOUNDS pp pp pp
0.0000000000000000e+00 1.5000000000000000e+01
0.0000000000000000e+00 1.5000000000000000e+01
0.0000000000000000e+00 1.5000000000000000e+01
ITEM: ATOMS id type x y z
10 2 9.29538 8.04213 8.00035
4 1 8.25499 8.26418 7.61561
7 2 5.94242 6.01667 7.47472
8 2 6.88092 7.8952 9.49738
9 2 8.22013 9.30155 7.34069
1 1 7.71074 7.20365 6.49882
3 1 7.14504 7.71424 8.44361
2 1 6.73815 6.79379 7.56067
6 2 8.49148 6.4772 6.20062
5 2 7.20014 7.63212 5.66295
ITEM: TIMESTEP
5200
ITEM: NUMBER OF ATOMS
10
ITEM: BOX BOUNDS pp pp pp
0.0000000000000000e+00 1.5000000000000000e+01
0.0000000000000000e+00 1.5000000000000000e+01
0.0000000000000000e+00 1.5000000000000000e+01
ITEM: ATOMS id type x y z
10 2 9.33114 8.07006 7.89116
4 1 8.30258 8.19253 7.56221
7 2 5.70211 6.36347 7.44448
8 2 6.99292 7.8279 9.52634
9 2 8.2534 9.35048 7.27953
1 1 7.72697 7.17839 6.56481
3 1 7.18363 7.689 8.48492
2 1 6.63664 6.89047 7.53971
6 2 8.36712 6.36516 6.25594
5 2 7.37837 7.54062 5.58165
ITEM: TIMESTEP
5300
ITEM: NUMBER OF ATOMS
10
ITEM: BOX BOUNDS pp pp pp
0.0000000000000000e+00 1.5000000000000000e+01
0.0000000000000000e+00 1.5000000000000000e+01
0.0000000000000000e+00 1.5000000000000000e+01
ITEM: ATOMS id type x y z
10 2 9.34053 7.54163 7.92682
4 1 8.3982 8.09796 7.58865
7 2 5.66396 6.4183 7.59765
8 2 6.84261 8.128 9.48633
9 2 8.57298 9.20952 7.27347
1 1 7.67989 7.15708 6.4942
3 1 7.1489 7.79978 8.45284
2 1 6.6463 6.91769 7.58391
6 2 8.22074 6.25824 6.16137
5 2 7.24348 7.82924 5.72573
ITEM: TIMESTEP
5400
ITEM: NUMBER OF ATOMS
10
ITEM: BOX BOUNDS pp pp pp
0.0000000000000000e+00 1.5000000000000000e+01
0.0000000000000000e+00 1.5000000000000000e+01
0.0000000000000000e+00 1.5000000000000000e+01
ITEM: ATOMS id type x y z
10 2 9.42122 7.53757 7.86502
4 1 8.43159 8.00055 7.58391
7 2 5.52842 6.67806 7.55477
8 2 6.93639 8.0264 9.47723
9 2 8.68046 8.98267 7.28542
1 1 7.60305 7.13766 6.49031
3 1 7.23744 7.82693 8.49176
2 1 6.54819 7.07552 7.58878
6 2 8.11225 6.16639 6.23485
5 2 7.52368 7.58493 5.54325
ITEM: TIMESTEP
5500
ITEM: NUMBER OF ATOMS
10
ITEM: BOX BOUNDS pp pp pp
0.0000000000000000e+00 1.5000000000000000e+01
0.0000000000000000e+00 1.5000000000000000e+01
0.0000000000000000e+00 1.5000000000000000e+01
ITEM: ATOMS id type x y z
10 2 9.32124 7.34605 7.85214
4 1 8.47959 7.88791 7.57029
7 2 5.45512 6.90329 7.66679
8 2 7.00473 8.17616 9.53477
9 2 8.80076 8.82803 7.14273
1 1 7.61856 7.11418 6.52247
3 1 7.26093 7.80754 8.48701
2 1 6.49986 7.22788 7.55155
6 2 7.95429 6.11446 6.38516
5 2 7.43417 7.627 5.51944
ITEM: TIMESTEP
5600
ITEM: NUMBER OF ATOMS
10
ITEM: BOX BOUNDS pp pp pp
0.0000000000000000e+00 1.5000000000000000e+01
0.0000000000000000e+00 1.5000000000000000e+01
0.0000000000000000e+00 1.5000000000000000e+01
ITEM: ATOMS id type x y z
10 2 9.30836 7.04685 7.98105
4 1 8.55404 7.77984 7.57002
7 2 5.45918 6.91356 7.68157
8 2 7.00463 8.41936 9.34911
9 2 9.04681 8.73198 7.18649
1 1 7.53425 7.10791 6.52347
3 1 7.27634 7.88204 8.46763
2 1 6.46239 7.27938 7.58817
6 2 7.90255 6.05012 6.1898
5 2 7.44035 7.76312 5.60526
ITEM: TIMESTEP
5700
ITEM: NUMBER OF ATOMS
10
ITEM: BOX BOUNDS pp pp pp
0.0000000000000000e+00 1.5000000000000000e+01
0.0000000000000000e+00 1.5000000000000000e+01
0.0000000000000000e+00 1.5000000000000000e+01
ITEM: ATOMS id type x y z
10 2 9.44259 7.11182 7.85719
4 1 8.53397 7.71156 7.58065
7 2 5.35306 7.21982 7.63652
8 2 7.14865 8.32269 9.44128
9 2 8.96474 8.61275 7.18509
1 1 7.5322 7.09915 6.54859
3 1 7.3169 7.8504 8.45888
2 1 6.45211 7.40603 7.54664
6 2 7.73737 6.02772 6.39319
5 2 7.46652 7.52235 5.56718
ITEM: TIMESTEP
5800
ITEM: NUMBER OF ATOMS
10
ITEM: BOX BOUNDS pp pp pp
0.0000000000000000e+00 1.5000000000000000e+01
0.0000000000000000e+00 1.5000000000000000e+01
0.0000000000000000e+00 1.5000000000000000e+01
ITEM: ATOMS id type x y z
10 2 9.24199 6.85276 7.90654