LAMMPS (2 Aug 2023 - Update 2)
#13 Butadiene
units           metal
boundary        p p p
atom_style      atomic

neighbor        2.0 bin
neigh_modify    delay 0 every 1 check yes

read_data       restart.lmp
Reading data file ...
  orthogonal box = (0 0 0) to (15 15 15)
  1 by 1 by 3 MPI processor grid
  reading atoms ...
  10 atoms
  reading velocities ...
  10 velocities
  read_data CPU = 0.001 seconds
mass            1 12.0
mass            2 2

variable        sysvol          equal vol
variable        sysmass         equal mass(all)/6.0221367e+23
variable        sysdensity      equal v_sysmass/v_sysvol/1.0e-24
variable	out_freq 	equal 100

pair_style      deepmd ../files/frozen_model_1_compressed.pb ../files/frozen_model_2_compressed.pb ../files/frozen_model_3_compressed.pb ../files/frozen_model_3_compressed.pb out_file md.out out_freq 10 atomic relative 1.0
Summary of lammps deepmd module ...
  >>> Info of deepmd-kit:
  installed to:       /rs1/researchers/w/wjpfaend/rahul/MLP/DeePMD-kit/deepmd_cpu
  source:             v2.2.8-dirty
  source branch:      master
  source commit:      b875ea8
  source commit at:   2024-01-22 22:28:58 -0500
  support model ver.: 1.1 
  build variant:      cpu
  build with tf inc:  /rs1/researchers/w/wjpfaend/rahul/MLP/DeePMD-kit/tensorflow/lib/python3.11/site-packages/tensorflow/include;/rs1/researchers/w/wjpfaend/rahul/MLP/DeePMD-kit/tensorflow/lib/python3.11/site-packages/tensorflow/include
  build with tf lib:  /rs1/researchers/w/wjpfaend/rahul/MLP/DeePMD-kit/tensorflow/lib/python3.11/site-packages/tensorflow/libtensorflow_cc.so.2
  set tf intra_op_parallelism_threads: 0
  set tf inter_op_parallelism_threads: 0
  >>> Info of lammps module:
  use deepmd-kit at:  /rs1/researchers/w/wjpfaend/rahul/MLP/DeePMD-kit/deepmd_cpu
  source:             v2.2.8-dirty
  source branch:      master
  source commit:      b875ea8
  source commit at:   2024-01-22 22:28:58 -0500
  build float prec:   double
  build with tf inc:  /rs1/researchers/w/wjpfaend/rahul/MLP/DeePMD-kit/tensorflow/lib/python3.11/site-packages/tensorflow/include;/rs1/researchers/w/wjpfaend/rahul/MLP/DeePMD-kit/tensorflow/lib/python3.11/site-packages/tensorflow/include
  build with tf lib:  /rs1/researchers/w/wjpfaend/rahul/MLP/DeePMD-kit/tensorflow/lib/python3.11/site-packages/tensorflow/libtensorflow_cc.so.2
pair_coeff	* *

#
velocity        all create 300.0 2345678 rot no dist gaussian
fix             1 all nvt temp 300.0 300.0 0.05
fix             2 all plumed plumedfile plumed.dat outfile PLUMED.log

timestep        0.0005
thermo_style    custom step pe ke etotal v_sysdensity temp press vol
thermo          10

dump            10 all custom 100 btd.dump id type x y z
dump		101 all xyz 20 btd.xyz
dump_modify	101 element C H

fix		extra all print 20 "$(step), $(ke), $(pe), $(etotal), $(temp), $(press), $(vol)" file logfile screen no

restart	        20000 dump.restart

run             50000

CITE-CITE-CITE-CITE-CITE-CITE-CITE-CITE-CITE-CITE-CITE-CITE-CITE

Your simulation uses code contributions which should be cited:

- USER-DEEPMD package:

@article{Wang_ComputPhysCommun_2018_v228_p178,
  author = {Wang, Han and Zhang, Linfeng and Han, Jiequn and E, Weinan},
  doi = {10.1016/j.cpc.2018.03.016},
  url = {https://doi.org/10.1016/j.cpc.2018.03.016},
  year = 2018,
  month = {jul},
  publisher = {Elsevier {BV}},
  volume = 228,
  journal = {Comput. Phys. Commun.},
  title = {{DeePMD-kit: A deep learning package for many-body potential energy representation and molecular dynamics}},
  pages = {178--184}
}
@misc{Zeng_JChemPhys_2023_v159_p054801,
  title  = {{DeePMD-kit v2: A software package for deep potential models}},
  author =   {Jinzhe Zeng and Duo Zhang and Denghui Lu and Pinghui Mo and Zeyu Li
         and Yixiao Chen and Mari{\'a}n Rynik and Li'ang Huang and Ziyao Li and 
         Shaochen Shi and Yingze Wang and Haotian Ye and Ping Tuo and Jiabin
         Yang and Ye Ding and Yifan Li and Davide Tisi and Qiyu Zeng and Han 
         Bao and Yu Xia and Jiameng Huang and Koki Muraoka and Yibo Wang and 
         Junhan Chang and Fengbo Yuan and Sigbj{\o}rn L{\o}land Bore and Chun
         Cai and Yinnian Lin and Bo Wang and Jiayan Xu and Jia-Xin Zhu and 
         Chenxing Luo and Yuzhi Zhang and Rhys E A Goodall and Wenshuo Liang
         and Anurag Kumar Singh and Sikai Yao and Jingchao Zhang and Renata
         Wentzcovitch and Jiequn Han and Jie Liu and Weile Jia and Darrin M
         York and Weinan E and Roberto Car and Linfeng Zhang and Han Wang},
  journal =  {J. Chem. Phys.},
  volume =   159,
  issue =    5,  
  year =    2023,
  pages  =   054801,
  doi =      {10.1063/5.0155600},
}

CITE-CITE-CITE-CITE-CITE-CITE-CITE-CITE-CITE-CITE-CITE-CITE-CITE

Generated 0 of 1 mixed pair_coeff terms from geometric mixing rule
Neighbor list info ...
  update: every = 1 steps, delay = 0 steps, check = yes
  max neighbors/atom: 2000, page size: 100000
  master list distance cutoff = 8
  ghost atom cutoff = 8
  binsize = 4, bins = 4 4 4
  1 neighbor lists, perpetual/occasional/extra = 1 0 0
  (1) pair deepmd, perpetual
      attributes: full, newton on
      pair build: full/bin/atomonly
      stencil: full/bin/3d
      bin: standard
Per MPI rank memory allocation (min/avg/max) = 2.958 | 2.999 | 3.083 Mbytes
   Step         PotEng         KinEng         TotEng      v_sysdensity       Temp          Press          Volume    
         0  -56.159162      0.34900239    -55.81016       0.029520714    300           -504.68515      3375         
        10  -56.152932      0.42489729    -55.728035      0.029520714    365.23872     -949.44468      3375         
        20  -56.245969      0.49054167    -55.755427      0.029520714    421.66617      257.60286      3375         
        30  -56.089282      0.34851624    -55.740766      0.029520714    299.58211      980.55498      3375         
        40  -56.172012      0.41356209    -55.75845       0.029520714    355.49506     -1049.5475      3375         
        50  -56.117604      0.3547436     -55.76286       0.029520714    304.9351      -1028.0276      3375         
        60  -56.163477      0.38891902    -55.774558      0.029520714    334.31205      1682.258       3375         
        70  -56.146695      0.35958457    -55.78711       0.029520714    309.09637      1235.9516      3375         
        80  -56.227879      0.43535001    -55.792529      0.029520714    374.2238      -1192.2333      3375         
        90  -56.040606      0.23493971    -55.805666      0.029520714    201.95252     -1314.8891      3375         
       100  -56.319916      0.49222144    -55.827695      0.029520714    423.11008      100.01955      3375         
       110  -56.181223      0.35019809    -55.831025      0.029520714    301.02782      1085.5075      3375         
       120  -56.195485      0.33628772    -55.859197      0.029520714    289.07056      826.20757      3375         
       130  -56.142291      0.27035512    -55.871936      0.029520714    232.39536     -1079.9798      3375         
       140  -56.354531      0.45564776    -55.898883      0.029520714    391.67161     -604.49554      3375         
       150  -56.194729      0.2692836     -55.925445      0.029520714    231.47429      1390.3775      3375         
       160  -56.294737      0.35699664    -55.93774       0.029520714    306.8718      -168.07162      3375         
       170  -56.18874       0.21480221    -55.973938      0.029520714    184.64247     -1851.2534      3375         
       180  -56.271849      0.29916936    -55.97268       0.029520714    257.16388      184.67476      3375         
       190  -56.305123      0.28229754    -56.022826      0.029520714    242.66098      1803.3205      3375         
       200  -56.303551      0.30562945    -55.997922      0.029520714    262.71692      739.78586      3375         
       210  -56.285986      0.23617918    -56.049807      0.029520714    203.01796     -810.34087      3375         
       220  -56.263261      0.22962737    -56.033634      0.029520714    197.38607     -1598.0323      3375         
       230  -56.303672      0.23502031    -56.068652      0.029520714    202.02181     -95.336431      3375         
       240  -56.319675      0.27004328    -56.049632      0.029520714    232.1273       1590.6599      3375         
       250  -56.398631      0.32428707    -56.074344      0.029520714    278.75489     -172.22498      3375         
       260  -56.237222      0.1662035     -56.071018      0.029520714    142.86736     -1057.3488      3375         
       270  -56.348406      0.26850393    -56.079902      0.029520714    230.80409      891.71955      3375         
       280  -56.308927      0.22903227    -56.079894      0.029520714    196.87453      919.36307      3375         
       290  -56.384303      0.31152249    -56.072781      0.029520714    267.78254     -820.86104      3375         
       300  -56.266812      0.1894402     -56.077372      0.029520714    162.84147     -1219.6054      3375         
       310  -56.389117      0.31664012    -56.072477      0.029520714    272.18162     -89.592921      3375         
       320  -56.204087      0.13311305    -56.070974      0.029520714    114.42304      1327.9263      3375         
       330  -56.339389      0.28308851    -56.056301      0.029520714    243.34089      1015.3903      3375         
       340  -56.284828      0.2260245     -56.058803      0.029520714    194.28907     -1302.5729      3375         
       350  -56.36607       0.31693389    -56.049136      0.029520714    272.43414     -1043.6016      3375         
       360  -56.263983      0.21764876    -56.046334      0.029520714    187.08934      1085.2487      3375         
       370  -56.293171      0.26060299    -56.032568      0.029520714    224.01249      747.30616      3375         
       380  -56.24938       0.212114      -56.037266      0.029520714    182.3317      -923.64194      3375         
       390  -56.377529      0.36153976    -56.01599       0.029520714    310.77703     -661.40979      3375         
       400  -56.343635      0.31085487    -56.03278       0.029520714    267.20866      803.86252      3375         
       410  -56.227573      0.23550884    -55.992064      0.029520714    202.44174      788.5978       3375         
       420  -56.289056      0.27480693    -56.014249      0.029520714    236.2221      -447.10921      3375         
       430  -56.250767      0.26558146    -55.985186      0.029520714    228.29196     -1032.5496      3375         
       440  -56.307555      0.30360559    -56.00395       0.029520714    260.97723      36.154436      3375         
       450  -56.312585      0.34414963    -55.968436      0.029520714    295.8286       999.19982      3375         
       460  -56.269375      0.28864895    -55.980726      0.029520714    248.1206       83.698557      3375         
       470  -56.127524      0.1632843     -55.96424       0.029520714    140.35804     -922.2696       3375         
       480  -56.360994      0.39636071    -55.964634      0.029520714    340.70888      209.1763       3375         
       490  -56.267615      0.31550058    -55.952115      0.029520714    271.20208      1216.377       3375         
       500  -56.241097      0.30487602    -55.936221      0.029520714    262.06928     -358.98898      3375         
       510  -56.200831      0.26380195    -55.937029      0.029520714    226.7623      -1315.3563      3375         
       520  -56.301935      0.37992096    -55.922014      0.029520714    326.57739     -105.14495      3375         
       530  -56.198711      0.2810252     -55.917686      0.029520714    241.56728      584.18448      3375         
       540  -56.332864      0.43859412    -55.89427       0.029520714    377.01242      657.69441      3375         
       550  -56.147962      0.25534141    -55.892621      0.029520714    219.48968      233.20835      3375         
       560  -56.287803      0.40892915    -55.878873      0.029520714    351.51262     -519.151        3375         
       570  -56.233144      0.36266826    -55.870476      0.029520714    311.74708     -92.805623      3375         
       580  -56.216191      0.35953017    -55.856661      0.029520714    309.04961      235.30146      3375         
       590  -56.102354      0.25162106    -55.850733      0.029520714    216.29169     -1122.979       3375         
       600  -56.282975      0.44126621    -55.841709      0.029520714    379.30933     -231.82916      3375         
       610  -56.169677      0.33434305    -55.835333      0.029520714    287.39893      1755.6535      3375         
       620  -56.192588      0.38073883    -55.811849      0.029520714    327.28042      365.36976      3375         
       630  -56.196272      0.37581693    -55.820455      0.029520714    323.04958     -879.85865      3375         
       640  -56.04005       0.25020715    -55.789843      0.029520714    215.07631     -357.564        3375         
       650  -56.226592      0.41798418    -55.808608      0.029520714    359.29626     -365.92029      3375         
       660  -56.339159      0.57438762    -55.764771      0.029520714    493.73956      200.453        3375         
       670  -56.208948      0.43109377    -55.777854      0.029520714    370.56517      460.48693      3375         
       680  -55.989474      0.22877649    -55.760698      0.029520714    196.65466     -243.52012      3375         
       690  -56.250533      0.48070933    -55.769824      0.029520714    413.21436      707.15229      3375         
       700  -56.157607      0.40742014    -55.750186      0.029520714    350.21548      869.70033      3375         
       710  -56.221231      0.47308007    -55.748151      0.029520714    406.6563      -1788.9001      3375         
       720  -56.171857      0.4205515     -55.751305      0.029520714    361.50311     -1559.2205      3375         
       730  -56.051781      0.30967916    -55.742102      0.029520714    266.19802      1316.9972      3375         
       740  -56.030313      0.27808861    -55.752225      0.029520714    239.04301      1499.8684      3375         
       750  -56.343957      0.60530237    -55.738655      0.029520714    520.31366      220.06245      3375         
       760  -56.105652      0.36109617    -55.744556      0.029520714    310.39572     -860.95221      3375         
       770  -56.147471      0.39273716    -55.754734      0.029520714    337.5941      -895.8858       3375         
       780  -56.159252      0.40605192    -55.7532        0.029520714    349.03937      532.52002      3375         
       790  -56.174382      0.41584728    -55.758534      0.029520714    357.4594       416.16149      3375         
       800  -56.13937       0.36149112    -55.777879      0.029520714    310.73522     -1175.0623      3375         
       810  -56.332613      0.54305062    -55.789562      0.029520714    466.80249      71.803637      3375         
       820  -56.134496      0.31427585    -55.82022       0.029520714    270.14931      1636.2906      3375         
       830  -56.148224      0.3191365     -55.829087      0.029520714    274.32749      177.59086      3375         
       840  -56.273406      0.40973969    -55.863666      0.029520714    352.20936     -1195.2127      3375         
       850  -56.189269      0.31407176    -55.875197      0.029520714    269.97387     -756.72969      3375         
       860  -56.208296      0.29093439    -55.917362      0.029520714    250.08515      517.42687      3375         
       870  -56.273469      0.35479399    -55.918675      0.029520714    304.97841      1089.0854      3375         
       880  -56.281457      0.33027642    -55.951181      0.029520714    283.90329     -170.15963      3375         
       890  -56.164508      0.19977797    -55.96473       0.029520714    171.72774     -1148.9277      3375         
       900  -56.348811      0.36228957    -55.986521      0.029520714    311.42157      61.188884      3375         
       910  -56.272167      0.27754829    -55.994619      0.029520714    238.57855      1081.7357      3375         
       920  -56.286147      0.27578599    -56.010361      0.029520714    237.0637       96.618635      3375         
       930  -56.301492      0.27890974    -56.022582      0.029520714    239.74885     -986.46327      3375         
       940  -56.34429       0.3159766     -56.028313      0.029520714    271.61126     -243.21794      3375         
       950  -56.252129      0.20545974    -56.04667       0.029520714    176.61174      881.61429      3375         
       960  -56.33596       0.30161789    -56.034342      0.029520714    259.26862      233.88111      3375         
       970  -56.294727      0.24126212    -56.053465      0.029520714    207.38722     -703.50805      3375         
       980  -56.298506      0.25260666    -56.045899      0.029520714    217.13891     -218.99413      3375         
       990  -56.349956      0.29107212    -56.058884      0.029520714    250.20354      522.90055      3375         
      1000  -56.253091      0.20491067    -56.048181      0.029520714    176.13977      455.05483      3375         
      1010  -56.231132      0.17818246    -56.052949      0.029520714    153.16439     -604.77713      3375         
      1020  -56.331805      0.28405473    -56.04775       0.029520714    244.17145     -966.448        3375         
      1030  -56.368632      0.32281601    -56.045816      0.029520714    277.49037      717.09562      3375         
      1040  -56.235545      0.20068966    -56.034856      0.029520714    172.51142      1437.4996      3375         
      1050  -56.28917       0.2617254     -56.027445      0.029520714    224.97731     -354.24128      3375         
      1060  -56.281158      0.26026539    -56.020892      0.029520714    223.7223      -1074.0593      3375         
      1070  -56.293277      0.28399971    -56.009277      0.029520714    244.12415     -280.49447      3375         
      1080  -56.326997      0.33789249    -55.989104      0.029520714    290.45         36.226697      3375         
      1090  -56.335743      0.36249453    -55.973248      0.029520714    311.59774      436.52866      3375         
      1100  -56.130841      0.17651556    -55.954325      0.029520714    151.73154      304.65413      3375         
      1110  -56.213697      0.26990732    -55.94379       0.029520714    232.01043     -44.328386      3375         
      1120  -56.309777      0.3898971     -55.91988       0.029520714    335.15281      663.44289      3375         
      1130  -56.257167      0.36650428    -55.890663      0.029520714    315.0445      -94.16902       3375         
      1140  -56.128771      0.25823159    -55.870539      0.029520714    221.97406     -1688.048       3375         
      1150  -56.211353      0.35833048    -55.853023      0.029520714    308.01836     -378.3115       3375         
      1160  -56.139764      0.3030241     -55.836739      0.029520714    260.47739      1377.2872      3375         
      1170  -56.162611      0.35723932    -55.805371      0.029520714    307.08041      783.50215      3375         
      1180  -56.290003      0.49047318    -55.79953       0.029520714    421.6073       22.899391      3375         
      1190  -56.171267      0.40169619    -55.769571      0.029520714    345.29522     -742.09375      3375         
      1200  -56.078293      0.30458061    -55.773712      0.029520714    261.81535     -905.61629      3375         
      1210  -56.213312      0.4626898     -55.750622      0.029520714    397.7249       504.01148      3375         
      1220  -56.195356      0.44312297    -55.752233      0.029520714    380.90538      393.3449       3375         
      1230  -56.136284      0.39088495    -55.745399      0.029520714    336.00196     -325.75949      3375         
      1240  -56.205354      0.45603989    -55.749314      0.029520714    392.00868      778.35174      3375         
      1250  -56.093417      0.34592061    -55.747496      0.029520714    297.35092      507.33061      3375         
      1260  -56.128432      0.38430621    -55.744126      0.029520714    330.34691     -1096.9996      3375         
      1270  -56.17157       0.41734623    -55.754224      0.029520714    358.74789     -886.65013      3375         
      1280  -56.156209      0.40425358    -55.751955      0.029520714    347.49353      123.15637      3375         
      1290  -56.079653      0.32029795    -55.759355      0.029520714    275.32586      893.48458      3375         
      1300  -56.259998      0.50072388    -55.759274      0.029520714    430.41873      969.24411      3375         
      1310  -56.090093      0.32305625    -55.767037      0.029520714    277.69688     -587.15879      3375         
      1320  -56.173371      0.39683688    -55.776535      0.029520714    341.11819     -822.74144      3375         
      1330  -56.230143      0.44901622    -55.781127      0.029520714    385.97118      471.43429      3375         
      1340  -56.198374      0.41358235    -55.784792      0.029520714    355.51248      61.516902      3375         
      1350  -56.126386      0.32476223    -55.801624      0.029520714    279.16333     -607.74706      3375         
      1360  -56.272342      0.47040434    -55.801938      0.029520714    404.35626      60.855116      3375         
      1370  -56.195486      0.36827093    -55.827215      0.029520714    316.5631       432.98643      3375         
      1380  -56.116267      0.29898417    -55.817283      0.029520714    257.00469      220.81295      3375         
      1390  -56.26294       0.4228466     -55.840093      0.029520714    363.47596     -66.643936      3375         
      1400  -56.194092      0.35425284    -55.839839      0.029520714    304.51325     -269.6604       3375         
      1410  -56.223432      0.36250477    -55.860928      0.029520714    311.60655      263.26401      3375         
      1420  -56.171482      0.31250106    -55.858981      0.029520714    268.62371      377.99854      3375         
      1430  -56.2307        0.35949516    -55.871204      0.029520714    309.01951     -726.23121      3375         
      1440  -56.159731      0.28229747    -55.877434      0.029520714    242.66092     -804.03994      3375         
      1450  -56.349819      0.46058811    -55.889231      0.029520714    395.9183       490.81241      3375         
      1460  -56.254252      0.35719264    -55.897059      0.029520714    307.04028      1051.8855      3375         
      1470  -56.179116      0.27671945    -55.902396      0.029520714    237.86609      229.3464       3375         
      1480  -56.19149       0.27812196    -55.913368      0.029520714    239.07168     -725.17966      3375         
      1490  -56.344611      0.4275815     -55.917029      0.029520714    367.54605     -373.79789      3375         
      1500  -56.285787      0.35369692    -55.93209       0.029520714    304.03538      122.94255      3375         
      1510  -56.248996      0.31884972    -55.930147      0.029520714    274.08098     -170.77741      3375         
      1520  -56.215349      0.26971929    -55.945629      0.029520714    231.8488      -203.38819      3375         
      1530  -56.186265      0.23943969    -55.946825      0.029520714    205.82068      656.98317      3375         
      1540  -56.332116      0.3732723     -55.958844      0.029520714    320.86224      829.17816      3375         
      1550  -56.338935      0.37952476    -55.95941       0.029520714    326.23681     -257.32256      3375         
      1560  -56.162829      0.19028831    -55.97254       0.029520714    163.57049     -1354.3054      3375         
      1570  -56.221744      0.24849232    -55.973251      0.029520714    213.60225     -719.87561      3375         
      1580  -56.363706      0.37482098    -55.988885      0.029520714    322.19348      1142.5088      3375         
      1590  -56.280612      0.29197446    -55.988638      0.029520714    250.97919      1162.8646      3375         
      1600  -56.315053      0.30785641    -56.007197      0.029520714    264.63121     -188.08462      3375         
      1610  -56.276646      0.26374129    -56.012904      0.029520714    226.71016     -617.37595      3375         
      1620  -56.270487      0.23474084    -56.035747      0.029520714    201.78158     -275.05358      3375         
      1630  -56.312443      0.27500778    -56.037435      0.029520714    236.39475     -166.08345      3375         
      1640  -56.389028      0.33040438    -56.058623      0.029520714    284.01328     -397.85659      3375         
      1650  -56.269148      0.19431319    -56.074835      0.029520714    167.03025     -122.27877      3375         
      1660  -56.311115      0.22347579    -56.087639      0.029520714    192.09821      1177.2821      3375         
      1670  -56.333979      0.23449741    -56.099482      0.029520714    201.57232      1093.037       3375         
      1680  -56.33133       0.22425824    -56.107072      0.029520714    192.7708      -823.8452       3375         
      1690  -56.337622      0.21580913    -56.121813      0.029520714    185.50801     -1468.3239      3375         
      1700  -56.34589       0.21949269    -56.126398      0.029520714    188.67437     -227.19899      3375         
      1710  -56.281678      0.14491653    -56.136762      0.029520714    124.56923      909.71177      3375         
      1720  -56.398892      0.26618706    -56.132705      0.029520714    228.81252      780.85785      3375         
      1730  -56.392975      0.25023779    -56.142737      0.029520714    215.10265     -334.62272      3375         
      1740  -56.314819      0.17338825    -56.14143       0.029520714    149.04332     -630.63801      3375         
      1750  -56.345201      0.19863342    -56.146568      0.029520714    170.74389      455.94194      3375         
      1760  -56.410522      0.27337463    -56.137147      0.029520714    234.99091      334.16368      3375         
      1770  -56.329951      0.19018709    -56.139764      0.029520714    163.48348     -820.82963      3375         
      1780  -56.345346      0.21573425    -56.129612      0.029520714    185.44365     -378.68188      3375         
      1790  -56.385994      0.25364553    -56.132349      0.029520714    218.03192      966.28225      3375         
      1800  -56.271994      0.16100953    -56.110984      0.029520714    138.40266      676.93084      3375         
      1810  -56.349481      0.244755      -56.104726      0.029520714    210.38967     -698.57877      3375         
      1820  -56.350403      0.26283455    -56.087568      0.029520714    225.93073     -1139.8205      3375         
      1830  -56.287433      0.21081521    -56.076617      0.029520714    181.21527      288.99503      3375         
      1840  -56.242238      0.18947366    -56.052764      0.029520714    162.87023      1424.6922      3375         
      1850  -56.401491      0.3636154     -56.037876      0.029520714    312.56124     -8.4871435      3375         
      1860  -56.234672      0.2254578     -56.009215      0.029520714    193.80194     -1404.4967      3375         
      1870  -56.350479      0.35774524    -55.992734      0.029520714    307.51529     -171.21898      3375         
      1880  -56.277105      0.30536245    -55.971743      0.029520714    262.48742      1300.1165      3375         
      1890  -56.24834       0.30624284    -55.942097      0.029520714    263.24419      416.43659      3375         
      1900  -56.218598      0.27980645    -55.938792      0.029520714    240.51965     -1054.8945      3375         
      1910  -56.335323      0.42323809    -55.912085      0.029520714    363.81248     -750.65527      3375         
      1920  -56.188491      0.27599049    -55.912501      0.029520714    237.23948      543.01355      3375         
      1930  -56.233377      0.35612944    -55.877247      0.029520714    306.12636      775.8091       3375         
      1940  -56.210684      0.32341694    -55.887267      0.029520714    278.00693     -394.09281      3375         
      1950  -56.139057      0.27580556    -55.863251      0.029520714    237.08052     -438.23686      3375         
      1960  -56.30161       0.43641265    -55.865197      0.029520714    375.13724      741.0697       3375         
      1970  -56.244327      0.3984987     -55.845828      0.029520714    342.54668      877.83551      3375         
      1980  -56.086335      0.24450657    -55.841829      0.029520714    210.17613     -1043.8133      3375         
      1990  -56.19141       0.35708472    -55.834325      0.029520714    306.94751     -1699.9129      3375         
      2000  -56.323317      0.49016595    -55.833151      0.029520714    421.3432       355.24519      3375         
      2010  -56.185861      0.37107967    -55.814781      0.029520714    318.97748      1570.5604      3375         
      2020  -56.21157       0.39305253    -55.818517      0.029520714    337.86519      684.47738      3375         
      2030  -56.158375      0.35175682    -55.806619      0.029520714    302.36769     -496.00373      3375         
      2040  -56.153087      0.33938331    -55.813704      0.029520714    291.73151     -813.59529      3375         
      2050  -56.243172      0.4448483     -55.798323      0.029520714    382.38847     -369.49634      3375         
      2060  -56.277808      0.47389018    -55.803918      0.029520714    407.35267      279.34713      3375         
      2070  -56.024784      0.22491403    -55.79987       0.029520714    193.33452     -241.55183      3375         
      2080  -56.221841      0.41732012    -55.804521      0.029520714    358.72544      255.06597      3375         
      2090  -56.199262      0.39539041    -55.803871      0.029520714    339.87482      1354.9963      3375         
      2100  -56.180549      0.3847693     -55.79578       0.029520714    330.74498     -81.840124      3375         
      2110  -56.15767       0.34933915    -55.80833       0.029520714    300.28948     -1503.6849      3375         
      2120  -56.205762      0.40753707    -55.798225      0.029520714    350.316       -545.43569      3375         
      2130  -56.124983      0.3098615     -55.815121      0.029520714    266.35476      391.8951       3375         
      2140  -56.288337      0.48620843    -55.802129      0.029520714    417.94134      804.46751      3375         
      2150  -56.193237      0.37305124    -55.820186      0.029520714    320.67222      700.85657      3375         
      2160  -56.177913      0.3570461     -55.820867      0.029520714    306.91431     -375.00915      3375         
      2170  -56.223595      0.3860421     -55.837553      0.029520714    331.83907     -395.38019      3375         
      2180  -56.259172      0.42460964    -55.834563      0.029520714    364.99146     -72.931769      3375         
      2190  -56.157183      0.29941681    -55.857766      0.029520714    257.37659     -899.1306       3375         
      2200  -56.211736      0.34680232    -55.864933      0.029520714    298.10883     -136.0906       3375         
      2210  -56.237706      0.3531088     -55.884597      0.029520714    303.52984      1420.7227      3375         
      2220  -56.151812      0.25681175    -55.895001      0.029520714    220.75357      430.57139      3375         
      2230  -56.306253      0.39042505    -55.915828      0.029520714    335.60662     -590.71974      3375         
      2240  -56.254907      0.32367087    -55.931236      0.029520714    278.2252      -264.18087      3375         
      2250  -56.201318      0.24158591    -55.959732      0.029520714    207.66555     -251.82593      3375         
      2260  -56.231437      0.26669064    -55.964747      0.029520714    229.2454       9.1629356      3375         
      2270  -56.353797      0.36553665    -55.98826       0.029520714    314.21273      214.18775      3375         
      2280  -56.284961      0.27673832    -56.008223      0.029520714    237.88231     -293.01879      3375         
      2290  -56.322421      0.29039205    -56.032029      0.029520714    249.61896      251.66943      3375         
      2300  -56.266947      0.22607728    -56.04087       0.029520714    194.33444      709.82339      3375         
      2310  -56.308189      0.25435755    -56.053832      0.029520714    218.64396     -363.26849      3375         
      2320  -56.333795      0.26339626    -56.070399      0.029520714    226.41357     -714.06734      3375         
      2330  -56.346027      0.26998236    -56.076045      0.029520714    232.07494      224.05658      3375         
      2340  -56.275897      0.18305777    -56.09284       0.029520714    157.35517      445.96351      3375         
      2350  -56.310648      0.22560012    -56.085048      0.029520714    193.92428     -124.86993      3375         
      2360  -56.321725      0.22332946    -56.098396      0.029520714    191.97243     -392.2716       3375         
      2370  -56.32114       0.22486523    -56.096274      0.029520714    193.29257      41.535731      3375         
      2380  -56.343277      0.24132048    -56.101957      0.029520714    207.43739      644.23069      3375         
      2390  -56.353745      0.25822373    -56.095522      0.029520714    221.9673       197.7288       3375         
      2400  -56.289795      0.19214876    -56.097647      0.029520714    165.16973     -826.54826      3375         
      2410  -56.299193      0.20746752    -56.091725      0.029520714    178.33762     -616.10263      3375         
      2420  -56.389013      0.29788029    -56.091132      0.029520714    256.0558       730.67092      3375         
      2430  -56.358886      0.28363967    -56.075247      0.029520714    243.81467      814.91894      3375         
      2440  -56.290519      0.22404316    -56.066475      0.029520714    192.58592     -432.52152      3375         
      2450  -56.281413      0.22348632    -56.057927      0.029520714    192.10726     -503.9633       3375         
      2460  -56.319075      0.27069872    -56.048376      0.029520714    232.69072      394.94247      3375         
      2470  -56.295275      0.27598414    -56.019291      0.029520714    237.23403      73.997765      3375         
      2480  -56.332344      0.32726847    -56.005075      0.029520714    281.31767     -706.79872      3375         
      2490  -56.197549      0.22294838    -55.9746        0.029520714    191.64486     -429.75269      3375         
      2500  -56.220609      0.25876876    -55.96184       0.029520714    222.4358       769.67483      3375         
      2510  -56.276086      0.34750449    -55.928582      0.029520714    298.71241      1567.8286      3375         
      2520  -56.307234      0.40774212    -55.899492      0.029520714    350.49226     -81.918279      3375         
      2530  -56.163058      0.29122094    -55.871837      0.029520714    250.33147     -2081.6738      3375         
      2540  -56.259137      0.40432725    -55.85481       0.029520714    347.55686     -613.9141       3375         
      2550  -56.137466      0.29399303    -55.843473      0.029520714    252.71434      1263.5999      3375         
      2560  -56.26087       0.44683091    -55.814039      0.029520714    384.09271      228.8485       3375         
      2570  -56.267261      0.44499735    -55.822264      0.029520714    382.5166      -262.08921      3375         
      2580  -56.123567      0.3258672     -55.7977        0.029520714    280.11315      395.33435      3375         
      2590  -56.164756      0.35297236    -55.811783      0.029520714    303.41256      109.6709       3375         
      2600  -56.265888      0.47375514    -55.792133      0.029520714    407.23658      127.75515      3375         
      2610  -56.118608      0.32037402    -55.798234      0.029520714    275.39125     -757.90837      3375         
      2620  -56.167397      0.37043362    -55.796963      0.029520714    318.42214     -1283.2544      3375         
      2630  -56.252755      0.45397788    -55.798777      0.029520714    390.23619      1135.7387      3375         
      2640  -56.072343      0.27799551    -55.794347      0.029520714    238.96299      1799.9456      3375         
      2650  -56.196576      0.4002962     -55.796279      0.029520714    344.0918      -857.52779      3375         
      2660  -56.287188      0.48837548    -55.798813      0.029520714    419.80413     -1106.8828      3375         
      2670  -56.103207      0.30065479    -55.802552      0.029520714    258.44074      198.49283      3375         
      2680  -56.138351      0.33664       -55.801711      0.029520714    289.37337      84.16947       3375         
      2690  -56.321139      0.51196012    -55.809179      0.029520714    440.07732      225.38315      3375         
      2700  -56.168235      0.3613499     -55.806885      0.029520714    310.61384     -21.715821      3375         
      2710  -56.221646      0.3916706     -55.829976      0.029520714    336.67729     -154.94372      3375         
      2720  -56.199331      0.38010335    -55.819227      0.029520714    326.73417      873.52719      3375         
      2730  -56.168403      0.33464434    -55.833759      0.029520714    287.65792      184.04233      3375         
      2740  -56.212847      0.37158317    -55.841264      0.029520714    319.41028     -1563.385       3375         
      2750  -56.284722      0.43461414    -55.850108      0.029520714    373.59126     -463.49328      3375         
      2760  -56.1145        0.25286234    -55.861638      0.029520714    217.35868      955.02389      3375         
      2770  -56.172815      0.30758366    -55.865231      0.029520714    264.39675      603.98848      3375         
      2780  -56.252248      0.37560979    -55.876639      0.029520714    322.87153      46.286456      3375         
      2790  -56.226726      0.34616801    -55.880558      0.029520714    297.56358     -305.63974      3375         
      2800  -56.285549      0.38183301    -55.903716      0.029520714    328.22097     -265.69456      3375         
      2810  -56.228671      0.33110813    -55.897563      0.029520714    284.61822      292.16638      3375         
      2820  -56.145978      0.22963684    -55.916341      0.029520714    197.39421     -75.543476      3375         
      2830  -56.307267      0.38423881    -55.923029      0.029520714    330.28898     -763.54374      3375         
      2840  -56.315236      0.37889977    -55.936337      0.029520714    325.69958      96.633275      3375         
      2850  -56.195084      0.25094332    -55.944141      0.029520714    215.70911      843.59258      3375         
      2860  -56.269301      0.31062418    -55.958677      0.029520714    267.01036      177.7325       3375         
      2870  -56.223092      0.25766745    -55.965424      0.029520714    221.48912     -369.6349       3375         
      2880  -56.181473      0.20714518    -55.974328      0.029520714    178.06054      25.206644      3375         
      2890  -56.358203      0.37162154    -55.986581      0.029520714    319.44326     -70.790717      3375         
      2900  -56.279759      0.28948166    -55.990277      0.029520714    248.8364      -336.86664      3375         
      2910  -56.152403      0.15156182    -56.000841      0.029520714    130.28147      32.578232      3375         
      2920  -56.333977      0.3233449     -56.010632      0.029520714    277.945        244.81704      3375         
      2930  -56.276858      0.2657309     -56.011127      0.029520714    228.42041      102.94715      3375         
      2940  -56.283688      0.26289493    -56.020793      0.029520714    225.98263      340.22777      3375         
      2950  -56.344059      0.31728858    -56.02677       0.029520714    272.73903     -132.77741      3375         
      2960  -56.237947      0.20387557    -56.034072      0.029520714    175.25        -657.20993      3375         
      2970  -56.269346      0.23346082    -56.035885      0.029520714    200.68127      122.89225      3375         
      2980  -56.416826      0.37394777    -56.042879      0.029520714    321.44287      247.74363      3375         
      2990  -56.244803      0.19940843    -56.045395      0.029520714    171.41009     -182.50045      3375         
      3000  -56.271382      0.22186358    -56.049518      0.029520714    190.71237      570.36848      3375         
      3010  -56.382845      0.32759965    -56.055245      0.029520714    281.60235      382.26638      3375         
      3020  -56.250981      0.20306227    -56.047919      0.029520714    174.5509      -882.56936      3375         
      3030  -56.280297      0.22596365    -56.054333      0.029520714    194.23676     -486.4282       3375         
      3040  -56.349306      0.30161729    -56.047689      0.029520714    259.2681       104.15297      3375         
      3050  -56.24668       0.1986546     -56.048025      0.029520714    170.7621       311.48839      3375         
      3060  -56.308672      0.27488017    -56.033792      0.029520714    236.28506      840.88458      3375         
      3070  -56.391041      0.36319869    -56.027842      0.029520714    312.20304      22.59111       3375         
      3080  -56.205632      0.18833952    -56.017292      0.029520714    161.89533     -682.95234      3375         
      3090  -56.276836      0.27570519    -56.001131      0.029520714    236.99424      167.11225      3375         
      3100  -56.387499      0.40153149    -55.985968      0.029520714    345.15364     -297.62593      3375         
      3110  -56.21756       0.2548203     -55.96274       0.029520714    219.04174     -1017.7983      3375         
      3120  -56.283595      0.34399936    -55.939596      0.029520714    295.69943      672.55741      3375         
      3130  -56.297661      0.37754602    -55.920115      0.029520714    324.5359       1265.6708      3375         
      3140  -56.117377      0.22120118    -55.896176      0.029520714    190.14298      25.508919      3375         
      3150  -56.25232       0.37948473    -55.872835      0.029520714    326.2024      -449.71125      3375         
      3160  -56.325459      0.4820238     -55.843435      0.029520714    414.34426     -726.01519      3375         
      3170  -56.071821      0.24300585    -55.828815      0.029520714    208.88612     -417.80133      3375         
      3180  -56.183388      0.38298064    -55.800407      0.029520714    329.20747      804.51259      3375         
      3190  -56.247625      0.45946399    -55.788161      0.029520714    394.95201      183.01841      3375         
      3200  -56.109055      0.33993029    -55.769125      0.029520714    292.20168     -639.15387      3375         
      3210  -56.3097        0.55885655    -55.750844      0.029520714    480.38915      663.79438      3375         
      3220  -56.209591      0.46935995    -55.740231      0.029520714    403.45851      715.99538      3375         
      3230  -56.028478      0.3013418     -55.727136      0.029520714    259.03129     -1048.2743      3375         
      3240  -56.196935      0.46838087    -55.728554      0.029520714    402.6169      -1084.9404      3375         
      3250  -56.289135      0.57707154    -55.712063      0.029520714    496.04663      569.16004      3375         
      3260  -56.105471      0.38212493    -55.723346      0.029520714    328.4719       1028.9524      3375         
      3270  -56.17818       0.47248568    -55.705695      0.029520714    406.14536      368.96829      3375         
      3280  -56.130333      0.41202623    -55.718307      0.029520714    354.17485     -754.44652      3375         
      3290  -56.118336      0.39804998    -55.720286      0.029520714    342.16096     -861.06775      3375         
      3300  -56.183372      0.46287898    -55.720493      0.029520714    397.88752      438.89292      3375         
      3310  -56.245998      0.51902886    -55.726969      0.029520714    446.15356      890.25298      3375         
      3320  -56.067502      0.32966786    -55.737834      0.029520714    283.38017     -722.52242      3375         
      3330  -56.16262       0.41727228    -55.745348      0.029520714    358.68432     -963.576        3375         
      3340  -56.202706      0.44584691    -55.756859      0.029520714    383.24687      1207.7576      3375         
      3350  -56.141898      0.37073013    -55.771168      0.029520714    318.67701      1030.1346      3375         
      3360  -56.304836      0.52448397    -55.780352      0.029520714    450.84273     -768.76742      3375         
      3370  -56.129697      0.32907159    -55.800625      0.029520714    282.86762     -1023.1184      3375         
      3380  -56.212065      0.38780743    -55.824258      0.029520714    333.35654     -230.38942      3375         
      3390  -56.16767       0.33908498    -55.828585      0.029520714    291.47506      647.29385      3375         
      3400  -56.282159      0.42761006    -55.854549      0.029520714    367.5706       842.0295       3375         
      3410  -56.206494      0.32947275    -55.877021      0.029520714    283.21245     -870.66272      3375         
      3420  -56.187626      0.29276536    -55.89486       0.029520714    251.65905     -609.44692      3375         
      3430  -56.176918      0.26309672    -55.913821      0.029520714    226.15609      1565.1864      3375         
      3440  -56.315653      0.38572116    -55.929932      0.029520714    331.5632       368.60778      3375         
      3450  -56.241043      0.29149022    -55.949553      0.029520714    250.56294     -1600.4467      3375         
      3460  -56.19839       0.23932429    -55.959066      0.029520714    205.72148     -551.05213      3375         
      3470  -56.331722      0.34097533    -55.990747      0.029520714    293.09999      579.11833      3375         
      3480  -56.248874      0.27574449    -55.97313       0.029520714    237.02802      700.11901      3375         
      3490  -56.317712      0.30954429    -56.008168      0.029520714    266.08209      584.14074      3375         
      3500  -56.295577      0.29154166    -56.004036      0.029520714    250.60716     -827.9023       3375         
      3510  -56.247238      0.22479387    -56.022444      0.029520714    193.23123     -650.21247      3375         
      3520  -56.276764      0.2558892     -56.020875      0.029520714    219.96055      1020.0982      3375         
      3530  -56.401908      0.37171305    -56.030195      0.029520714    319.52192     -157.96881      3375         
      3540  -56.227641      0.19432235    -56.033318      0.029520714    167.03813     -1198.985       3375         
      3550  -56.281458      0.24637116    -56.035087      0.029520714    211.77892      657.91741      3375         
      3560  -56.29855       0.25511195    -56.043438      0.029520714    219.29244      1126.1013      3375         
      3570  -56.284679      0.25934395    -56.025335      0.029520714    222.93023     -115.28406      3375         
      3580  -56.328322      0.29140148    -56.036921      0.029520714    250.48666     -608.91578      3375         
      3590  -56.287813      0.2627352     -56.025078      0.029520714    225.84533     -929.18033      3375         
      3600  -56.224022      0.19732513    -56.026697      0.029520714    169.61929     -131.1206       3375         
      3610  -56.322804      0.30480436    -56.017999      0.029520714    262.00768      1352.8789      3375         
      3620  -56.322759      0.31075144    -56.012007      0.029520714    267.11975      370.9878       3375         
      3630  -56.291733      0.28469717    -56.007035      0.029520714    244.72369     -647.66102      3375         
      3640  -56.34047       0.3395624     -56.000908      0.029520714    291.88545      175.23986      3375         
      3650  -56.230085      0.23318859    -55.996897      0.029520714    200.44727     -65.313831      3375         
      3660  -56.219477      0.23222587    -55.987252      0.029520714    199.61973     -886.59746      3375         
      3670  -56.363025      0.37610908    -55.986916      0.029520714    323.30072     -186.85924      3375         
      3680  -56.295403      0.31451862    -55.980885      0.029520714    270.35799      674.06121      3375         
      3690  -56.178868      0.20601788    -55.97285       0.029520714    177.09152      697.87577      3375         
      3700  -56.266832      0.29144099    -55.975391      0.029520714    250.52062      346.11225      3375         
      3710  -56.248711      0.28596502    -55.962746      0.029520714    245.81352     -561.72594      3375         
      3720  -56.241274      0.27524028    -55.966034      0.029520714    236.5946      -867.66309      3375         
      3730  -56.335585      0.38340618    -55.952178      0.029520714    329.57325      27.50117       3375         
      3740  -56.225139      0.27493485    -55.950204      0.029520714    236.33206      408.32302      3375         
      3750  -56.177006      0.23094119    -55.946065      0.029520714    198.51542      58.212078      3375         
      3760  -56.3272        0.38860908    -55.938591      0.029520714    334.04563      412.85033      3375         
      3770  -56.279767      0.34839865    -55.931369      0.029520714    299.48103      329.33257      3375         
      3780  -56.232664      0.31006725    -55.922597      0.029520714    266.53163     -817.29816      3375         
      3790  -56.262154      0.34157484    -55.920579      0.029520714    293.61533     -470.64543      3375         
      3800  -56.201948      0.29197955    -55.909969      0.029520714    250.98357      592.35182      3375         
      3810  -56.189019      0.28277127    -55.906247      0.029520714    243.0682       152.75013      3375         
      3820  -56.304612      0.41048666    -55.894126      0.029520714    352.85145     -118.1283       3375         
      3830  -56.156121      0.27132434    -55.884796      0.029520714    233.2285       122.01478      3375         
      3840  -56.224446      0.3394887     -55.884958      0.029520714    291.8221      -198.87346      3375         
      3850  -56.215657      0.35037168    -55.865285      0.029520714    301.17703      181.16461      3375         
      3860  -56.179781      0.32066642    -55.859114      0.029520714    275.6426       442.70319      3375         
      3870  -56.184623      0.33664044    -55.847982      0.029520714    289.37375     -938.66773      3375         
      3880  -56.249773      0.41316952    -55.836603      0.029520714    355.15761     -409.33559      3375         
      3890  -56.12975       0.30022653    -55.829523      0.029520714    258.07261      1071.0449      3375         
      3900  -56.221296      0.41027944    -55.811017      0.029520714    352.67332      121.57448      3375         
      3910  -56.303959      0.4984897     -55.805469      0.029520714    428.49824     -540.52586      3375         
      3920  -56.082771      0.29761067    -55.78516       0.029520714    255.82404      292.92259      3375         
      3930  -56.172387      0.37574671    -55.79664       0.029520714    322.98922      148.57725      3375         
      3940  -56.190963      0.42846053    -55.762503      0.029520714    368.30165      14.252758      3375         
      3950  -56.224142      0.45483574    -55.769306      0.029520714    390.9736      -389.89982      3375         
      3960  -56.095127      0.34478754    -55.750339      0.029520714    296.37694     -1222.6755      3375         
      3970  -56.160046      0.40520983    -55.754836      0.029520714    348.31552      600.95764      3375         
      3980  -56.025018      0.2832623     -55.741755      0.029520714    243.49028      2035.6222      3375         
      3990  -56.272883      0.53910607    -55.733777      0.029520714    463.41178     -61.474401      3375         
      4000  -56.146835      0.41162203    -55.735213      0.029520714    353.8274      -1459.0298      3375         
      4010  -56.144149      0.42523715    -55.718912      0.029520714    365.53086     -432.15112      3375         
      4020  -56.097798      0.35444729    -55.743351      0.029520714    304.6804       158.33945      3375         
      4030  -56.161256      0.46264907    -55.698606      0.029520714    397.68988      212.46991      3375         
      4040  -56.233072      0.49994258    -55.73313       0.029520714    429.74713      41.019345      3375         
      4050  -56.197564      0.48871199    -55.708852      0.029520714    420.09339      109.30796      3375         
      4060  -56.111565      0.37418917    -55.737375      0.029520714    321.65038      879.13843      3375         
      4070  -56.084609      0.35707844    -55.727531      0.029520714    306.94211      343.48145      3375         
      4080  -56.202631      0.45254051    -55.75009       0.029520714    389.00064     -1671.5513      3375         
      4090  -56.125772      0.36971626    -55.756056      0.029520714    317.8055      -1249.543       3375         
      4100  -56.264962      0.47646823    -55.788494      0.029520714    409.56874      1318.4495      3375         
      4110  -56.156672      0.35437981    -55.802292      0.029520714    304.62239      1698.514       3375         
      4120  -56.113437      0.29686863    -55.816568      0.029520714    255.18618     -228.32029      3375         
      4130  -56.196344      0.34967279    -55.846671      0.029520714    300.57627     -1069.5694      3375         
      4140  -56.347987      0.47273115    -55.875256      0.029520714    406.35637     -415.65757      3375         
      4150  -56.156773      0.26430083    -55.892472      0.029520714    227.19113      17.115261      3375         
      4160  -56.279615      0.35270927    -55.926906      0.029520714    303.18641      80.224689      3375         
      4170  -56.23619       0.29507572    -55.941114      0.029520714    253.64501      38.772972      3375         
      4180  -56.272815      0.30799319    -55.964822      0.029520714    264.74878      589.25307      3375         
      4190  -56.296229      0.31263157    -55.983598      0.029520714    268.7359       959.24636      3375         
      4200  -56.362925      0.36550445    -55.997421      0.029520714    314.18505     -389.61304      3375         
      4210  -56.187054      0.17362229    -56.013431      0.029520714    149.2445      -1799.6011      3375         
      4220  -56.304838      0.28507845    -56.019759      0.029520714    245.05143     -445.38854      3375         
      4230  -56.337964      0.30089379    -56.03707       0.029520714    258.64618      1398.7761      3375         
      4240  -56.270554      0.24248899    -56.028065      0.029520714    208.44183      749.62151      3375         
      4250  -56.293209      0.24570117    -56.047508      0.029520714    211.20299     -458.80781      3375         
      4260  -56.31883       0.28090295    -56.037927      0.029520714    241.4622      -463.9938       3375         
      4270  -56.258608      0.20446686    -56.054141      0.029520714    175.75827      120.42055      3375         
      4280  -56.321111      0.28650601    -56.034605      0.029520714    246.27855      473.83084      3375         
      4290  -56.351939      0.30539934    -56.046539      0.029520714    262.51912     -455.4613       3375         
      4300  -56.238493      0.20087354    -56.037619      0.029520714    172.66948     -827.85252      3375         
      4310  -56.361925      0.32141321    -56.040511      0.029520714    276.28454      864.10724      3375         
      4320  -56.325471      0.29544193    -56.030029      0.029520714    253.9598       993.6977       3375         
      4330  -56.291826      0.26852402    -56.023302      0.029520714    230.82136     -1014.2705      3375         
      4340  -56.2809        0.26307942    -56.017821      0.029520714    226.14122     -872.04706      3375         
      4350  -56.322945      0.31283843    -56.010106      0.029520714    268.91371      672.40829      3375         
      4360  -56.204622      0.20651857    -55.998103      0.029520714    177.52191      898.71659      3375         
      4370  -56.35712       0.37507478    -55.982045      0.029520714    322.41164      54.235673      3375         
      4380  -56.221679      0.25428445    -55.967395      0.029520714    218.58112     -1282.1738      3375         
      4390  -56.206875      0.24380626    -55.963069      0.029520714    209.57414     -624.28234      3375         
      4400  -56.225925      0.29128247    -55.934642      0.029520714    250.38436      1621.637       3375         
      4410  -56.365254      0.4513801     -55.913874      0.029520714    388.00315      756.73592      3375         
      4420  -56.166228      0.26898513    -55.897243      0.029520714    231.21772     -1386.4677      3375         
      4430  -56.264532      0.39953659    -55.864996      0.029520714    343.43884     -668.64912      3375         
      4440  -56.188268      0.32266625    -55.865602      0.029520714    277.36163      672.24052      3375         
      4450  -56.190142      0.37212354    -55.818018      0.029520714    319.87477      395.57187      3375         
      4460  -56.293094      0.47367169    -55.819422      0.029520714    407.16486     -360.66078      3375         
      4470  -56.212105      0.4301336     -55.781971      0.029520714    369.73982     -280.00012      3375         
      4480  -56.102362      0.30724629    -55.795116      0.029520714    264.10675      981.83089      3375         
      4490  -56.105986      0.34772038    -55.758266      0.029520714    298.89799      1057.4423      3375         
      4500  -56.221367      0.45222722    -55.76914       0.029520714    388.73133     -1483.6722      3375         
      4510  -56.111122      0.36149924    -55.749623      0.029520714    310.7422      -2268.4945      3375         
      4520  -56.250836      0.49059382    -55.760242      0.029520714    421.71099      469.78189      3375         
      4530  -56.043246      0.2982497     -55.744997      0.029520714    256.37335      2444.3635      3375         
      4540  -56.120356      0.36901951    -55.751337      0.029520714    317.20657      1112.8242      3375         
      4550  -56.177937      0.43077015    -55.747167      0.029520714    370.28699     -1189.0038      3375         
      4560  -56.26654       0.51370028    -55.75284       0.029520714    441.57314     -1194.5321      3375         
      4570  -56.103013      0.34634837    -55.756665      0.029520714    297.71862      98.409817      3375         
      4580  -56.216426      0.46577814    -55.750648      0.029520714    400.37961      8.1029553      3375         
      4590  -56.090437      0.32279435    -55.767643      0.029520714    277.47176     -754.84141      3375         
      4600  -56.200943      0.43643439    -55.764509      0.029520714    375.15593      625.51976      3375         
      4610  -56.20163       0.41886545    -55.782765      0.029520714    360.0538       1710.2527      3375         
      4620  -56.262171      0.48737425    -55.774796      0.029520714    418.94348      257.548        3375         
      4630  -56.045995      0.24755593    -55.798439      0.029520714    212.79733     -1576.3527      3375         
      4640  -56.162408      0.36958031    -55.792827      0.029520714    317.68863     -1388.0654      3375         
      4650  -56.226776      0.41130694    -55.815469      0.029520714    353.55655      541.96661      3375         
      4660  -56.179537      0.37472176    -55.804815      0.029520714    322.10819      1561.8801      3375         
      4670  -56.149138      0.32050717    -55.828631      0.029520714    275.50571      191.06602      3375         
      4680  -56.241213      0.41867802    -55.822535      0.029520714    359.89268     -643.203        3375         
      4690  -56.19618       0.34370318    -55.852476      0.029520714    295.44483     -35.212822      3375         
      4700  -56.182915      0.35059669    -55.832319      0.029520714    301.37044     -172.86384      3375         
      4710  -56.301566      0.43703312    -55.864533      0.029520714    375.67059     -549.34712      3375         
      4720  -56.139504      0.28188826    -55.857616      0.029520714    242.30916     -127.51252      3375         
      4730  -56.272457      0.39242344    -55.880033      0.029520714    337.32443      777.97885      3375         
      4740  -56.276844      0.39403305    -55.882811      0.029520714    338.70804      1118.8186      3375         
      4750  -56.215524      0.32272744    -55.892797      0.029520714    277.41424     -424.06417      3375         
      4760  -56.129739      0.22659918    -55.90314       0.029520714    194.78306     -1493.821       3375         
      4770  -56.333421      0.42089885    -55.912522      0.029520714    361.80169     -75.145925      3375         
      4780  -56.190904      0.2686686     -55.922236      0.029520714    230.94564      873.06782      3375         
      4790  -56.292427      0.36833578    -55.924092      0.029520714    316.61884      215.44253      3375         
      4800  -56.20627       0.26830718    -55.937962      0.029520714    230.63497     -299.92594      3375         
      4810  -56.207393      0.26340407    -55.943989      0.029520714    226.42028     -230.24883      3375         
      4820  -56.246131      0.29621378    -55.949917      0.029520714    254.62328      393.26713      3375         
      4830  -56.408479      0.45763612    -55.950843      0.029520714    393.38079      453.33307      3375         
      4840  -56.222649      0.25206762    -55.970582      0.029520714    216.67555     -718.65356      3375         
      4850  -56.221747      0.25455489    -55.967192      0.029520714    218.8136      -323.03228      3375         
      4860  -56.251359      0.2623152     -55.989044      0.029520714    225.4843       895.08006      3375         
      4870  -56.310696      0.33467062    -55.976025      0.029520714    287.68051     -168.44548      3375         
      4880  -56.337223      0.33562004    -56.001603      0.029520714    288.49663     -1043.1291      3375         
      4890  -56.28421       0.28449959    -55.999711      0.029520714    244.55384      80.528971      3375         
      4900  -56.220025      0.19335489    -56.02667       0.029520714    166.2065       990.09537      3375         
      4910  -56.236262      0.2227095     -56.013553      0.029520714    191.43952      901.45746      3375         
      4920  -56.366216      0.32745985    -56.038756      0.029520714    281.48218     -578.56606      3375         
      4930  -56.298308      0.25530298    -56.043005      0.029520714    219.45665     -1666.9861      3375         
      4940  -56.316127      0.25189351    -56.064234      0.029520714    216.52589      134.04705      3375         
      4950  -56.250965      0.18609616    -56.064869      0.029520714    159.96695      1270.9033      3375         
      4960  -56.32386       0.24776394    -56.076097      0.029520714    212.97614     -114.2327       3375         
      4970  -56.327623      0.23902521    -56.088598      0.029520714    205.46439     -246.5591       3375         
      4980  -56.41558       0.31720662    -56.098374      0.029520714    272.66858      388.95154      3375         
      4990  -56.286656      0.17707107    -56.109585      0.029520714    152.20905     -167.5884       3375         
      5000  -56.355888      0.24393443    -56.111953      0.029520714    209.68432     -501.74411      3375         
      5010  -56.3214        0.20245901    -56.118941      0.029520714    174.03234     -619.29638      3375         
      5020  -56.372852      0.24532518    -56.127527      0.029520714    210.8798       336.45417      3375         
      5030  -56.334272      0.20572358    -56.128548      0.029520714    176.83854      1708.3376      3375         
      5040  -56.372446      0.2443274     -56.128118      0.029520714    210.02212      232.88657      3375         
      5050  -56.285587      0.15329469    -56.132292      0.029520714    131.77104     -1810.2637      3375         
      5060  -56.341181      0.21243853    -56.128742      0.029520714    182.61066     -772.1421       3375         
      5070  -56.350106      0.21707021    -56.133036      0.029520714    186.59203      704.28444      3375         
      5080  -56.34433       0.23271273    -56.111617      0.029520714    200.03822      655.65173      3375         
      5090  -56.325631      0.2054938     -56.120137      0.029520714    176.64102      273.66125      3375         
      5100  -56.351091      0.25738655    -56.093705      0.029520714    221.24767     -186.62025      3375         
      5110  -56.346286      0.24811818    -56.098168      0.029520714    213.28064      86.73227       3375         
      5120  -56.295392      0.23258508    -56.062807      0.029520714    199.9285       260.68711      3375         
      5130  -56.338067      0.28021167    -56.057855      0.029520714    240.86798     -1097.6239      3375         
      5140  -56.291676      0.26125601    -56.03042       0.029520714    224.57383     -1071.3435      3375         
      5150  -56.372811      0.35892621    -56.013885      0.029520714    308.53044      1232.9259      3375         
      5160  -56.23455       0.24622495    -55.988325      0.029520714    211.65323      1697.9508      3375         
      5170  -56.241889      0.27899423    -55.962895      0.029520714    239.82147     -409.43173      3375         
      5180  -56.243348      0.29207806    -55.95127       0.029520714    251.06824     -1518.6811      3375         
      5190  -56.286291      0.35886552    -55.927425      0.029520714    308.47828     -287.03371      3375         
      5200  -56.175445      0.26527092    -55.910174      0.029520714    228.02501      870.78151      3375         
      5210  -56.32425       0.43646936    -55.88778       0.029520714    375.18599      362.07085      3375         
      5220  -56.0644        0.18554826    -55.878851      0.029520714    159.49598     -534.0052       3375         
      5230  -56.249171      0.38310595    -55.866065      0.029520714    329.31518     -88.041605      3375         
      5240  -56.278645      0.4232956     -55.85535       0.029520714    363.86192      699.22886      3375         
      5250  -56.248339      0.41689377    -55.831445      0.029520714    358.35895      235.02761      3375         
      5260  -56.153054      0.31896132    -55.834093      0.029520714    274.1769      -1190.1386      3375         
      5270  -56.166604      0.3465122     -55.820092      0.029520714    297.85945     -745.32908      3375         
      5280  -56.115852      0.29317219    -55.82268       0.029520714    252.00875      1406.2761      3375         
      5290  -56.286985      0.48033306    -55.806652      0.029520714    412.89092      1019.6963      3375         
      5300  -56.226442      0.41766165    -55.80878       0.029520714    359.01902     -1098.5765      3375         
      5310  -56.084998      0.28595479    -55.799043      0.029520714    245.80472     -768.66873      3375         
      5320  -56.192594      0.37850199    -55.814092      0.029520714    325.35765      585.58126      3375         
      5330  -56.072955      0.28616951    -55.786786      0.029520714    245.9893       534.61108      3375         
      5340  -56.218769      0.4165583     -55.80221       0.029520714    358.07058      47.337212      3375         
      5350  -56.242212      0.45669221    -55.78552       0.029520714    392.56941     -1024.184       3375         
      5360  -56.180016      0.37927853    -55.800737      0.029520714    326.02516     -459.02236      3375         
      5370  -56.043723      0.25479745    -55.788926      0.029520714    219.0221       1527.2643      3375         
      5380  -56.272319      0.47966231    -55.792657      0.029520714    412.31434      546.84269      3375         
      5390  -56.174867      0.37591487    -55.798952      0.029520714    323.13378     -1242.9493      3375         
      5400  -56.208548      0.41334579    -55.795202      0.029520714    355.30913     -19.068971      3375         
      5410  -56.226747      0.4079541     -55.818793      0.029520714    350.67447      611.38128      3375         
      5420  -56.180496      0.38285479    -55.797642      0.029520714    329.09928     -476.74972      3375         
      5430  -56.078313      0.25155515    -55.826758      0.029520714    216.23504     -537.06078      3375         
      5440  -56.224614      0.40750534    -55.817109      0.029520714    350.28872     -120.99493      3375         
      5450  -56.257815      0.41340047    -55.844414      0.029520714    355.35613      825.57465      3375         
      5460  -56.197452      0.35857075    -55.838881      0.029520714    308.22489      1376.1095      3375         
      5470  -56.126575      0.26606282    -55.860512      0.029520714    228.70573     -733.54617      3375         
      5480  -56.187693      0.32038001    -55.867313      0.029520714    275.3964      -1689.3883      3375         
      5490  -56.281432      0.39607902    -55.885353      0.029520714    340.46674      288.55488      3375         
      5500  -56.256937      0.35650529    -55.900432      0.029520714    306.44944      745.14979      3375         
      5510  -56.236725      0.31637884    -55.920346      0.029520714    271.95703     -209.20864      3375         
      5520  -56.22178       0.28505213    -55.936728      0.029520714    245.02881      293.12428      3375         
      5530  -56.272573      0.31164634    -55.960926      0.029520714    267.889        500.82435      3375         
      5540  -56.280134      0.30572904    -55.974405      0.029520714    262.80253     -244.56216      3375         
      5550  -56.322853      0.32086088    -56.001992      0.029520714    275.80975     -614.02808      3375         
      5560  -56.245058      0.23390853    -56.011149      0.029520714    201.06613     -745.85757      3375         
      5570  -56.31646       0.27482392    -56.041636      0.029520714    236.23671      308.22093      3375         
      5580  -56.287016      0.24250557    -56.044511      0.029520714    208.45609      1429.9667      3375         
      5590  -56.321338      0.25878488    -56.062553      0.029520714    222.44966      284.59941      3375         
      5600  -56.25594       0.18275087    -56.073189      0.029520714    157.09137     -1069.3425      3375         
      5610  -56.370502      0.28739459    -56.083108      0.029520714    247.04237     -423.26861      3375         
      5620  -56.320526      0.2277421     -56.092784      0.029520714    195.76551      202.13824      3375         
      5630  -56.348711      0.2572708     -56.091441      0.029520714    221.14817     -183.33148      3375         
      5640  -56.300465      0.19485534    -56.10561       0.029520714    167.49628      12.620822      3375         
      5650  -56.316597      0.21880405    -56.097793      0.029520714    188.08242      718.27806      3375         
      5660  -56.366612      0.25680057    -56.109811      0.029520714    220.74396      503.2278       3375         
      5670  -56.407409      0.31177173    -56.095637      0.029520714    267.99679     -282.01638      3375         
      5680  -56.29605       0.19409093    -56.101959      0.029520714    166.8392      -919.31123      3375         
      5690  -56.267937      0.16987878    -56.098059      0.029520714    146.0266      -651.34504      3375         
      5700  -56.350021      0.25554919    -56.094471      0.029520714    219.66829      767.97836      3375         
      5710  -56.36067       0.27781799    -56.082852      0.029520714    238.81039      1059.611       3375         
      5720  -56.32121       0.2483882     -56.072821      0.029520714    213.51275     -648.86498      3375         
      5730  -56.290278      0.22750671    -56.062771      0.029520714    195.56317     -700.31954      3375         
      5740  -56.218215      0.16373665    -56.054478      0.029520714    140.74688      827.27473      3375         
      5750  -56.279299      0.24920227    -56.030097      0.029520714    214.21252      261.55462      3375         
      5760  -56.403019      0.390462      -56.012557      0.029520714    335.63839     -725.348        3375         
      5770  -56.228804      0.25863867    -55.970165      0.029520714    222.32398     -326.95224      3375         
      5780  -56.256226      0.29578515    -55.960441      0.029520714    254.25483      223.69832      3375         
      5790  -56.182631      0.26371004    -55.918921      0.029520714    226.6833       913.7873       3375         
      5800  -56.284975      0.38468838    -55.900287      0.029520714    330.67542      234.99479      3375         
      5810  -56.249126      0.38424186    -55.864884      0.029520714    330.2916      -1641.6607      3375         
      5820  -56.265672      0.41633246    -55.84934       0.029520714    357.87645     -302.39095      3375         
      5830  -55.992215      0.15361238    -55.838603      0.029520714    132.04412      1929.2129      3375         
      5840  -56.241531      0.42343456    -55.818096      0.029520714    363.98137      49.470065      3375         
      5850  -56.22377       0.39910338    -55.824667      0.029520714    343.06646     -1496.2613      3375         
      5860  -56.132879      0.33399334    -55.798886      0.029520714    287.09833     -36.974824      3375         
      5870  -56.174375      0.34747962    -55.826895      0.029520714    298.69104      780.37207      3375         
      5880  -56.183138      0.40084257    -55.782296      0.029520714    344.56145      753.93235      3375         
      5890  -56.115934      0.30389639    -55.812037      0.029520714    261.2272      -230.73164      3375         
      5900  -56.216494      0.42907886    -55.787415      0.029520714    368.83317     -1578.7977      3375         
      5910  -56.23866       0.43255575    -55.806104      0.029520714    371.82188      22.475201      3375         
      5920  -56.041168      0.25032037    -55.790847      0.029520714    215.17363      1671.0952      3375         
      5930  -56.255022      0.45511828    -55.799904      0.029520714    391.21647     -309.3131       3375         
      5940  -56.202862      0.4004013     -55.802461      0.029520714    344.18214     -945.0583       3375         
      5950  -56.1647        0.36048703    -55.804213      0.029520714    309.87212      709.23916      3375         
      5960  -56.164827      0.34574005    -55.819086      0.029520714    297.19572      526.61507      3375         
      5970  -56.189275      0.38564195    -55.803633      0.029520714    331.49511     -443.29602      3375         
      5980  -56.178589      0.35370797    -55.824881      0.029520714    304.04488     -886.32489      3375         
      5990  -56.270172      0.44592329    -55.824249      0.029520714    383.31253     -555.0886       3375         
      6000  -56.105509      0.2729856     -55.832523      0.029520714    234.6565       974.06134      3375         
      6010  -56.159176      0.3242193     -55.834956      0.029520714    278.69663      1445.6424      3375         
      6020  -56.240001      0.39740845    -55.842593      0.029520714    341.60951     -488.10505      3375         
      6030  -56.205841      0.35657876    -55.849262      0.029520714    306.51259     -1205.017       3375         
      6040  -56.217038      0.35657017    -55.860468      0.029520714    306.50521      109.88705      3375         
      6050  -56.263545      0.39675932    -55.866785      0.029520714    341.05152      350.77956      3375         
      6060  -56.150572      0.27701877    -55.873554      0.029520714    238.12339     -372.17747      3375         
      6070  -56.22106       0.33713188    -55.883928      0.029520714    289.79619      96.982393      3375         
      6080  -56.381747      0.48234466    -55.899402      0.029520714    414.62007      751.19577      3375         
      6090  -56.229487      0.32920233    -55.900284      0.029520714    282.98001      42.429166      3375         
      6100  -56.144537      0.22239655    -55.92214       0.029520714    191.17051     -443.53376      3375         
      6110  -56.249018      0.33013307    -55.918885      0.029520714    283.78006     -585.36924      3375         
      6120  -56.247636      0.30927578    -55.93836       0.029520714    265.85128     -278.07181      3375         
      6130  -56.270589      0.3322462     -55.938342      0.029520714    285.5965       858.83258      3375         
      6140  -56.321456      0.36732715    -55.954129      0.029520714    315.75184      647.28337      3375         
      6150  -56.182541      0.2210618     -55.961479      0.029520714    190.02317     -599.63042      3375         
      6160  -56.216817      0.24824069    -55.968577      0.029520714    213.38595     -71.093918      3375         
      6170  -56.333163      0.35724941    -55.975913      0.029520714    307.08908      165.23073      3375         
      6180  -56.310879      0.33063271    -55.980246      0.029520714    284.20955     -904.70468      3375         
      6190  -56.296506      0.30269366    -55.993812      0.029520714    260.19334     -59.471798      3375         
      6200  -56.306628      0.30792223    -55.998705      0.029520714    264.68778      1028.5338      3375         
      6210  -56.223634      0.21915606    -56.004478      0.029520714    188.385        244.78147      3375         
      6220  -56.359743      0.3501451     -56.009598      0.029520714    300.98226     -109.80459      3375         
      6230  -56.316596      0.30255426    -56.014041      0.029520714    260.07351     -465.24871      3375         
      6240  -56.255458      0.2273967     -56.028061      0.029520714    195.4686      -675.21817      3375         
      6250  -56.257832      0.23575395    -56.022078      0.029520714    202.65244      667.37958      3375         
      6260  -56.354157      0.3242656     -56.029892      0.029520714    278.73643      419.98643      3375         
      6270  -56.218507      0.18640374    -56.032103      0.029520714    160.23134     -939.65394      3375         
      6280  -56.343604      0.31006648    -56.033537      0.029520714    266.53097      307.34995      3375         
      6290  -56.315406      0.27507028    -56.040336      0.029520714    236.44848      977.27289      3375         
      6300  -56.253965      0.2285265     -56.025439      0.029520714    196.43978     -544.86717      3375         
      6310  -56.294514      0.25578555    -56.038728      0.029520714    219.87146     -569.25666      3375         
      6320  -56.351562      0.33411824    -56.017444      0.029520714    287.20569      153.43393      3375         
      6330  -56.304188      0.27325704    -56.030931      0.029520714    234.88983      283.10982      3375         
      6340  -56.291606      0.29465099    -55.996955      0.029520714    253.27992      529.28614      3375         
      6350  -56.299543      0.29721       -56.002333      0.029520714    255.47962     -658.78011      3375         
      6360  -56.263353      0.28019272    -55.98316       0.029520714    240.85169     -1020.3466      3375         
[...]
     48420  -56.281727      0.31246158    -55.969265      0.029520714    268.58978      1067.1794      3375         
     48430  -56.308786      0.33197397    -55.976812      0.029520714    285.36249      1594.3597      3375         
     48440  -56.267843      0.27510374    -55.992739      0.029520714    236.47724     -104.15476      3375         
     48450  -56.289856      0.28172004    -56.008136      0.029520714    242.16456     -1145.5558      3375         
     48460  -56.28346       0.25973255    -56.023727      0.029520714    223.26427     -405.84093      3375         
     48470  -56.201185      0.16741387    -56.033771      0.029520714    143.90778      121.9375       3375         
     48480  -56.35372       0.31237094    -56.041349      0.029520714    268.51186     -237.65951      3375         
     48490  -56.321604      0.25888729    -56.062717      0.029520714    222.53769      23.07051       3375         
     48500  -56.263298      0.19374594    -56.069552      0.029520714    166.54264      1060.2933      3375         
     48510  -56.36576       0.27622549    -56.089534      0.029520714    237.44149      823.5522       3375         
     48520  -56.354515      0.2576562     -56.096859      0.029520714    221.47945     -669.33782      3375         
     48530  -56.237256      0.1264841     -56.110772      0.029520714    108.72484     -1586.3855      3375         
     48540  -56.397895      0.27653266    -56.121362      0.029520714    237.70553     -665.66586      3375         
     48550  -56.3589        0.2236314     -56.135269      0.029520714    192.23197      1385.5223      3375         
     48560  -56.318853      0.17808051    -56.140773      0.029520714    153.07676      1548.0649      3375         
     48570  -56.3897        0.23615879    -56.153541      0.029520714    203.00043     -482.77799      3375         
     48580  -56.355983      0.19532759    -56.160656      0.029520714    167.90223     -1129.2775      3375         
     48590  -56.315618      0.14510645    -56.170512      0.029520714    124.73248     -9.3514919      3375         
     48600  -56.380214      0.20812707    -56.172087      0.029520714    178.90457      108.27572      3375         
     48610  -56.371197      0.19152842    -56.179669      0.029520714    164.63648     -283.41643      3375         
     48620  -56.321167      0.14091479    -56.180252      0.029520714    121.12936      81.433462      3375         
     48630  -56.448317      0.25949423    -56.188823      0.029520714    223.05942      693.96497      3375         
     48640  -56.317244      0.13439183    -56.182852      0.029520714    115.52227      784.10395      3375         
     48650  -56.367653      0.18512351    -56.18253       0.029520714    159.13087     -360.12142      3375         
     48660  -56.394841      0.2139609     -56.18088       0.029520714    183.91928     -1573.4008      3375         
     48670  -56.368166      0.19295897    -56.175207      0.029520714    165.86617     -466.51249      3375         
     48680  -56.340417      0.17423177    -56.166185      0.029520714    149.7684       1399.5938      3375         
     48690  -56.407416      0.25401004    -56.153406      0.029520714    218.34524      808.83996      3375         
     48700  -56.31122       0.17459638    -56.136624      0.029520714    150.08182     -669.19874      3375         
     48710  -56.355259      0.23743659    -56.117822      0.029520714    204.09882     -577.93878      3375         
     48720  -56.372597      0.27488855    -56.097709      0.029520714    236.29226      261.0395       3375         
     48730  -56.274271      0.2152185     -56.059053      0.029520714    185.00031      490.03683      3375         
     48740  -56.279522      0.23287744    -56.046644      0.029520714    200.17981     -321.85089      3375         
     48750  -56.279533      0.26080228    -56.01873       0.029520714    224.18381     -717.9222       3375         
     48760  -56.330499      0.3307268     -55.999773      0.029520714    284.29043      401.55184      3375         
     48770  -56.241052      0.27169154    -55.96936       0.029520714    233.54414      975.51676      3375         
     48780  -56.282715      0.32540188    -55.957313      0.029520714    279.71317     -388.55487      3375         
     48790  -56.269216      0.3326129     -55.936603      0.029520714    285.91171     -886.40774      3375         
     48800  -56.212905      0.28769204    -55.925213      0.029520714    247.29805      104.23281      3375         
     48810  -56.211585      0.30058555    -55.911         0.029520714    258.38123      808.47193      3375         
     48820  -56.334213      0.44004031    -55.894172      0.029520714    378.25555      216.77594      3375         
     48830  -56.197962      0.3156273     -55.882335      0.029520714    271.31101     -912.66381      3375         
     48840  -56.141519      0.26627828    -55.875241      0.029520714    228.89094     -530.74901      3375         
     48850  -56.30126       0.43946184    -55.861798      0.029520714    377.7583       824.57792      3375         
     48860  -56.174731      0.32655223    -55.848179      0.029520714    280.702        942.94756      3375         
     48870  -56.234979      0.39500132    -55.839978      0.029520714    339.54035     -412.58705      3375         
     48880  -56.224711      0.39515305    -55.829558      0.029520714    339.67078     -1048.7796      3375         
     48890  -56.060622      0.23720023    -55.823421      0.029520714    203.89565     -267.8037       3375         
     48900  -56.263775      0.45580171    -55.807973      0.029520714    391.80395      639.67093      3375         
     48910  -56.284488      0.48214949    -55.802339      0.029520714    414.45231      366.63439      3375         
     48920  -56.098996      0.30751741    -55.791479      0.029520714    264.3398       43.93649       3375         
     48930  -56.198666      0.41002241    -55.788644      0.029520714    352.45238      412.62424      3375         
     48940  -56.2771        0.49745589    -55.779644      0.029520714    427.60958      34.470283      3375         
     48950  -56.111331      0.33891537    -55.772416      0.029520714    291.32927     -870.54343      3375         
     48960  -56.194016      0.4251198     -55.768896      0.029520714    365.42999     -1051.0914      3375         
     48970  -56.197418      0.4263301     -55.771088      0.029520714    366.47036     -125.15164      3375         
     48980  -56.150619      0.39239087    -55.758228      0.029520714    337.29643      1331.641       3375         
     48990  -56.210002      0.44584486    -55.764158      0.029520714    383.2451       1551.0003      3375         
     49000  -56.202646      0.4409987     -55.761647      0.029520714    379.07938     -348.56687      3375         
     49010  -56.129372      0.36237148    -55.767         0.029520714    311.49198     -1387.4852      3375         
     49020  -56.124384      0.35721895    -55.767165      0.029520714    307.0629      -623.1972       3375         
     49030  -56.205672      0.4356473     -55.770024      0.029520714    374.47935     -377.57631      3375         
     49040  -56.189834      0.4131486     -55.776686      0.029520714    355.13963      370.83972      3375         
     49050  -56.154344      0.37160448    -55.782739      0.029520714    319.42859      1482.7801      3375         
     49060  -56.213472      0.42007955    -55.793393      0.029520714    361.09742      585.20081      3375         
     49070  -56.235997      0.4350482     -55.800949      0.029520714    373.96437     -742.23368      3375         
     49080  -56.093581      0.27861116    -55.81497       0.029520714    239.49219     -763.08493      3375         
     49090  -56.231537      0.40331526    -55.828222      0.029520714    346.68696     -792.18594      3375         
     49100  -56.282944      0.44012192    -55.842822      0.029520714    378.32571     -21.852375      3375         
     49110  -56.14504       0.28283524    -55.862205      0.029520714    243.12318      1148.5593      3375         
     49120  -56.230961      0.35240978    -55.878551      0.029520714    302.92897      692.97708      3375         
     49130  -56.266056      0.36857366    -55.897482      0.029520714    316.82333      60.65525       3375         
     49140  -56.198363      0.28150393    -55.916859      0.029520714    241.9788      -386.99489      3375         
     49150  -56.262451      0.32739203    -55.935059      0.029520714    281.42389     -1283.1771      3375         
     49160  -56.275676      0.32237031    -55.953305      0.029520714    277.10725     -691.15587      3375         
     49170  -56.162013      0.19257473    -55.969438      0.029520714    165.53588      1149.9276      3375         
     49180  -56.292446      0.30849092    -55.983955      0.029520714    265.17662      1246.9982      3375         
     49190  -56.35768       0.3609078     -55.996772      0.029520714    310.23381      33.408967      3375         
     49200  -56.241495      0.22817658    -56.013319      0.029520714    196.13898     -802.23327      3375         
     49210  -56.329952      0.30461468    -56.025338      0.029520714    261.84463     -688.36321      3375         
     49220  -56.304676      0.2692203     -56.035456      0.029520714    231.41988      127.82196      3375         
     49230  -56.242631      0.20054546    -56.042085      0.029520714    172.38746      332.99163      3375         
     49240  -56.350663      0.3009081     -56.049755      0.029520714    258.65849     -109.70403      3375         
     49250  -56.359432      0.3033499     -56.056083      0.029520714    260.75744      85.922467      3375         
     49260  -56.24739       0.18533042    -56.06206       0.029520714    159.30872      453.54416      3375         
     49270  -56.302885      0.24076958    -56.062115      0.029520714    206.96383      93.09448       3375         
     49280  -56.326849      0.26425228    -56.062597      0.029520714    227.1494      -505.43267      3375         
     49290  -56.313493      0.24977629    -56.063716      0.029520714    214.70594     -484.12612      3375         
     49300  -56.347613      0.28656403    -56.061049      0.029520714    246.32843      419.53385      3375         
     49310  -56.271653      0.21123993    -56.060413      0.029520714    181.58036      571.64227      3375         
     49320  -56.243623      0.1925038     -56.051119      0.029520714    165.47492     -317.68908      3375         
     49330  -56.347301      0.29988421    -56.047417      0.029520714    257.77836     -624.34862      3375         
     49340  -56.38347       0.34916094    -56.034309      0.029520714    300.13629      25.010631      3375         
     49350  -56.255676      0.23733757    -56.018339      0.029520714    204.0137       797.14806      3375         
     49360  -56.259274      0.25284979    -56.006424      0.029520714    217.3479       663.44144      3375         
     49370  -56.306766      0.32327721    -55.983488      0.029520714    277.88681     -811.31089      3375         
     49380  -56.259236      0.30516276    -55.954074      0.029520714    262.31577     -1266.1833      3375         
     49390  -56.234061      0.30690304    -55.927158      0.029520714    263.81169      445.28163      3375         
     49400  -56.203081      0.31376823    -55.889313      0.029520714    269.71296      973.49247      3375         
     49410  -56.227881      0.38119148    -55.846689      0.029520714    327.66951      237.20336      3375         
     49420  -56.148245      0.33321456    -55.81503       0.029520714    286.42889     -142.50864      3375         
     49430  -56.199135      0.42102522    -55.77811       0.029520714    361.91031     -491.34549      3375         
     49440  -56.119638      0.36680857    -55.752829      0.029520714    315.30607     -141.12866      3375         
     49450  -56.082722      0.35060651    -55.732116      0.029520714    301.37889      84.560464      3375         
     49460  -56.205098      0.48818427    -55.716914      0.029520714    419.63976     -697.09523      3375         
     49470  -56.199094      0.4926274     -55.706467      0.029520714    423.45904      320.18258      3375         
     49480  -56.036695      0.33637098    -55.700324      0.029520714    289.14213      1893.2339      3375         
     49490  -56.226521      0.52742296    -55.699098      0.029520714    453.36907      163.11134      3375         
     49500  -56.177357      0.47919562    -55.698161      0.029520714    411.91319     -1641.5803      3375         
     49510  -55.986689      0.28499738    -55.701692      0.029520714    244.98175     -1199.9851      3375         
     49520  -56.147082      0.43848612    -55.708596      0.029520714    376.91959     -112.05034      3375         
     49530  -56.230377      0.52230629    -55.70807       0.029520714    448.97081      1197.4525      3375         
     49540  -56.065181      0.3451477     -55.720034      0.029520714    296.68653      1387.5552      3375         
     49550  -56.123262      0.39948644    -55.723775      0.029520714    343.39573     -174.78034      3375         
     49560  -56.260606      0.52147452    -55.739132      0.029520714    448.25583     -739.17495      3375         
     49570  -56.091695      0.34363681    -55.748058      0.029520714    295.38778     -223.22156      3375         
     49580  -56.117247      0.35942412    -55.757823      0.029520714    308.95845     -755.53259      3375         
     49590  -56.200692      0.42919318    -55.771499      0.029520714    368.93144     -701.13596      3375         
     49600  -56.212691      0.42665658    -55.786035      0.029520714    366.75099      920.23822      3375         
     49610  -56.18449       0.38392407    -55.800566      0.029520714    330.01843      1650.777       3375         
     49620  -56.295164      0.4774791     -55.817685      0.029520714    410.43767      184.40252      3375         
     49630  -56.20347       0.36598657    -55.837484      0.029520714    314.59948     -1165.0293      3375         
     49640  -56.109881      0.26185953    -55.848021      0.029520714    225.09261     -1109.0611      3375         
     49650  -56.319381      0.4501865     -55.869195      0.029520714    386.97715     -192.77776      3375         
     49660  -56.242937      0.35903529    -55.883902      0.029520714    308.62421      915.73184      3375         
     49670  -56.124274      0.22844089    -55.895833      0.029520714    196.36619      913.90722      3375         
     49680  -56.313511      0.40148949    -55.912022      0.029520714    345.11754     -146.24164      3375         
     49690  -56.279455      0.35321065    -55.926244      0.029520714    303.61739     -403.82456      3375         
     49700  -56.130278      0.1959872     -55.934291      0.029520714    168.46922     -84.455086      3375         
     49710  -56.284089      0.34017281    -55.943916      0.029520714    292.41015     -565.01792      3375         
     49720  -56.335894      0.37922214    -55.956672      0.029520714    325.97668     -377.34196      3375         
     49730  -56.173126      0.21141366    -55.961712      0.029520714    181.72969      800.8907       3375         
     49740  -56.310216      0.33684099    -55.973375      0.029520714    289.54615      593.41453      3375         
     49750  -56.331059      0.3547287     -55.97633       0.029520714    304.9223      -65.422942      3375         
     49760  -56.212565      0.22919538    -55.98337       0.029520714    197.01473     -212.81918      3375         
     49770  -56.326411      0.33492058    -55.99149       0.029520714    287.89538     -710.77245      3375         
     49780  -56.321217      0.32792997    -55.993287      0.029520714    281.8863      -235.69078      3375         
     49790  -56.197985      0.20119077    -55.996794      0.029520714    172.94217      789.04698      3375         
     49800  -56.298343      0.29791922    -56.000424      0.029520714    256.08926      64.207852      3375         
     49810  -56.319434      0.31782344    -56.001611      0.029520714    273.19879     -311.40901      3375         
     49820  -56.192179      0.19096506    -56.001214      0.029520714    164.15222      343.17562      3375         
     49830  -56.313204      0.31239556    -56.000809      0.029520714    268.53303     -165.27995      3375         
     49840  -56.336729      0.33873672    -55.997992      0.029520714    291.1757      -188.38113      3375         
     49850  -56.188152      0.19519784    -55.992954      0.029520714    167.79069      347.39158      3375         
     49860  -56.286631      0.29497155    -55.99166       0.029520714    253.55547     -264.79006      3375         
     49870  -56.328917      0.35078262    -55.978135      0.029520714    301.53027     -138.09511      3375         
     49880  -56.237367      0.27066538    -55.966702      0.029520714    232.66205      249.20232      3375         
     49890  -56.279163      0.32724973    -55.951913      0.029520714    281.30157     -419.06264      3375         
     49900  -56.287439      0.35522062    -55.932218      0.029520714    305.34514      150.01113      3375         
     49910  -56.198944      0.29106312    -55.907881      0.029520714    250.19581      973.84203      3375         
     49920  -56.288643      0.41194206    -55.876701      0.029520714    354.1025      -292.62562      3375         
     49930  -56.228835      0.38914933    -55.839685      0.029520714    334.51003     -891.49851      3375         
     49940  -56.164739      0.35969568    -55.805044      0.029520714    309.19188     -265.43412      3375         
     49950  -56.114069      0.3321045     -55.781964      0.029520714    285.4747       178.89012      3375         
     49960  -56.20836       0.4798654     -55.728495      0.029520714    412.48892      584.01551      3375         
     49970  -56.191868      0.48074735    -55.711121      0.029520714    413.24704      568.47796      3375         
     49980  -56.048608      0.37343186    -55.675177      0.029520714    320.9994      -198.44995      3375         
     49990  -56.115466      0.4539631     -55.661502      0.029520714    390.22349     -375.48004      3375         
     50000  -56.187031      0.54946102    -55.63757       0.029520714    472.31283     -201.4709       3375         
Loop time of 82.0294 on 3 procs for 50000 steps with 10 atoms

Performance: 26.332 ns/day, 0.911 hours/ns, 609.538 timesteps/s, 6.095 katom-step/s
168.5% CPU use with 3 MPI tasks x no OpenMP threads

MPI task timing breakdown:
Section |  min time  |  avg time  |  max time  |%varavg| %total
---------------------------------------------------------------
Pair    | 26.951     | 44.199     | 78.289     | 362.6 | 53.88
Neigh   | 0.00060288 | 0.00078527 | 0.0011268  |   0.0 |  0.00
Comm    | 0.99021    | 35         | 52.239     | 406.5 | 42.67
Output  | 0.52154    | 0.54359    | 0.58257    |   3.7 |  0.66
Modify  | 1.9592     | 2.0413     | 2.1368     |   5.1 |  2.49
Other   |            | 0.2448     |            |       |  0.30

Nlocal:        3.33333 ave          10 max           0 min
Histogram: 2 0 0 0 0 0 0 0 0 1
Nghost:             68 ave          84 max          42 min
Histogram: 1 0 0 0 0 0 0 0 1 1
Neighs:              0 ave           0 max           0 min
Histogram: 3 0 0 0 0 0 0 0 0 0
FullNghs:           30 ave          90 max           0 min
Histogram: 2 0 0 0 0 0 0 0 0 1

Total # of neighbors = 90
Ave neighs/atom = 9
Neighbor list builds = 123
Dangerous builds = 0

write_data	restart.data
System init for write_data ...
Generated 0 of 1 mixed pair_coeff terms from geometric mixing rule
#
Total wall time: 0:01:23
