LAMMPS data file via write_data, version 2 Aug 2023, timestep = 50000, units = metal

10 atoms
2 atom types

0 15 xlo xhi
0 15 ylo yhi
0 15 zlo zhi

Masses

1 12
2 2

Atoms # atomic

10 2 6.542340878275591 6.790393832992083 9.004419623043251 0 0 0
4 1 6.7609003688078575 7.550261657383164 8.279980946409216 0 0 0
7 2 8.81548268589426 7.60237056256522 5.798346821943426 0 0 0
8 2 6.2367878920059585 6.244939328608876 6.2259548660235104 0 0 0
9 2 6.014730452741978 8.380735951051506 8.27635178643555 0 0 0
1 1 8.243086239190285 8.0423713118617 8.0538385613945 0 0 0
3 1 6.882011260734447 6.889607169010959 6.833630082175296 0 0 0
2 1 8.123052032000567 7.4165323993192676 6.655248536811777 0 0 0
6 2 9.009850465370002 7.657218328494939 8.632432596924307 0 0 0
5 2 8.450508222112374 9.151706772422852 8.015305543414813 0 0 0

Velocities

10 3.243435320203008 4.146781919605738 -16.62012160655176
4 -9.309671959459514 10.225824116026514 5.000207140521595
7 -1.6728224090291952 1.455240979190851 3.719203987098988
8 -16.791876302409246 -5.319769786129627 -11.497627303293433
9 13.149647398744447 -21.406123308838826 -1.982769335360843
1 4.967695950648813 -6.716208275673777 -1.1606528739228312
3 4.798230763316869 6.722795062639936 4.868814715615923
2 0.6599815391788564 -5.6468976108311875 -3.8091010829653924
6 19.044943793675067 -13.825954294301832 7.725396943654039
5 -23.670745563293934 7.436744737508705 -10.739690081043586
