10
 Atoms. Timestep: 0
C 8.42501 7.38386 7.08389
C 7.00512 6.90849 6.79482
C 6.47805 7.60192 7.80702
C 7.88846 8.06327 8.241
H 8.79121 8.14505 6.37325
H 9.11152 6.55422 7.18725
H 6.59991 6.34824 6.00147
H 5.48268 7.70408 8.31444
H 8.10087 9.09055 8.29579
H 8.25798 7.63254 9.15634
10
 Atoms. Timestep: 20
C 8.38161 7.37018 7.08069
C 7.01008 6.95787 6.76253
C 6.50662 7.59153 7.86315
C 7.91182 8.07672 8.21251
H 8.85388 7.99516 6.33507
H 9.04113 6.50357 7.31188
H 6.66159 6.41132 5.88309
H 5.5067 7.56771 8.35894
H 8.00769 9.20944 8.31307
H 8.19219 7.55496 9.17366
10
 Atoms. Timestep: 40
C 8.3997 7.40562 7.09122
C 6.95023 7.01419 6.7201
C 6.52809 7.53845 7.87116
C 7.89231 8.04256 8.23839
H 9.03808 7.8248 6.24039
H 9.05104 6.5315 7.3754
H 6.54882 6.39547 5.86113
H 5.59797 7.57337 8.34496
H 7.99624 9.16236 8.30441
H 8.26989 7.72756 9.2375
10
 Atoms. Timestep: 60
C 8.4319 7.39654 7.07964
C 6.96772 7.0378 6.66905
C 6.51378 7.50035 7.87732
C 7.9004 8.02457 8.26726
H 9.06922 7.91474 6.3317
H 8.95827 6.51917 7.41556
H 6.37585 6.49747 5.95524
H 5.54038 7.61545 8.4117
H 7.9523 9.08015 8.17597
H 8.34524 7.83746 9.23925
10
 Atoms. Timestep: 80
C 8.40826 7.35967 7.09206
C 6.96572 7.05488 6.71651
C 6.53962 7.50104 7.88642
C 7.91127 8.0266 8.2248
H 8.99882 8.02453 6.5056
H 8.95942 6.43153 7.34145
H 6.43017 6.65217 5.87023
H 5.53602 7.54428 8.36704
H 7.89853 9.13918 8.06089
H 8.35186 7.77515 9.22502
10
 Atoms. Timestep: 100
C 8.38256 7.3332 7.10132
C 6.96506 7.03943 6.73242
C 6.52098 7.53137 7.92887
C 7.89942 8.03217 8.22904
H 9.0233 8.02755 6.41025
H 9.04369 6.40082 7.16631
H 6.60176 6.75845 5.70158
H 5.5516 7.49329 8.34772
H 7.95604 9.15595 8.10814
H 8.33946 7.76692 9.20509
10
 Atoms. Timestep: 120
C 8.41224 7.37733 7.07838
C 6.9808 7.04226 6.72251
C 6.47121 7.52087 7.885
C 7.92798 8.0057 8.27514
H 8.90259 7.89462 6.26245
H 8.99615 6.4929 7.17847
H 6.59259 6.72657 5.76874
H 5.51125 7.58753 8.44158
H 8.03488 9.05821 8.21011
H 8.33316 7.78324 9.26148
10
 Atoms. Timestep: 140
C 8.40137 7.40933 7.05352
C 6.9688 7.05842 6.70236
C 6.51419 7.52818 7.8683
C 7.93172 7.96393 8.28808
H 8.85428 7.98015 6.24811
H 9.01667 6.52307 7.33841
H 6.46432 6.56898 5.89765
H 5.52297 7.68752 8.36358
H 8.05475 9.08885 8.28361
H 8.31457 7.61221 9.28412
10
 Atoms. Timestep: 160
C 8.37243 7.39576 7.07151
C 6.93339 7.04604 6.69683
C 6.56554 7.58189 7.89324
C 7.91856 7.96622 8.25101
H 8.97118 8.15411 6.41973
H 9.12804 6.56443 7.25104
H 6.37947 6.39813 5.93945
H 5.58052 7.69201 8.23629
H 8.05905 9.06061 8.44209
H 8.2663 7.4112 9.12492
10
 Atoms. Timestep: 180
C 8.42566 7.39516 7.03822
C 6.93959 7.00286 6.74466
C 6.4827 7.62066 7.82883
C 7.93761 7.97899 8.27704
H 8.92662 8.19502 6.5125
H 9.09792 6.56335 6.9953
H 6.45833 6.41168 5.97686
H 5.51401 7.74988 8.35567
H 8.13736 8.99045 8.60387
H 8.27637 7.32361 9.11231
10
 Atoms. Timestep: 200
C 8.40232 7.43718 7.04101
C 6.99743 6.98414 6.75772
C 6.45626 7.67769 7.82752
C 7.9401 7.90418 8.29923
H 8.74689 8.1932 6.34026
H 9.07749 6.55576 6.8966
H 6.5786 6.42842 5.94913
H 5.47244 7.80801 8.37697
H 8.24332 8.92023 8.61164
H 8.22858 7.29519 9.16151
10
 Atoms. Timestep: 220
C 8.33968 7.42915 7.05079
C 6.95839 7.03661 6.76092
C 6.5474 7.66064 7.85234
C 7.9354 7.87002 8.31659
H 8.57785 8.20829 6.18966
H 9.20174 6.67304 7.04083
H 6.63484 6.41345 5.88411
H 5.57876 7.85041 8.16542
H 8.29771 8.90727 8.5607
H 8.14787 7.18901 9.16446
10
 Atoms. Timestep: 240
C 8.3782 7.40186 7.03278
C 6.92788 7.03359 6.70014
C 6.53293 7.61962 7.87066
C 7.97373 7.89557 8.31699
H 8.62632 8.21459 6.39107
H 9.23084 6.7996 7.1163
H 6.3968 6.47499 5.89159
H 5.52846 7.97221 8.17564
H 8.26193 8.89224 8.65637
H 8.20321 7.16254 9.1346
10
 Atoms. Timestep: 260
C 8.42865 7.42149 7.04168
C 6.91664 7.01634 6.71097
C 6.48838 7.60658 7.82975
C 7.94709 7.87584 8.30389
H 8.81963 8.29942 6.51906
H 9.24753 6.62005 6.96066
H 6.28454 6.64756 5.96347
H 5.56179 7.98917 8.34655
H 8.18496 8.87411 8.68488
H 8.341 7.26819 9.09661
10
 Atoms. Timestep: 280
C 8.4045 7.42111 7.05516
C 6.94118 7.0625 6.72197
C 6.5427 7.64046 7.88805
C 7.91776 7.83577 8.29484
H 8.93012 8.30988 6.46179
H 9.00391 6.48878 6.81747
H 6.37355 6.68413 5.80761
H 5.58919 7.77859 8.33393
H 8.06614 8.94799 8.55611
H 8.32419 7.25165 9.15197
10
 Atoms. Timestep: 300
C 8.34481 7.39358 7.01213
C 6.93805 7.19457 6.69366
C 6.52851 7.576 7.90214
C 7.99416 7.86257 8.32983
H 8.83888 8.07744 6.39963
H 8.9328 6.50383 6.97599
H 6.60164 6.70925 5.76056
H 5.55354 7.59392 8.37501
H 8.13183 8.9235 8.49685
H 8.2321 7.25171 9.25435
10
 Atoms. Timestep: 320
C 8.37279 7.38654 7.03702
C 6.90864 7.27132 6.62416
C 6.48787 7.50498 7.91059
C 7.99506 7.87153 8.335
H 8.8958 8.00673 6.26865
H 8.96682 6.43712 7.188
H 6.51091 6.8366 5.75203
H 5.50918 7.48942 8.48944
H 8.3312 8.88186 8.54402
H 8.32397 7.36201 9.20619
10
 Atoms. Timestep: 340
C 8.3994 7.4057 7.06817
C 6.89424 7.2567 6.64658
C 6.53126 7.51322 7.91141
C 7.93418 7.84306 8.29356
H 9.10995 7.9984 6.34724
H 8.86856 6.41652 7.18264
H 6.26908 7.04353 5.73277
H 5.61703 7.42638 8.4453
H 8.27765 8.91885 8.49392
H 8.42728 7.30428 9.16879
10
 Atoms. Timestep: 360
C 8.38114 7.39491 6.99648
C 6.91284 7.2339 6.65992
C 6.57385 7.53773 7.91896
C 7.97167 7.83191 8.31409
H 9.14488 8.01018 6.59111
H 8.77448 6.39085 7.0775
H 6.22153 7.21609 5.78342
H 5.64048 7.45158 8.44497
H 7.95109 8.92429 8.44091
H 8.35455 7.23634 9.2144
10
 Atoms. Timestep: 380
C 8.37383 7.37281 7.01952
C 6.89281 7.29856 6.64547
C 6.54637 7.4995 7.93148
C 7.99901 7.80342 8.3181
H 9.06854 8.05907 6.5093
H 8.84637 6.35135 6.94693
H 6.40264 7.1626 5.72026
H 5.58577 7.5716 8.5142
H 7.99996 8.85393 8.52044
H 8.3486 7.37569 9.19048
10
 Atoms. Timestep: 400
C 8.38653 7.37314 7.04157
C 6.89939 7.3506 6.63902
C 6.50615 7.4844 7.94749
C 7.9478 7.76726 8.3327
H 8.8988 8.08311 6.28269
H 8.93241 6.41487 6.90946
H 6.50708 7.06172 5.65444
H 5.58111 7.63952 8.48368
H 8.29103 8.88253 8.52617
H 8.47433 7.28583 9.26791
10
 Atoms. Timestep: 420
C 8.33902 7.41898 7.01954
C 6.93213 7.30284 6.6766
C 6.51429 7.54841 7.92067
C 8.00683 7.74634 8.34363
H 8.85503 8.11432 6.38516
H 8.91974 6.51361 6.98626
H 6.4107 7.06179 5.70538
H 5.55254 7.60334 8.40054
H 8.27654 8.76895 8.48983
H 8.35583 7.0586 9.15919
10
 Atoms. Timestep: 440
C 8.37215 7.43476 6.97521
C 6.87765 7.22212 6.66645
C 6.55593 7.62745 7.9168
C 8.00479 7.73224 8.35532
H 8.96156 8.25578 6.50798
H 8.98041 6.47444 6.93425
H 6.28082 7.0792 5.79307
H 5.52749 7.5755 8.37616
H 8.24606 8.73182 8.72106
H 8.26449 7.00382 9.07378
10
 Atoms. Timestep: 460
C 8.416 7.42203 7.0267
C 6.85494 7.23064 6.65607
C 6.54624 7.62515 7.89726
C 7.97067 7.74125 8.29754
H 8.92878 8.26903 6.52962
H 9.02218 6.56431 6.75063
H 6.22934 6.97002 5.81412
H 5.64236 7.73644 8.48811
H 8.30287 8.6346 8.97667
H 8.27136 6.93117 9.06444
10
 Atoms. Timestep: 480
C 8.36757 7.42773 6.99935
C 6.91376 7.28266 6.65065
C 6.52144 7.62195 7.91654
C 7.9815 7.696 8.36188
H 8.78978 8.30838 6.47874
H 9.07702 6.58553 6.73563
H 6.32669 6.81391 5.79355
H 5.67617 7.90988 8.50164
H 8.32275 8.62745 8.8228
H 8.22594 6.80481 8.98615
10
 Atoms. Timestep: 500
C 8.32631 7.46047 6.98038
C 6.8977 7.28417 6.68493
C 6.55079 7.64782 7.92554
C 8.01397 7.61654 8.36074
H 8.69811 8.34423 6.47624
H 9.01894 6.63759 6.83529
H 6.51894 6.86962 5.77408
H 5.55602 7.94089 8.3583
H 8.36269 8.55356 8.71991
H 8.23671 6.82011 9.0157
10
 Atoms. Timestep: 520
C 8.36649 7.44359 6.99196
C 6.86847 7.254 6.67131
C 6.53741 7.66557 7.92857
C 8.00208 7.6342 8.34009
H 8.75106 8.37665 6.4865
H 9.03351 6.61386 6.74225
H 6.38204 7.0432 5.73552
H 5.524 7.8357 8.32782
H 8.48401 8.56261 8.89611
H 8.30267 6.80385 9.10923
10
 Atoms. Timestep: 540
C 8.37836 7.40696 7.01734
C 6.8879 7.27371 6.65531
C 6.5195 7.62914 7.89684
C 8.01616 7.69559 8.35774
H 8.85353 8.29226 6.54713
H 9.06098 6.57855 6.63355
H 6.15751 7.21083 5.79601
H 5.63403 7.75933 8.46738
H 8.3794 8.53617 8.91868
H 8.227 6.81048 8.96289
10
 Atoms. Timestep: 560
C 8.3721 7.41673 6.97753
C 6.87619 7.35488 6.64763
C 6.58019 7.59678 7.9331
C 7.98214 7.65455 8.34571
H 8.90878 8.2459 6.56359
H 8.96084 6.5161 6.79589
H 6.24955 7.17581 5.76519
H 5.65821 7.72106 8.5431
H 8.2683 8.60537 8.82394
H 8.21454 6.81817 8.97348
10
 Atoms. Timestep: 580
C 8.35225 7.44132 6.97378
C 6.86048 7.42955 6.63539
C 6.55475 7.57574 7.96865
C 8.00785 7.58516 8.32205
H 8.98112 8.23014 6.45543
H 8.82727 6.46961 6.89984
H 6.43138 7.14841 5.70157
H 5.60123 7.6648 8.52495
H 8.273 8.63375 8.73382
H 8.358 6.8827 9.17418
10
 Atoms. Timestep: 600
C 8.33819 7.4217 7.00068
C 6.88671 7.47155 6.65928
C 6.49049 7.5335 7.93406
C 8.03964 7.62787 8.36955
H 9.00298 8.10911 6.40391
H 8.79483 6.39721 6.72522
H 6.39332 7.29158 5.6728
H 5.59037 7.56179 8.48448
H 8.36099 8.58227 8.69275
H 8.45135 6.95033 9.12841
10
 Atoms. Timestep: 620
C 8.35977 7.36516 6.99494
C 6.89648 7.46414 6.64108
C 6.54034 7.52085 7.95696
C 8.01272 7.66889 8.36975
H 8.97694 8.0853 6.51879
H 8.72923 6.40943 6.68051
H 6.27059 7.55361 5.73562
H 5.52686 7.46132 8.43888
H 8.35697 8.68058 8.70422
H 8.40754 6.91559 9.03461
10
 Atoms. Timestep: 640
C 8.35865 7.38467 6.98013
C 6.84776 7.46306 6.65907
C 6.59197 7.53548 7.94863
C 8.00754 7.61768 8.31183
H 9.06341 8.16582 6.57079
H 8.76061 6.36489 6.83141
H 6.28749 7.65653 5.78444
H 5.62332 7.47139 8.47475
H 8.2202 8.65878 8.70909
H 8.33349 6.89723 9.12057
10
 Atoms. Timestep: 660
C 8.35073 7.4302 6.96197
C 6.86543 7.49361 6.62255
C 6.53519 7.53274 7.96973
C 8.02221 7.56088 8.33695
H 9.10868 8.11463 6.45264
H 8.8599 6.39052 6.90261
H 6.25921 7.58128 5.68549
H 5.69439 7.58062 8.62252
H 8.21364 8.54188 8.70691
H 8.34684 6.9065 9.17167
10
 Atoms. Timestep: 680
C 8.36692 7.41495 6.985
C 6.86945 7.53171 6.64407
C 6.53409 7.51714 7.93939
C 7.99977 7.56994 8.36855
H 8.95696 8.08532 6.4302
H 8.79127 6.48431 6.73806
H 6.33233 7.43211 5.68816
H 5.66025 7.65991 8.59499
H 8.36554 8.54781 8.77507
H 8.39625 6.80807 9.04048
10
 Atoms. Timestep: 700
C 8.33002 7.40209 6.99021
C 6.88631 7.50005 6.65751
C 6.56624 7.56385 7.96887
C 8.02353 7.58527 8.35391
H 8.91315 8.28124 6.5308
H 8.72674 6.42049 6.59414
H 6.36775 7.3828 5.73525
H 5.52624 7.63586 8.39666
H 8.41377 8.49929 8.8748
H 8.33971 6.69278 8.93442
10
 Atoms. Timestep: 720
C 8.32909 7.44645 6.95772
C 6.86718 7.43645 6.67366
C 6.53413 7.64502 7.95765
C 8.06287 7.53813 8.34102
H 8.97628 8.3058 6.64652
H 8.856 6.48529 6.5954
H 6.29015 7.38674 5.73834
H 5.57406 7.62254 8.41664
H 8.40474 8.37641 8.93218
H 8.26314 6.647 8.97961
10
 Atoms. Timestep: 740
C 8.39268 7.46317 6.96093
C 6.83222 7.42593 6.64732
C 6.54488 7.66479 7.94869
C 8.00267 7.48927 8.35383
H 8.9411 8.28727 6.56566
H 8.98583 6.66158 6.65079
H 6.20066 7.36027 5.73232
H 5.67222 7.73167 8.59678
H 8.47056 8.32979 8.93941
H 8.21897 6.5905 8.93942
10
 Atoms. Timestep: 760
C 8.36168 7.44175 6.98952
C 6.85258 7.46507 6.63084
C 6.5863 7.61938 7.95754
C 7.98937 7.50028 8.34057
H 8.76644 8.41887 6.53129
H 9.05638 6.593 6.66622
H 6.23365 7.33498 5.76558
H 5.72271 7.90206 8.63187
H 8.45574 8.27719 8.94583
H 8.14955 6.53503 8.83736
10
 Atoms. Timestep: 780
C 8.3071 7.44432 6.95227
C 6.87451 7.46902 6.67162
C 6.56314 7.61828 7.95495
C 8.05203 7.49053 8.34237
H 8.74205 8.41105 6.65756
H 8.97019 6.58836 6.60893
H 6.31939 7.36907 5.74336
H 5.68262 7.94823 8.45568
H 8.43597 8.27067 9.03035
H 8.1931 6.49969 8.86585
10
 Atoms. Timestep: 800
C 8.35397 7.46101 6.95855
C 6.84527 7.44115 6.66033
C 6.54127 7.6601 7.98211
C 8.04202 7.45001 8.36626
H 8.89056 8.33883 6.66075
H 8.8456 6.67544 6.46065
H 6.31219 7.44903 5.67513
H 5.56398 7.87502 8.40231
H 8.48152 8.26366 8.99555
H 8.33493 6.54435 8.89114
10
 Atoms. Timestep: 820
C 8.36128 7.4482 6.98892
C 6.85166 7.49143 6.66946
C 6.54673 7.64712 7.94458
C 8.0127 7.45832 8.35517
H 8.98314 8.3541 6.60905
H 8.86071 6.5696 6.44037
H 6.26926 7.50545 5.77786
H 5.5878 7.7164 8.54761
H 8.47871 8.26581 8.89814
H 8.31014 6.53825 8.86715
10
 Atoms. Timestep: 840
C 8.33014 7.42487 6.94379
C 6.88628 7.59036 6.63896
C 6.57159 7.58065 7.98124
C 8.01743 7.48619 8.31902
H 8.91415 8.2749 6.62433
H 8.87878 6.46683 6.71229
H 6.22007 7.55187 5.7689
H 5.69785 7.59664 8.62533
H 8.42889 8.33338 8.94652
H 8.15158 6.50391 8.91352
10
 Atoms. Timestep: 860
C 8.35339 7.42153 6.94581
C 6.82143 7.63712 6.6588
C 6.58288 7.54402 7.96695
C 8.03074 7.47068 8.34167
H 9.00188 8.18261 6.51222
H 8.79043 6.47768 6.74178
H 6.28326 7.6559 5.67717
H 5.72397 7.53317 8.57665
H 8.38935 8.313 8.94215
H 8.20447 6.61759 8.9596
10
 Atoms. Timestep: 880
C 8.35045 7.45101 6.97614
C 6.85019 7.61985 6.64259
C 6.54551 7.54485 7.97004
C 8.0362 7.45149 8.36845
H 9.13943 8.11196 6.44166
H 8.6229 6.42599 6.54478
H 6.29004 7.81204 5.74569
H 5.56784 7.4976 8.55792
H 8.38969 8.35446 8.85523
H 8.41998 6.61476 9.00034
10
 Atoms. Timestep: 900
C 8.31769 7.41627 6.96526
C 6.90307 7.64123 6.68878
C 6.53276 7.52485 7.96641
C 8.0376 7.45413 8.32746
H 9.05701 8.11461 6.64495
H 8.55373 6.42595 6.50836
H 6.3139 7.90547 5.82969
H 5.55771 7.50786 8.46675
H 8.37765 8.43193 8.78628
H 8.51732 6.61523 8.96552
10
 Atoms. Timestep: 920
C 8.33367 7.36429 6.92244
C 6.85336 7.71203 6.69432
C 6.5604 7.49216 8.00038
C 8.03345 7.43862 8.34197
H 9.03638 8.18897 6.6799
H 8.71144 6.4187 6.56785
H 6.33077 7.95623 5.72768
H 5.62649 7.53634 8.46653
H 8.33939 8.41156 8.73959
H 8.39425 6.6656 8.95277
10
 Atoms. Timestep: 940
C 8.34459 7.40692 6.95661
C 6.8404 7.71426 6.65639
C 6.56118 7.51593 7.9797
C 8.02882 7.39056 8.32758
H 9.05121 8.16325 6.48581
H 8.81693 6.45958 6.60274
H 6.28195 7.97693 5.77426
H 5.65404 7.54068 8.67912
H 8.36346 8.32123 8.77521
H 8.30645 6.5923 9.05017
10
 Atoms. Timestep: 960
C 8.33955 7.46719 6.95074
C 6.87353 7.65256 6.66777
C 6.55673 7.56887 7.95246
C 8.01748 7.38388 8.31996
H 9.01205 8.17281 6.47862
H 8.68497 6.45778 6.59265
H 6.24503 7.94624 5.85138
H 5.73001 7.54682 8.67863
H 8.46655 8.23668 8.94942
H 8.2617 6.42472 8.99273
10
 Atoms. Timestep: 980
C 8.32771 7.44538 6.93427
C 6.85407 7.64023 6.66551
C 6.59183 7.59487 8.02395
C 8.04255 7.40136 8.35038
H 9.01865 8.27661 6.64584
H 8.61133 6.4991 6.50534
H 6.24876 7.81945 5.71733
H 5.64077 7.62034 8.47727
H 8.49498 8.08061 9.0438
H 8.21253 6.43285 8.65472
10
 Atoms. Timestep: 1000
C 8.31798 7.44562 6.9422
C 6.82022 7.66954 6.70748
C 6.56437 7.63804 7.98888
C 8.0686 7.37131 8.3275
H 9.00422 8.27803 6.74311
H 8.78952 6.58975 6.39429
H 6.32303 7.59425 5.77512
H 5.55819 7.72785 8.49529
H 8.56658 8.00294 9.09081
H 8.25542 6.28008 8.59401
10
 Atoms. Timestep: 1020
C 8.33302 7.48699 6.94011
C 6.88216 7.66092 6.66359
C 6.53179 7.67675 8.0185
C 8.02498 7.28388 8.29975
H 8.91943 8.38054 6.68842
H 8.90334 6.692 6.36924
H 6.21064 7.51731 5.8069
H 5.64461 7.82726 8.68828
H 8.61408 7.94269 9.04559
H 8.2002 6.20898 8.75884
10
 Atoms. Timestep: 1040
C 8.35748 7.4946 6.94386
C 6.83225 7.62706 6.69251
C 6.62157 7.67037 7.99472
C 7.99903 7.25282 8.31522
H 8.79222 8.51317 6.72562
H 8.87797 6.71892 6.41759
H 6.20148 7.68295 5.75761
H 5.84419 7.85842 8.64525
H 8.53117 7.87631 8.97546
H 8.01503 6.30112 8.68961
10
 Atoms. Timestep: 1060
C 8.31207 7.46756 6.92464
C 6.80339 7.61013 6.64879
C 6.6433 7.64708 8.01051
C 8.05347 7.29941 8.32065
H 8.78036 8.4514 6.85656
H 8.93173 6.72695 6.41118
H 6.24182 7.91762 5.79604
H 5.76968 7.92375 8.64962
H 8.54777 7.88563 9.1326
H 7.97934 6.16949 8.61551
10
 Atoms. Timestep: 1080
C 8.30495 7.44942 6.94639
C 6.8314 7.64632 6.67729
C 6.55711 7.65203 7.99683
C 8.05584 7.28074 8.29383
H 8.86742 8.37304 6.82254
H 8.94958 6.73136 6.32689
H 6.23614 7.97623 5.83694
H 5.69937 7.9465 8.65339
H 8.59966 7.81269 9.14749
H 8.27602 6.20911 8.61573
10
 Atoms. Timestep: 1100
C 8.35137 7.47275 6.9276
C 6.85822 7.73467 6.71898
C 6.55286 7.63062 8.02416
C 8.00632 7.2091 8.32739
H 8.96556 8.40392 6.67609
H 8.74228 6.63582 6.31565
H 6.23314 7.88994 5.77282
H 5.68124 7.85165 8.56617
H 8.55666 7.89869 8.96435
H 8.33251 6.25712 8.60515
10
 Atoms. Timestep: 1120
C 8.31483 7.47602 6.93138
C 6.8735 7.82316 6.71385
C 6.5976 7.58021 8.02992
C 8.04271 7.23853 8.28047
H 9.00515 8.24482 6.67114
H 8.57534 6.596 6.41053
H 6.30164 7.90199 5.82018
H 5.6443 7.63781 8.59342
H 8.46937 7.98469 8.94864
H 8.15634 6.14721 8.71135
10
 Atoms. Timestep: 1140
C 8.29461 7.45351 6.90877
C 6.85119 7.87312 6.72014
C 6.58931 7.5529 7.98535
C 8.05451 7.27983 8.30045
H 9.1554 8.14778 6.65059
H 8.5787 6.4401 6.36234
H 6.28772 8.11186 5.84884
H 5.72495 7.35789 8.66767
H 8.54895 7.9373 9.09685
H 8.09055 6.26895 8.77444
10
 Atoms. Timestep: 1160
C 8.34954 7.4186 6.93323
C 6.84576 7.88211 6.69642
C 6.57938 7.53996 8.01602
C 8.01858 7.28272 8.31095
H 9.15926 8.09254 6.58181
H 8.48113 6.49451 6.40251
H 6.20862 8.37254 5.86076
H 5.72261 7.27966 8.60185
H 8.56423 7.9213 8.98878
H 8.22857 6.31915 8.71356
10
 Atoms. Timestep: 1180
C 8.31609 7.45005 6.91625
C 6.86956 7.88309 6.75125
C 6.57535 7.54212 7.98463
C 8.03389 7.22762 8.29976
H 9.11789 8.09524 6.60269
H 8.44965 6.47257 6.46952
H 6.30296 8.3823 5.99681
H 5.64094 7.40831 8.50593
H 8.47379 8.0596 8.87733
H 8.36937 6.18467 8.72534
10
 Atoms. Timestep: 1200
C 8.27101 7.44807 6.9139
C 6.90109 7.9239 6.75556
C 6.5613 7.49093 8.01827
C 8.06655 7.18931 8.26694
H 9.10523 8.15374 6.63628
H 8.53329 6.4428 6.37504
H 6.3612 8.36781 5.96167
H 5.55405 7.60235 8.52215
H 8.41595 8.05011 8.88492
H 8.35453 6.28991 8.78093
10
 Atoms. Timestep: 1220
C 8.33875 7.40475 6.89451
C 6.85678 7.92432 6.77839
C 6.54987 7.49988 7.99401
C 8.01944 7.20273 8.29472
H 9.07311 8.19722 6.64348
H 8.55468 6.59186 6.2292
H 6.37109 8.39788 5.87755
H 5.70207 7.61146 8.64113
H 8.51107 7.95797 8.93417
H 8.3229 6.27352 8.79372
10
 Atoms. Timestep: 1240
C 8.31876 7.44324 6.91936
C 6.87801 7.87501 6.71483
C 6.57646 7.55796 8.02291
C 8.01748 7.19669 8.28083
H 9.06997 8.1898 6.72335
H 8.55667 6.63045 6.23925
H 6.28666 8.39545 5.92939
H 5.7592 7.53957 8.73883
H 8.52722 7.89114 8.95168
H 8.18004 6.13619 8.67898
10
 Atoms. Timestep: 1260
C 8.28477 7.49516 6.91539
C 6.84542 7.85154 6.72888
C 6.62638 7.62192 8.02679
C 8.03658 7.15375 8.25917
H 9.10712 8.26683 6.78133
H 8.64224 6.52518 6.34643
H 6.28174 8.25558 5.95167
H 5.70767 7.55589 8.64813
H 8.54635 7.76847 9.04664
H 8.08001 6.11378 8.53338
10
 Atoms. Timestep: 1280
C 8.34394 7.47347 6.90753
C 6.82813 7.87704 6.74261
C 6.60449 7.63759 8.05877
C 8.03283 7.15135 8.26867
H 9.00038 8.32797 6.71285
H 8.69208 6.65254 6.33119
H 6.20594 8.11082 5.83519
H 5.65308 7.68733 8.58389
H 8.63068 7.54959 9.11373
H 8.08547 6.05503 8.44661
10
 Atoms. Timestep: 1300
C 8.32561 7.48127 6.92314
C 6.88459 7.86642 6.75182
C 6.5633 7.649 8.0454
C 8.03009 7.13916 8.27498
H 8.94702 8.34946 6.71791
H 8.73416 6.73344 6.19405
H 6.20855 8.01177 5.87529
H 5.70313 7.79681 8.68993
H 8.66431 7.49725 9.0782
H 8.04532 6.01619 8.36153
10
 Atoms. Timestep: 1320
C 8.29038 7.5084 6.92573
C 6.86554 7.82362 6.74282
C 6.61286 7.65575 8.05068
C 8.01425 7.10444 8.24561
H 8.98961 8.39823 6.89271
H 8.72382 6.73797 6.15539
H 6.32362 8.07151 5.88975
H 5.78021 7.85533 8.74651
H 8.63055 7.56603 9.06386
H 7.97799 6.03766 8.35175
10
 Atoms. Timestep: 1340
C 8.32695 7.49345 6.90595
C 6.80493 7.82724 6.71246
C 6.65365 7.65509 8.07684
C 8.0117 7.0964 8.23341
H 8.95012 8.37768 6.99098
H 8.72507 6.79102 6.25356
H 6.27255 8.23489 5.81201
H 5.80867 7.84762 8.73626
H 8.58278 7.53774 9.08637
H 8.0015 5.99796 8.43785
10
 Atoms. Timestep: 1360
C 8.31196 7.46212 6.90198
C 6.83359 7.87199 6.74017
C 6.60488 7.6557 8.01446
C 8.02735 7.08901 8.26362
H 8.92529 8.38213 6.89145
H 8.86669 6.74831 6.21493
H 6.15784 8.32003 5.96177
H 5.83781 7.79635 8.74748
H 8.60088 7.50451 9.07149
H 8.06879 5.99575 8.48053
10
 Atoms. Timestep: 1380
C 8.30037 7.45605 6.92814
C 6.88084 7.92729 6.73526
C 6.602 7.60018 8.05193
C 8.01405 7.08749 8.2371
H 8.95545 8.34665 6.76195
H 8.78035 6.69827 6.21123
H 6.20834 8.3309 6.0286
H 5.70533 7.77575 8.71403
H 8.63345 7.61186 9.03163
H 8.05748 6.03055 8.42697
10
 Atoms. Timestep: 1400
C 8.32087 7.49223 6.88055
C 6.85674 7.94367 6.81126
C 6.60533 7.58004 8.04904
C 8.01023 7.09255 8.23777
H 9.10147 8.26563 6.75765
H 8.49187 6.64531 6.27283
H 6.38248 8.36966 5.91548
H 5.69136 7.65022 8.60418
H 8.60565 7.6601 9.01159
H 8.09217 5.97816 8.45554
10
 Atoms. Timestep: 1420
C 8.29399 7.49073 6.9082
C 6.89036 7.99251 6.78155
C 6.56706 7.5665 8.05686
C 8.0554 7.10314 8.23664
H 9.17508 8.10544 6.7185
H 8.35729 6.60495 6.19851
H 6.36356 8.47464 5.87803
H 5.67287 7.45698 8.66436
H 8.54503 7.59631 9.01179
H 8.16929 6.06442 8.51829
10
 Atoms. Timestep: 1440
C 8.27968 7.44082 6.90332
C 6.88887 8.05963 6.79162
C 6.59382 7.55329 7.99831
C 8.01702 7.101 8.26756
H 9.18221 8.06275 6.63899
H 8.42443 6.58883 6.15804
H 6.30815 8.52823 6.06872
H 5.72008 7.34796 8.66045
H 8.59737 7.73201 9.08562
H 8.21547 6.03178 8.5123
10
 Atoms. Timestep: 1460
C 8.31432 7.41722 6.89144
C 6.88729 8.0806 6.82092
C 6.6244 7.51463 8.02113
C 8.0102 7.09212 8.22321
H 9.10276 8.13582 6.6801
H 8.4093 6.55999 6.30248
H 6.2545 8.65337 6.12739
H 5.6787 7.43773 8.5499
H 8.49914 7.76118 8.93049
H 8.16234 6.04447 8.55841
10
 Atoms. Timestep: 1480
C 8.3032 7.48324 6.85769
C 6.90605 8.0324 6.84224
C 6.55962 7.52367 8.03213
C 8.03717 7.04786 8.21346
H 9.17325 8.16369 6.68692
H 8.42776 6.49263 6.2802
H 6.35321 8.75693 6.14566
H 5.64433 7.52445 8.58763
H 8.52039 7.71351 8.88572
H 8.16885 6.04577 8.62974
10
 Atoms. Timestep: 1500
C 8.27904 7.46441 6.90999
C 6.89556 8.02622 6.81966
C 6.54937 7.52966 8.02718
C 8.01712 7.04996 8.20912
H 9.13777 8.0962 6.65702
H 8.48066 6.71509 6.10738
H 6.51245 8.72374 6.13034
H 5.6571 7.57424 8.70413
H 8.64777 7.68415 8.97629
H 8.24177 6.005 8.5181
10
 Atoms. Timestep: 1520
C 8.28929 7.43862 6.88988
C 6.8856 8.04812 6.79833
C 6.60479 7.5383 8.05041
C 8.00199 7.04236 8.24689
H 9.0793 8.23886 6.80891
H 8.41467 6.75083 6.06795
H 6.45338 8.67594 6.02351
H 5.73697 7.60724 8.71551
H 8.56189 7.59188 9.0035
H 8.18774 5.95086 8.35651
10
 Atoms. Timestep: 1540
C 8.29052 7.49442 6.8795
C 6.89499 8.03949 6.83518
C 6.62575 7.60611 8.04305
C 8.02174 6.99541 8.18857
H 9.0562 8.27031 6.92746
H 8.50993 6.64961 6.16032
H 6.24267 8.51356 6.02134
H 5.80254 7.61739 8.69765
H 8.49298 7.43197 9.03835
H 8.02174 5.92461 8.36611
10
 Atoms. Timestep: 1560
C 8.32144 7.51297 6.90046
C 6.87169 8.0404 6.79534
C 6.63248 7.63612 8.09528
C 7.98322 6.97496 8.15261
H 9.13567 8.24746 6.80993
H 8.71523 6.7714 6.18729
H 6.15964 8.40757 6.07198
H 5.70794 7.65671 8.7543
H 8.66585 7.28793 9.10587
H 7.88668 5.86219 8.29743
10
 Atoms. Timestep: 1580
C 8.34103 7.49096 6.91098
C 6.8448 8.00395 6.8246
C 6.62977 7.66201 8.0813
C 7.97823 6.98684 8.2065
H 9.08344 8.36025 6.85447
H 8.68865 6.83258 6.09639
H 6.27152 8.42589 6.03681
H 5.76597 7.71314 8.74793
H 8.72008 7.13726 8.94482
H 7.83137 5.88826 8.06834
10
 Atoms. Timestep: 1600
C 8.28043 7.52113 6.90068
C 6.90541 7.9714 6.80575
C 6.62171 7.66121 8.12033
C 8.0172 6.96786 8.17226
H 8.91152 8.35831 7.03339
H 8.55462 6.81311 6.09125
H 6.3715 8.5176 5.95142
H 5.80338 7.80374 8.77631
H 8.6897 7.08864 9.03214
H 7.84483 5.90901 8.01036
10
 Atoms. Timestep: 1620
C 8.27354 7.52317 6.89413
C 6.8613 8.00768 6.8302
C 6.65594 7.65509 8.09138
C 7.99317 6.91901 8.14185
H 9.00596 8.35944 6.99261
H 8.65458 6.89914 6.06151
H 6.38763 8.51174 6.00307
H 5.83152 7.88271 8.81676
H 8.61275 7.13138 9.16323
H 7.92784 5.80584 8.1065
10
 Atoms. Timestep: 1640
C 8.33405 7.48034 6.90825
C 6.83989 8.08428 6.81459
C 6.6535 7.61953 8.09112
C 7.96088 6.90543 8.15425
H 9.09461 8.33292 6.91305
H 8.7439 6.94049 6.03431
H 6.20535 8.5795 6.11452
H 5.87229 7.83787 8.86056
H 8.52987 7.18374 8.96499
H 7.94806 5.80795 8.19224
10
 Atoms. Timestep: 1660
C 8.32673 7.49481 6.86598
C 6.89933 8.09879 6.84654
C 6.61258 7.60521 8.06001
C 7.97594 6.92294 8.1436
H 9.04638 8.25509 7.04801
H 8.61899 6.75671 6.08855
H 6.15694 8.7082 6.24379
H 5.89361 7.66586 8.81617
H 8.64746 7.28228 8.98969
H 7.8732 5.82141 8.20595
10
 Atoms. Timestep: 1680
C 8.25837 7.49406 6.87982
C 6.90605 8.11678 6.87586
C 6.63449 7.5652 8.07461
C 7.99475 6.95128 8.12031
H 9.11534 8.2016 6.95736
H 8.47849 6.74668 6.1186
H 6.4412 8.83931 6.18259
H 5.71856 7.54072 8.71361
H 8.6891 7.25875 9.00039
H 7.91937 5.869 8.21283
10
 Atoms. Timestep: 1700
C 8.2742 7.50869 6.88379
C 6.90452 8.16778 6.88933
C 6.60779 7.55548 8.09824
C 7.99547 6.9155 8.18643
H 9.19072 8.16958 6.61395
H 8.35439 6.79929 6.00096
H 6.59292 8.86703 6.15221
H 5.61779 7.45632 8.61757
H 8.61363 7.25346 8.95523
H 8.06264 5.78964 8.20229
10
 Atoms. Timestep: 1720
C 8.29671 7.4854 6.88598
C 6.96905 8.19761 6.95197
C 6.55854 7.56321 8.03715
C 8.00786 6.90124 8.12905
H 9.10236 8.10315 6.67328
H 8.20233 6.77792 6.08037
H 6.43161 8.87602 6.24765
H 5.71083 7.42548 8.62919
H 8.57336 7.33493 9.00412
H 8.11056 5.81775 8.22947
10
 Atoms. Timestep: 1740
C 8.26766 7.48149 6.84546
C 6.97634 8.25783 6.94392
C 6.61789 7.49419 8.03387
C 7.96924 6.90737 8.12121
H 9.25477 8.0924 6.83236
H 8.2437 6.65182 6.08101
H 6.32608 8.9393 6.3733
H 5.69561 7.47193 8.67216
H 8.55671 7.39893 8.99683
H 8.06035 5.82032 8.26654
10
 Atoms. Timestep: 1760
C 8.27758 7.47282 6.86914
C 6.89378 8.23988 6.96107
C 6.6347 7.51763 8.02482
C 7.97966 6.90916 8.11465
H 9.27887 7.97921 6.79147
H 8.39536 6.7552 6.05134
H 6.45638 9.04054 6.40897
H 5.73336 7.47855 8.67588
H 8.53304 7.3186 8.87991
H 8.01265 5.81097 8.2634
10
 Atoms. Timestep: 1780
C 8.30335 7.50073 6.85413
C 6.93881 8.19837 6.90846
C 6.56282 7.55535 8.09247
C 7.98416 6.86102 8.11615
H 9.17249 8.11359 6.77135
H 8.33096 6.82631 5.98927
H 6.53121 9.10515 6.38178
H 5.71968 7.46358 8.73811
H 8.64812 7.27532 8.97906
H 7.98666 5.74317 8.20214
10
 Atoms. Timestep: 1800
C 8.26301 7.49319 6.87913
C 6.96853 8.17496 6.95624
C 6.60771 7.57659 8.07508
C 7.96724 6.86611 8.09029
H 9.07652 8.29462 6.83425
H 8.31449 6.84616 5.97624
H 6.5668 8.94097 6.30763
H 5.72814 7.55838 8.72721
H 8.62277 7.11561 8.95067
H 7.97632 5.79914 8.08858
10
 Atoms. Timestep: 1820
C 8.2623 7.5108 6.86899
C 6.92966 8.22939 6.94202
C 6.66124 7.55655 8.1032
C 7.96375 6.84368 8.10449
H 9.11954 8.23412 6.90368
H 8.47444 6.86747 5.99253
H 6.42481 8.83653 6.21062
H 5.73104 7.68664 8.7401
H 8.58827 7.04587 8.95157
H 7.88418 5.70689 7.97829
10
 Atoms. Timestep: 1840
C 8.31214 7.52738 6.88211
C 6.9012 8.2116 6.9239
C 6.62516 7.62471 8.10266
C 7.97517 6.81191 8.06373
H 9.17697 8.12272 6.99232
H 8.54994 6.91558 6.01464
H 6.24894 8.81315 6.25289
H 5.85163 7.62564 8.84038
H 8.62372 6.95467 8.98668
H 7.79079 5.73465 7.9677
10
 Atoms. Timestep: 1860
C 8.3151 7.52483 6.88462
C 6.91321 8.16224 6.90522
C 6.6558 7.63199 8.1251
C 7.92494 6.83997 8.05632
H 9.2106 8.23616 7.08831
H 8.51897 6.93759 5.94561
H 6.28618 8.84802 6.31536
H 5.88164 7.60642 8.86665
H 8.62579 6.85773 8.90987
H 7.74654 5.77986 7.93564
10
 Atoms. Timestep: 1880
C 8.27761 7.5242 6.87526
C 6.91959 8.16609 6.92509
C 6.68926 7.60553 8.13792
C 7.93843 6.83134 8.0725
H 9.03946 8.30042 7.02533
H 8.55177 6.99233 5.95874
H 6.46721 8.87431 6.26117
H 5.80779 7.70028 8.82531
H 8.61476 6.86078 8.91204
H 7.69363 5.72891 7.84177
10
 Atoms. Timestep: 1900
C 8.25852 7.52689 6.87944
C 6.92542 8.19933 6.95434
C 6.62512 7.62822 8.12227
C 7.99142 6.7675 8.05163
H 9.00455 8.29815 6.95384
H 8.57375 6.97318 5.98689
H 6.5088 8.90248 6.2284
H 5.80874 7.74248 8.83997
H 8.64468 6.84671 8.96545
H 7.78062 5.72543 7.86841
10
 Atoms. Timestep: 1920
C 8.29117 7.52252 6.88053
C 6.9429 8.23035 6.94268
C 6.6154 7.60025 8.12904
C 7.93964 6.78455 8.04757
H 9.17923 8.27463 6.97325
H 8.46558 6.90307 5.94961
H 6.38167 8.95833 6.31007
H 5.81992 7.70553 8.84377
H 8.65412 6.85689 8.89847
H 7.88883 5.69551 7.91495
10
 Atoms. Timestep: 1940
C 8.30193 7.51358 6.8759
C 6.93718 8.24026 6.98443
C 6.66801 7.5698 8.08066
C 7.91488 6.83889 8.04165
H 9.21679 8.05664 6.98396
H 8.3734 6.93384 5.97432
H 6.37821 8.97326 6.44973
H 5.82617 7.5803 8.79341
H 8.57501 6.99715 8.87639
H 7.82243 5.70369 7.91533
10
 Atoms. Timestep: 1960
C 8.27272 7.52226 6.83703
C 6.96561 8.29025 6.98418
C 6.63042 7.54765 8.09613
C 7.97438 6.79749 8.06267
H 9.2495 8.02731 6.90555
H 8.33807 6.90103 5.90102
H 6.43537 9.08949 6.44444
H 5.74235 7.43483 8.76329
H 8.54264 7.07509 9.00428
H 7.75727 5.74634 7.99038
10
 Atoms. Timestep: 1980
C 8.26618 7.48735 6.86864
C 6.97439 8.30403 7.03852
C 6.6044 7.55622 8.07257
C 7.95791 6.81104 8.04132
H 9.18225 8.16007 6.74804
H 8.25576 6.88654 5.94839
H 6.59685 9.14006 6.41605
H 5.74343 7.40583 8.65726
H 8.59849 6.97026 8.91887
H 7.92992 5.70545 8.07406
10
 Atoms. Timestep: 2000
C 8.26091 7.52213 6.86462
C 7.02275 8.31121 7.03169
C 6.61309 7.52288 8.08042
C 7.91023 6.79235 8.05931
H 9.13598 8.16121 6.72785
H 8.17888 6.83539 6.01076
H 6.6309 9.1559 6.48743
H 5.64924 7.47638 8.63957
H 8.65369 7.06929 8.81875
H 8.03349 5.63038 7.98844
10
 Atoms. Timestep: 2020
C 8.25625 7.51063 6.86211
C 6.99629 8.31072 7.05859
C 6.59619 7.53288 8.05574
C 7.98032 6.76925 8.0243
H 9.22041 7.99992 6.82115
H 8.22618 6.85394 5.97368
H 6.57338 9.182 6.59645
H 5.66856 7.52394 8.67716
H 8.57559 7.18709 8.85456
H 7.88562 5.7322 7.96151
10
 Atoms. Timestep: 2040
C 8.28613 7.4912 6.81582
C 6.96663 8.3338 7.04807
C 6.60894 7.51439 8.07616
C 7.93933 6.80501 8.02348
H 9.34533 7.95441 6.89473
H 8.28464 6.9414 5.85037
H 6.49424 9.26108 6.62212
H 5.77993 7.50022 8.72648
H 8.55002 7.02059 8.95517
H 7.86367 5.67585 8.05897
10
 Atoms. Timestep: 2060
C 8.28953 7.49394 6.85811
C 6.98819 8.32552 7.02844
C 6.64386 7.55142 8.08389
C 7.88991 6.79295 8.01044
H 9.20209 8.0664 6.86889
H 8.28746 7.00586 5.88428
H 6.51591 9.18462 6.57539
H 5.83489 7.44636 8.82616
H 8.53371 6.89367 8.86198
H 7.88105 5.64015 7.98703
10
 Atoms. Timestep: 2080
C 8.2483 7.54857 6.87898
C 7.00537 8.30291 7.03305
C 6.63864 7.60447 8.11223
C 7.93391 6.68787 7.99841
H 9.12329 8.2231 6.91439
H 8.31108 6.91983 5.9478
H 6.59265 9.08877 6.43767
H 5.78426 7.52771 8.84516
H 8.622 6.91732 8.86327
H 7.73337 5.68033 7.74465
10
 Atoms. Timestep: 2100
C 8.26442 7.52889 6.87114
C 6.9663 8.30057 7.0422
C 6.64757 7.57769 8.17702
C 7.93672 6.74307 7.97249
H 9.14165 8.22361 6.98119
H 8.4308 6.98523 5.9467
H 6.5707 9.08407 6.32748
H 5.76475 7.70974 8.75597
H 8.66245 6.61849 8.8293
H 7.66354 5.6976 7.67128
10
 Atoms. Timestep: 2120
C 8.30345 7.54169 6.85436
C 6.95451 8.25864 7.03853