ITEM: TIMESTEP
0
ITEM: NUMBER OF ATOMS
10
ITEM: BOX BOUNDS pp pp pp
0.0000000000000000e+00 1.5000000000000000e+01
0.0000000000000000e+00 1.5000000000000000e+01
0.0000000000000000e+00 1.5000000000000000e+01
ITEM: ATOMS id type x y z
7 2 6.59991 6.34824 6.00147
1 1 8.42501 7.38386 7.08389
2 1 7.00512 6.90849 6.79482
6 2 9.11152 6.55422 7.18725
5 2 8.79121 8.14505 6.37325
10 2 8.25798 7.63254 9.15634
4 1 7.88846 8.06327 8.241
8 2 5.48268 7.70408 8.31444
9 2 8.10087 9.09055 8.29579
3 1 6.47805 7.60192 7.80702
ITEM: TIMESTEP
100
ITEM: NUMBER OF ATOMS
10
ITEM: BOX BOUNDS pp pp pp
0.0000000000000000e+00 1.5000000000000000e+01
0.0000000000000000e+00 1.5000000000000000e+01
0.0000000000000000e+00 1.5000000000000000e+01
ITEM: ATOMS id type x y z
7 2 6.60176 6.75845 5.70158
1 1 8.38256 7.3332 7.10132
2 1 6.96506 7.03943 6.73242
6 2 9.04369 6.40082 7.16631
5 2 9.0233 8.02755 6.41025
10 2 8.33946 7.76692 9.20509
4 1 7.89942 8.03217 8.22904
8 2 5.5516 7.49329 8.34772
9 2 7.95604 9.15595 8.10814
3 1 6.52098 7.53137 7.92887
ITEM: TIMESTEP
200
ITEM: NUMBER OF ATOMS
10
ITEM: BOX BOUNDS pp pp pp
0.0000000000000000e+00 1.5000000000000000e+01
0.0000000000000000e+00 1.5000000000000000e+01
0.0000000000000000e+00 1.5000000000000000e+01
ITEM: ATOMS id type x y z
7 2 6.5786 6.42842 5.94913
1 1 8.40232 7.43718 7.04101
2 1 6.99743 6.98414 6.75772
6 2 9.07749 6.55576 6.8966
5 2 8.74689 8.1932 6.34026
10 2 8.22858 7.29519 9.16151
4 1 7.9401 7.90418 8.29923
8 2 5.47244 7.80801 8.37697
9 2 8.24332 8.92023 8.61164
3 1 6.45626 7.67769 7.82752
ITEM: TIMESTEP
300
ITEM: NUMBER OF ATOMS
10
ITEM: BOX BOUNDS pp pp pp
0.0000000000000000e+00 1.5000000000000000e+01
0.0000000000000000e+00 1.5000000000000000e+01
0.0000000000000000e+00 1.5000000000000000e+01
ITEM: ATOMS id type x y z
7 2 6.60164 6.70925 5.76056
1 1 8.34481 7.39358 7.01213
2 1 6.93805 7.19457 6.69366
6 2 8.9328 6.50383 6.97599
5 2 8.83888 8.07744 6.39963
10 2 8.2321 7.25171 9.25435
4 1 7.99416 7.86257 8.32983
8 2 5.55354 7.59392 8.37501
9 2 8.13183 8.9235 8.49685
3 1 6.52851 7.576 7.90214
ITEM: TIMESTEP
400
ITEM: NUMBER OF ATOMS
10
ITEM: BOX BOUNDS pp pp pp
0.0000000000000000e+00 1.5000000000000000e+01
0.0000000000000000e+00 1.5000000000000000e+01
0.0000000000000000e+00 1.5000000000000000e+01
ITEM: ATOMS id type x y z
7 2 6.50708 7.06172 5.65444
1 1 8.38653 7.37314 7.04157
2 1 6.89939 7.3506 6.63902
6 2 8.93241 6.41487 6.90946
5 2 8.8988 8.08311 6.28269
10 2 8.47433 7.28583 9.26791
4 1 7.9478 7.76726 8.3327
8 2 5.58111 7.63952 8.48368
9 2 8.29103 8.88253 8.52617
3 1 6.50615 7.4844 7.94749
ITEM: TIMESTEP
500
ITEM: NUMBER OF ATOMS
10
ITEM: BOX BOUNDS pp pp pp
0.0000000000000000e+00 1.5000000000000000e+01
0.0000000000000000e+00 1.5000000000000000e+01
0.0000000000000000e+00 1.5000000000000000e+01
ITEM: ATOMS id type x y z
7 2 6.51894 6.86962 5.77408
1 1 8.32631 7.46047 6.98038
2 1 6.8977 7.28417 6.68493
6 2 9.01894 6.63759 6.83529
5 2 8.69811 8.34423 6.47624
10 2 8.23671 6.82011 9.0157
4 1 8.01397 7.61654 8.36074
8 2 5.55602 7.94089 8.3583
9 2 8.36269 8.55356 8.71991
3 1 6.55079 7.64782 7.92554
ITEM: TIMESTEP
600
ITEM: NUMBER OF ATOMS
10
ITEM: BOX BOUNDS pp pp pp
0.0000000000000000e+00 1.5000000000000000e+01
0.0000000000000000e+00 1.5000000000000000e+01
0.0000000000000000e+00 1.5000000000000000e+01
ITEM: ATOMS id type x y z
7 2 6.39332 7.29158 5.6728
1 1 8.33819 7.4217 7.00068
2 1 6.88671 7.47155 6.65928
6 2 8.79483 6.39721 6.72522
10 2 8.45135 6.95033 9.12841
5 2 9.00298 8.10911 6.40391
3 1 6.49049 7.5335 7.93406
4 1 8.03964 7.62787 8.36955
8 2 5.59037 7.56179 8.48448
9 2 8.36099 8.58227 8.69275
ITEM: TIMESTEP
700
ITEM: NUMBER OF ATOMS
10
ITEM: BOX BOUNDS pp pp pp
0.0000000000000000e+00 1.5000000000000000e+01
0.0000000000000000e+00 1.5000000000000000e+01
0.0000000000000000e+00 1.5000000000000000e+01
ITEM: ATOMS id type x y z
7 2 6.36775 7.3828 5.73525
1 1 8.33002 7.40209 6.99021
2 1 6.88631 7.50005 6.65751
6 2 8.72674 6.42049 6.59414
10 2 8.33971 6.69278 8.93442
5 2 8.91315 8.28124 6.5308
3 1 6.56624 7.56385 7.96887
4 1 8.02353 7.58527 8.35391
8 2 5.52624 7.63586 8.39666
9 2 8.41377 8.49929 8.8748
ITEM: TIMESTEP
800
ITEM: NUMBER OF ATOMS
10
ITEM: BOX BOUNDS pp pp pp
0.0000000000000000e+00 1.5000000000000000e+01
0.0000000000000000e+00 1.5000000000000000e+01
0.0000000000000000e+00 1.5000000000000000e+01
ITEM: ATOMS id type x y z
7 2 6.31219 7.44903 5.67513
1 1 8.35397 7.46101 6.95855
2 1 6.84527 7.44115 6.66033
6 2 8.8456 6.67544 6.46065
10 2 8.33493 6.54435 8.89114
5 2 8.89056 8.33883 6.66075
3 1 6.54127 7.6601 7.98211
4 1 8.04202 7.45001 8.36626
8 2 5.56398 7.87502 8.40231
9 2 8.48152 8.26366 8.99555
ITEM: TIMESTEP
900
ITEM: NUMBER OF ATOMS
10
ITEM: BOX BOUNDS pp pp pp
0.0000000000000000e+00 1.5000000000000000e+01
0.0000000000000000e+00 1.5000000000000000e+01
0.0000000000000000e+00 1.5000000000000000e+01
ITEM: ATOMS id type x y z
7 2 6.3139 7.90547 5.82969
1 1 8.31769 7.41627 6.96526
2 1 6.90307 7.64123 6.68878
6 2 8.55373 6.42595 6.50836
10 2 8.51732 6.61523 8.96552
5 2 9.05701 8.11461 6.64495
3 1 6.53276 7.52485 7.96641
4 1 8.0376 7.45413 8.32746
8 2 5.55771 7.50786 8.46675
9 2 8.37765 8.43193 8.78628
ITEM: TIMESTEP
1000
ITEM: NUMBER OF ATOMS
10
ITEM: BOX BOUNDS pp pp pp
0.0000000000000000e+00 1.5000000000000000e+01
0.0000000000000000e+00 1.5000000000000000e+01
0.0000000000000000e+00 1.5000000000000000e+01
ITEM: ATOMS id type x y z
7 2 6.32303 7.59425 5.77512
1 1 8.31798 7.44562 6.9422
2 1 6.82022 7.66954 6.70748
6 2 8.78952 6.58975 6.39429
10 2 8.25542 6.28008 8.59401
5 2 9.00422 8.27803 6.74311
3 1 6.56437 7.63804 7.98888
4 1 8.0686 7.37131 8.3275
8 2 5.55819 7.72785 8.49529
9 2 8.56658 8.00294 9.09081
ITEM: TIMESTEP
1100
ITEM: NUMBER OF ATOMS
10
ITEM: BOX BOUNDS pp pp pp
0.0000000000000000e+00 1.5000000000000000e+01
0.0000000000000000e+00 1.5000000000000000e+01
0.0000000000000000e+00 1.5000000000000000e+01
ITEM: ATOMS id type x y z
6 2 8.74228 6.63582 6.31565
1 1 8.35137 7.47275 6.9276
10 2 8.33251 6.25712 8.60515
4 1 8.00632 7.2091 8.32739
5 2 8.96556 8.40392 6.67609
7 2 6.23314 7.88994 5.77282
2 1 6.85822 7.73467 6.71898
3 1 6.55286 7.63062 8.02416
9 2 8.55666 7.89869 8.96435
8 2 5.68124 7.85165 8.56617
ITEM: TIMESTEP
1200
ITEM: NUMBER OF ATOMS
10
ITEM: BOX BOUNDS pp pp pp
0.0000000000000000e+00 1.5000000000000000e+01
0.0000000000000000e+00 1.5000000000000000e+01
0.0000000000000000e+00 1.5000000000000000e+01
ITEM: ATOMS id type x y z
6 2 8.53329 6.4428 6.37504
1 1 8.27101 7.44807 6.9139
10 2 8.35453 6.28991 8.78093
4 1 8.06655 7.18931 8.26694
5 2 9.10523 8.15374 6.63628
7 2 6.3612 8.36781 5.96167
2 1 6.90109 7.9239 6.75556
3 1 6.5613 7.49093 8.01827
9 2 8.41595 8.05011 8.88492
8 2 5.55405 7.60235 8.52215
ITEM: TIMESTEP
1300
ITEM: NUMBER OF ATOMS
10
ITEM: BOX BOUNDS pp pp pp
0.0000000000000000e+00 1.5000000000000000e+01
0.0000000000000000e+00 1.5000000000000000e+01
0.0000000000000000e+00 1.5000000000000000e+01
ITEM: ATOMS id type x y z
6 2 8.73416 6.73344 6.19405
1 1 8.32561 7.48127 6.92314
10 2 8.04532 6.01619 8.36153
4 1 8.03009 7.13916 8.27498
5 2 8.94702 8.34946 6.71791
7 2 6.20855 8.01177 5.87529
2 1 6.88459 7.86642 6.75182
3 1 6.5633 7.649 8.0454
9 2 8.66431 7.49725 9.0782
8 2 5.70313 7.79681 8.68993
ITEM: TIMESTEP
1400
ITEM: NUMBER OF ATOMS
10
ITEM: BOX BOUNDS pp pp pp
0.0000000000000000e+00 1.5000000000000000e+01
0.0000000000000000e+00 1.5000000000000000e+01
0.0000000000000000e+00 1.5000000000000000e+01
ITEM: ATOMS id type x y z
6 2 8.49187 6.64531 6.27283
1 1 8.32087 7.49223 6.88055
10 2 8.09217 5.97816 8.45554
4 1 8.01023 7.09255 8.23777
5 2 9.10147 8.26563 6.75765
7 2 6.38248 8.36966 5.91548
2 1 6.85674 7.94367 6.81126
3 1 6.60533 7.58004 8.04904
9 2 8.60565 7.6601 9.01159
8 2 5.69136 7.65022 8.60418
ITEM: TIMESTEP
1500
ITEM: NUMBER OF ATOMS
10
ITEM: BOX BOUNDS pp pp pp
0.0000000000000000e+00 1.5000000000000000e+01
0.0000000000000000e+00 1.5000000000000000e+01
0.0000000000000000e+00 1.5000000000000000e+01
ITEM: ATOMS id type x y z
6 2 8.48066 6.71509 6.10738
1 1 8.27904 7.46441 6.90999
10 2 8.24177 6.005 8.5181
4 1 8.01712 7.04996 8.20912
5 2 9.13777 8.0962 6.65702
7 2 6.51245 8.72374 6.13034
2 1 6.89556 8.02622 6.81966
3 1 6.54937 7.52966 8.02718
9 2 8.64777 7.68415 8.97629
8 2 5.6571 7.57424 8.70413
ITEM: TIMESTEP
1600
ITEM: NUMBER OF ATOMS
10
ITEM: BOX BOUNDS pp pp pp
0.0000000000000000e+00 1.5000000000000000e+01
0.0000000000000000e+00 1.5000000000000000e+01
0.0000000000000000e+00 1.5000000000000000e+01
ITEM: ATOMS id type x y z
6 2 8.55462 6.81311 6.09125
1 1 8.28043 7.52113 6.90068
10 2 7.84483 5.90901 8.01036
4 1 8.0172 6.96786 8.17226
5 2 8.91152 8.35831 7.03339
7 2 6.3715 8.5176 5.95142
2 1 6.90541 7.9714 6.80575
3 1 6.62171 7.66121 8.12033
9 2 8.6897 7.08864 9.03214
8 2 5.80338 7.80374 8.77631
ITEM: TIMESTEP
1700
ITEM: NUMBER OF ATOMS
10
ITEM: BOX BOUNDS pp pp pp
0.0000000000000000e+00 1.5000000000000000e+01
0.0000000000000000e+00 1.5000000000000000e+01
0.0000000000000000e+00 1.5000000000000000e+01
ITEM: ATOMS id type x y z
6 2 8.35439 6.79929 6.00096
1 1 8.2742 7.50869 6.88379
10 2 8.06264 5.78964 8.20229
4 1 7.99547 6.9155 8.18643
5 2 9.19072 8.16958 6.61395
7 2 6.59292 8.86703 6.15221
2 1 6.90452 8.16778 6.88933
3 1 6.60779 7.55548 8.09824
9 2 8.61363 7.25346 8.95523
8 2 5.61779 7.45632 8.61757
ITEM: TIMESTEP
1800
ITEM: NUMBER OF ATOMS
10
ITEM: BOX BOUNDS pp pp pp
0.0000000000000000e+00 1.5000000000000000e+01
0.0000000000000000e+00 1.5000000000000000e+01
0.0000000000000000e+00 1.5000000000000000e+01
ITEM: ATOMS id type x y z
6 2 8.31449 6.84616 5.97624
1 1 8.26301 7.49319 6.87913
10 2 7.97632 5.79914 8.08858
4 1 7.96724 6.86611 8.09029
5 2 9.07652 8.29462 6.83425
7 2 6.5668 8.94097 6.30763
2 1 6.96853 8.17496 6.95624
3 1 6.60771 7.57659 8.07508
9 2 8.62277 7.11561 8.95067
8 2 5.72814 7.55838 8.72721
ITEM: TIMESTEP
1900
ITEM: NUMBER OF ATOMS
10
ITEM: BOX BOUNDS pp pp pp
0.0000000000000000e+00 1.5000000000000000e+01
0.0000000000000000e+00 1.5000000000000000e+01
0.0000000000000000e+00 1.5000000000000000e+01
ITEM: ATOMS id type x y z
6 2 8.57375 6.97318 5.98689
1 1 8.25852 7.52689 6.87944
10 2 7.78062 5.72543 7.86841
4 1 7.99142 6.7675 8.05163
5 2 9.00455 8.29815 6.95384
7 2 6.5088 8.90248 6.2284
2 1 6.92542 8.19933 6.95434
3 1 6.62512 7.62822 8.12227
9 2 8.64468 6.84671 8.96545
8 2 5.80874 7.74248 8.83997
ITEM: TIMESTEP
2000
ITEM: NUMBER OF ATOMS
10
ITEM: BOX BOUNDS pp pp pp
0.0000000000000000e+00 1.5000000000000000e+01
0.0000000000000000e+00 1.5000000000000000e+01
0.0000000000000000e+00 1.5000000000000000e+01
ITEM: ATOMS id type x y z
6 2 8.17888 6.83539 6.01076
1 1 8.26091 7.52213 6.86462
10 2 8.03349 5.63038 7.98844
4 1 7.91023 6.79235 8.05931
5 2 9.13598 8.16121 6.72785
7 2 6.6309 9.1559 6.48743
2 1 7.02275 8.31121 7.03169
3 1 6.61309 7.52288 8.08042
9 2 8.65369 7.06929 8.81875
8 2 5.64924 7.47638 8.63957
ITEM: TIMESTEP
2100
ITEM: NUMBER OF ATOMS
10
ITEM: BOX BOUNDS pp pp pp
0.0000000000000000e+00 1.5000000000000000e+01
0.0000000000000000e+00 1.5000000000000000e+01
0.0000000000000000e+00 1.5000000000000000e+01
ITEM: ATOMS id type x y z
6 2 8.4308 6.98523 5.9467
10 2 7.66354 5.6976 7.67128
4 1 7.93672 6.74307 7.97249
9 2 8.66245 6.61849 8.8293
5 2 9.14165 8.22361 6.98119
7 2 6.5707 9.08407 6.32748
2 1 6.9663 8.30057 7.0422
1 1 8.26442 7.52889 6.87114
3 1 6.64757 7.57769 8.17702
8 2 5.76475 7.70974 8.75597
ITEM: TIMESTEP
2200
ITEM: NUMBER OF ATOMS
10
ITEM: BOX BOUNDS pp pp pp
0.0000000000000000e+00 1.5000000000000000e+01
0.0000000000000000e+00 1.5000000000000000e+01
0.0000000000000000e+00 1.5000000000000000e+01
ITEM: ATOMS id type x y z
6 2 8.44982 7.15796 5.85387
10 2 7.62686 5.70176 7.59054
4 1 7.89834 6.6616 7.91918
9 2 8.67226 6.57152 8.73077
5 2 9.11657 8.16037 7.05463
7 2 6.5965 9.19707 6.66892
2 1 7.0031 8.31624 7.06642
1 1 8.26925 7.51989 6.8655
3 1 6.63071 7.62346 8.15181
8 2 5.85361 7.70412 8.9728
ITEM: TIMESTEP
2300
ITEM: NUMBER OF ATOMS
10
ITEM: BOX BOUNDS pp pp pp
0.0000000000000000e+00 1.5000000000000000e+01
0.0000000000000000e+00 1.5000000000000000e+01
0.0000000000000000e+00 1.5000000000000000e+01
ITEM: ATOMS id type x y z
6 2 8.0138 7.12339 5.78345
10 2 7.74811 5.55188 7.78783
4 1 7.86567 6.67512 7.90098
9 2 8.61677 6.75695 8.70185
5 2 9.29577 7.93281 6.82814
7 2 6.88206 9.45555 7.04773
2 1 7.08143 8.37986 7.20765
1 1 8.23504 7.56506 6.81892
3 1 6.62839 7.51461 8.09217
8 2 5.70436 7.5915 8.62169
ITEM: TIMESTEP
2400
ITEM: NUMBER OF ATOMS
10
ITEM: BOX BOUNDS pp pp pp
0.0000000000000000e+00 1.5000000000000000e+01
0.0000000000000000e+00 1.5000000000000000e+01
0.0000000000000000e+00 1.5000000000000000e+01
ITEM: ATOMS id type x y z
6 2 8.34164 7.34362 5.77243
10 2 7.35558 5.7523 7.30008
4 1 7.85681 6.60936 7.82805
9 2 8.56448 6.22792 8.52635
5 2 9.27368 8.02968 7.05883
7 2 6.59119 9.30195 6.73065
2 1 7.02298 8.40179 7.18624
1 1 8.28264 7.53324 6.86288
3 1 6.70033 7.60692 8.22945
8 2 5.82087 7.65668 8.86087
ITEM: TIMESTEP
2500
ITEM: NUMBER OF ATOMS
10
ITEM: BOX BOUNDS pp pp pp
0.0000000000000000e+00 1.5000000000000000e+01
0.0000000000000000e+00 1.5000000000000000e+01
0.0000000000000000e+00 1.5000000000000000e+01
ITEM: ATOMS id type x y z
6 2 8.19142 7.25728 5.78073
10 2 7.49758 5.67254 7.38429
4 1 7.81086 6.60849 7.78099
9 2 8.55158 6.36945 8.57841
5 2 9.22622 7.94698 7.05305
7 2 6.77559 9.43002 6.99246
2 1 7.12126 8.439 7.25172
1 1 8.24145 7.55767 6.82193
3 1 6.67574 7.55629 8.18309
8 2 5.78577 7.575 8.87366
ITEM: TIMESTEP
2600
ITEM: NUMBER OF ATOMS
10
ITEM: BOX BOUNDS pp pp pp
0.0000000000000000e+00 1.5000000000000000e+01
0.0000000000000000e+00 1.5000000000000000e+01
0.0000000000000000e+00 1.5000000000000000e+01
ITEM: ATOMS id type x y z
6 2 8.22458 7.22808 5.72768
10 2 7.61677 5.50081 7.40221
4 1 7.7781 6.57493 7.74705
9 2 8.56338 6.51105 8.59434
5 2 9.27193 7.93086 6.87428
7 2 6.96688 9.57701 7.1626
2 1 7.14847 8.4797 7.34369
1 1 8.22162 7.56573 6.80053
3 1 6.63161 7.53502 8.1612
8 2 5.80169 7.53994 8.813
ITEM: TIMESTEP
2700
ITEM: NUMBER OF ATOMS
10
ITEM: BOX BOUNDS pp pp pp
0.0000000000000000e+00 1.5000000000000000e+01
0.0000000000000000e+00 1.5000000000000000e+01
0.0000000000000000e+00 1.5000000000000000e+01
ITEM: ATOMS id type x y z
6 2 8.29618 7.34642 5.77166
10 2 7.24933 5.74313 7.05043
9 2 8.44541 6.12863 8.35483
4 1 7.7357 6.56841 7.69271
5 2 9.15612 8.06639 7.22011
7 2 6.72221 9.35178 6.92082
2 1 7.12582 8.46207 7.32209
1 1 8.27313 7.55596 6.83581
3 1 6.75379 7.57583 8.24287
8 2 5.92408 7.61002 9.01026
ITEM: TIMESTEP
2800
ITEM: NUMBER OF ATOMS
10
ITEM: BOX BOUNDS pp pp pp
0.0000000000000000e+00 1.5000000000000000e+01
0.0000000000000000e+00 1.5000000000000000e+01
0.0000000000000000e+00 1.5000000000000000e+01
ITEM: ATOMS id type x y z
6 2 8.06126 7.39269 5.77409
10 2 7.41623 5.57045 7.30668
9 2 8.44611 6.1723 8.44033
4 1 7.75572 6.53666 7.65762
5 2 9.23951 7.91882 6.77983
7 2 6.99104 9.56413 7.16746
2 1 7.24339 8.52839 7.46771
1 1 8.19778 7.58798 6.82238
3 1 6.6685 7.53039 8.16207
8 2 5.7775 7.50109 8.76194
ITEM: TIMESTEP
2900
ITEM: NUMBER OF ATOMS
10
ITEM: BOX BOUNDS pp pp pp
0.0000000000000000e+00 1.5000000000000000e+01
0.0000000000000000e+00 1.5000000000000000e+01
0.0000000000000000e+00 1.5000000000000000e+01
ITEM: ATOMS id type x y z
6 2 7.98162 7.58621 5.67616
10 2 7.29605 5.61634 7.09049
9 2 8.50536 6.2511 8.41172
4 1 7.6776 6.50817 7.61094
5 2 9.27643 7.95591 6.96756
7 2 7.13748 9.58265 7.36609
2 1 7.28436 8.49883 7.47237
1 1 8.21266 7.58444 6.80802
3 1 6.66092 7.52972 8.17582
8 2 5.91376 7.50078 8.97407
ITEM: TIMESTEP
3000
ITEM: NUMBER OF ATOMS
10
ITEM: BOX BOUNDS pp pp pp
0.0000000000000000e+00 1.5000000000000000e+01
0.0000000000000000e+00 1.5000000000000000e+01
0.0000000000000000e+00 1.5000000000000000e+01
ITEM: ATOMS id type x y z
6 2 8.25948 7.6586 5.71616
10 2 7.02204 5.86813 6.84287
9 2 8.25308 5.82449 8.02288
4 1 7.65065 6.51122 7.51945
5 2 9.25638 7.77431 7.1971
7 2 7.09002 9.53457 7.15374
2 1 7.20224 8.53084 7.47712
1 1 8.23588 7.60693 6.83747
3 1 6.76668 7.51647 8.2895
8 2 6.11026 7.56715 9.21498
ITEM: TIMESTEP
3100
ITEM: NUMBER OF ATOMS
10
ITEM: BOX BOUNDS pp pp pp
0.0000000000000000e+00 1.5000000000000000e+01
0.0000000000000000e+00 1.5000000000000000e+01
0.0000000000000000e+00 1.5000000000000000e+01
ITEM: ATOMS id type x y z
10 2 7.24911 5.72111 6.87461
9 2 8.36888 6.04921 8.1193
4 1 7.63162 6.51429 7.5191
8 2 5.89267 7.40199 8.8867
5 2 9.27344 7.68128 6.76431
6 2 7.88993 7.76245 5.78545
1 1 8.17092 7.59732 6.82203
3 1 6.68493 7.52551 8.20023
7 2 7.37035 9.64565 7.6144
2 1 7.35914 8.52259 7.59935
ITEM: TIMESTEP
3200
ITEM: NUMBER OF ATOMS
10
ITEM: BOX BOUNDS pp pp pp
0.0000000000000000e+00 1.5000000000000000e+01
0.0000000000000000e+00 1.5000000000000000e+01
0.0000000000000000e+00 1.5000000000000000e+01
ITEM: ATOMS id type x y z
10 2 7.00976 5.8456 6.75861
9 2 8.26001 5.7743 8.10049
4 1 7.59269 6.48612 7.43015
8 2 5.98372 7.43173 9.08156
5 2 9.30219 7.67854 7.02546
6 2 7.99362 7.80842 5.71212
1 1 8.20496 7.62749 6.8018
3 1 6.75325 7.52522 8.26871
7 2 7.31746 9.59637 7.5609
2 1 7.3253 8.54202 7.60765
ITEM: TIMESTEP
3300
ITEM: NUMBER OF ATOMS
10
ITEM: BOX BOUNDS pp pp pp
0.0000000000000000e+00 1.5000000000000000e+01
0.0000000000000000e+00 1.5000000000000000e+01
0.0000000000000000e+00 1.5000000000000000e+01
ITEM: ATOMS id type x y z
10 2 6.91594 5.94771 6.6769
9 2 8.13526 5.75301 7.95704
4 1 7.5438 6.50768 7.40868
8 2 6.106 7.45572 9.11516
5 2 9.2337 7.72093 7.02256
6 2 8.18063 7.89267 5.7431
1 1 8.20095 7.61545 6.79595
3 1 6.78173 7.49134 8.28708
7 2 7.29786 9.64033 7.61918
2 1 7.34929 8.52046 7.63413
ITEM: TIMESTEP
3400
ITEM: NUMBER OF ATOMS
10
ITEM: BOX BOUNDS pp pp pp
0.0000000000000000e+00 1.5000000000000000e+01
0.0000000000000000e+00 1.5000000000000000e+01
0.0000000000000000e+00 1.5000000000000000e+01
ITEM: ATOMS id type x y z
10 2 7.08949 5.71637 6.72453
9 2 8.16588 5.97 8.01718
4 1 7.53889 6.54555 7.37541
8 2 5.87087 7.47847 8.91785
5 2 9.24511 7.70834 6.77782
6 2 7.81901 7.88856 5.7747
1 1 8.15694 7.62565 6.76879
3 1 6.70969 7.48321 8.2144
7 2 7.55407 9.57595 7.94298
2 1 7.49108 8.49264 7.76372
ITEM: TIMESTEP
3500
ITEM: NUMBER OF ATOMS
10
ITEM: BOX BOUNDS pp pp pp
0.0000000000000000e+00 1.5000000000000000e+01
0.0000000000000000e+00 1.5000000000000000e+01
0.0000000000000000e+00 1.5000000000000000e+01
ITEM: ATOMS id type x y z
10 2 6.76388 6.13946 6.45696
9 2 8.06484 5.61547 7.69314
4 1 7.45442 6.49599 7.2466
8 2 6.08688 7.3859 9.20534
5 2 9.30472 7.64953 7.05688
6 2 8.17981 7.83966 5.70402
1 1 8.20014 7.64539 6.80855
3 1 6.81525 7.48333 8.36297
7 2 7.30704 9.60617 7.73752
2 1 7.433 8.53926 7.7544
ITEM: TIMESTEP
3600
ITEM: NUMBER OF ATOMS
10
ITEM: BOX BOUNDS pp pp pp
0.0000000000000000e+00 1.5000000000000000e+01
0.0000000000000000e+00 1.5000000000000000e+01
0.0000000000000000e+00 1.5000000000000000e+01
ITEM: ATOMS id type x y z
10 2 6.80445 6.14328 6.48502
9 2 8.06198 5.74543 7.58339
4 1 7.41097 6.54574 7.25702
8 2 6.10243 7.37999 9.08274
5 2 9.27129 7.60016 6.97915
6 2 7.95685 7.90381 5.72487
1 1 8.19053 7.65878 6.79496
3 1 6.78327 7.46863 8.28666
7 2 7.50137 9.58332 8.03338
2 1 7.5195 8.47085 7.82811
ITEM: TIMESTEP
3700
ITEM: NUMBER OF ATOMS
10
ITEM: BOX BOUNDS pp pp pp
0.0000000000000000e+00 1.5000000000000000e+01
0.0000000000000000e+00 1.5000000000000000e+01
0.0000000000000000e+00 1.5000000000000000e+01
ITEM: ATOMS id type x y z
10 2 6.79369 5.92843 6.50047
9 2 8.05448 5.84029 7.64907
4 1 7.43552 6.5596 7.1982
8 2 5.96781 7.48175 9.08635
5 2 9.27755 7.63481 6.64633
6 2 7.90554 8.03788 5.74245
1 1 8.15137 7.65319 6.76425
3 1 6.71222 7.47553 8.23605
7 2 7.85742 9.39935 8.32101
2 1 7.57881 8.46127 7.95871
ITEM: TIMESTEP
3800
ITEM: NUMBER OF ATOMS
10
ITEM: BOX BOUNDS pp pp pp
0.0000000000000000e+00 1.5000000000000000e+01
0.0000000000000000e+00 1.5000000000000000e+01
0.0000000000000000e+00 1.5000000000000000e+01
ITEM: ATOMS id type x y z
10 2 6.49765 6.47237 6.41313
9 2 7.85371 5.57706 7.28806
4 1 7.32932 6.57834 7.15036
3 1 6.85076 7.41777 8.35015
8 2 6.22438 7.32463 9.22534
5 2 9.28701 7.51525 7.04481
6 2 8.08845 8.1065 5.80764
1 1 8.21447 7.66609 6.79597
2 1 7.54113 8.45774 7.84901
7 2 7.55868 9.50452 8.23705
ITEM: TIMESTEP
3900
ITEM: NUMBER OF ATOMS
10
ITEM: BOX BOUNDS pp pp pp
0.0000000000000000e+00 1.5000000000000000e+01
0.0000000000000000e+00 1.5000000000000000e+01
0.0000000000000000e+00 1.5000000000000000e+01
ITEM: ATOMS id type x y z
10 2 6.58701 6.24788 6.41809
9 2 7.88641 5.57038 7.38484
4 1 7.35522 6.56944 7.12869
3 1 6.78323 7.4288 8.29569
8 2 6.0194 7.39583 9.07964
5 2 9.22561 7.53117 6.67445
6 2 7.9335 8.18851 5.83112
1 1 8.17621 7.70174 6.78654
2 1 7.61835 8.44613 7.97042
7 2 7.87401 9.40956 8.41286
ITEM: TIMESTEP
4000
ITEM: NUMBER OF ATOMS
10
ITEM: BOX BOUNDS pp pp pp
0.0000000000000000e+00 1.5000000000000000e+01
0.0000000000000000e+00 1.5000000000000000e+01
0.0000000000000000e+00 1.5000000000000000e+01
ITEM: ATOMS id type x y z
10 2 6.58317 6.35274 6.28489
9 2 7.9002 5.71891 7.33888
4 1 7.32286 6.61483 7.11363
3 1 6.81018 7.42476 8.29211
8 2 6.05882 7.31973 9.12559
5 2 9.22059 7.49698 6.82855
6 2 7.88593 8.26662 5.8678
1 1 8.14305 7.66092 6.76158
2 1 7.63912 8.42726 7.98871
7 2 7.98404 9.29843 8.50708
ITEM: TIMESTEP
4100
ITEM: NUMBER OF ATOMS
10
ITEM: BOX BOUNDS pp pp pp
0.0000000000000000e+00 1.5000000000000000e+01
0.0000000000000000e+00 1.5000000000000000e+01
0.0000000000000000e+00 1.5000000000000000e+01
ITEM: ATOMS id type x y z
10 2 6.45459 6.67722 6.25071
9 2 7.56794 5.6096 7.02396
4 1 7.24003 6.62919 7.03619
3 1 6.89874 7.35701 8.38628
8 2 6.28403 7.17578 9.2147
5 2 9.24413 7.39308 6.95525
6 2 8.19026 8.15712 5.79768
1 1 8.17521 7.71491 6.79314
2 1 7.59586 8.4264 7.99448
7 2 7.92403 9.44215 8.38612
ITEM: TIMESTEP
4200
ITEM: NUMBER OF ATOMS
10
ITEM: BOX BOUNDS pp pp pp
0.0000000000000000e+00 1.5000000000000000e+01
0.0000000000000000e+00 1.5000000000000000e+01
0.0000000000000000e+00 1.5000000000000000e+01
ITEM: ATOMS id type x y z
10 2 6.53673 6.44514 6.25186
9 2 7.75697 5.666 7.31017
4 1 7.23258 6.65005 7.02767
3 1 6.79497 7.40507 8.29952
8 2 5.89164 7.3485 9.00067
5 2 9.23731 7.59828 6.61576
6 2 7.75102 8.39692 5.89145
1 1 8.1224 7.74842 6.78312
2 1 7.80548 8.30442 8.08847
7 2 8.21771 9.11738 8.62647
ITEM: TIMESTEP
4300
ITEM: NUMBER OF ATOMS
10
ITEM: BOX BOUNDS pp pp pp
0.0000000000000000e+00 1.5000000000000000e+01
0.0000000000000000e+00 1.5000000000000000e+01
0.0000000000000000e+00 1.5000000000000000e+01
ITEM: ATOMS id type x y z
10 2 6.30299 6.74385 6.2571
9 2 7.47976 5.68165 7.0111
4 1 7.17612 6.73384 6.95407
3 1 6.86743 7.31725 8.34801
8 2 6.15832 7.14662 9.13272
5 2 9.21203 7.50085 6.86835
6 2 8.01683 8.42833 5.9213
1 1 8.14725 7.70056 6.7698
2 1 7.77236 8.32312 8.11577
7 2 8.17513 9.27009 8.57248
ITEM: TIMESTEP
4400
ITEM: NUMBER OF ATOMS
10
ITEM: BOX BOUNDS pp pp pp
0.0000000000000000e+00 1.5000000000000000e+01
0.0000000000000000e+00 1.5000000000000000e+01
0.0000000000000000e+00 1.5000000000000000e+01
ITEM: ATOMS id type x y z
10 2 6.18539 6.91205 6.26248
9 2 7.36574 5.71151 6.8131
4 1 7.11437 6.75294 6.94084
3 1 6.89348 7.31038 8.33227
8 2 6.25559 6.99558 9.17706
5 2 9.20432 7.41604 6.81342
6 2 8.1247 8.3964 5.95327
1 1 8.16894 7.74595 6.78687
2 1 7.78723 8.2922 8.14634
7 2 8.20412 9.17966 8.63174
ITEM: TIMESTEP
4500
ITEM: NUMBER OF ATOMS
10
ITEM: BOX BOUNDS pp pp pp
0.0000000000000000e+00 1.5000000000000000e+01
0.0000000000000000e+00 1.5000000000000000e+01
0.0000000000000000e+00 1.5000000000000000e+01
ITEM: ATOMS id type x y z
10 2 6.2672 6.74059 6.23876
9 2 7.62945 5.73097 6.95633
4 1 7.12919 6.78456 6.94447
5 2 9.18194 7.4778 6.52222
3 1 6.79981 7.39518 8.3057
8 2 6.05149 7.10964 9.05249
1 1 8.12845 7.77354 6.77836
6 2 7.83253 8.56537 6.06558
2 1 7.89747 8.17287 8.17878
7 2 8.43194 8.83873 8.80975
ITEM: TIMESTEP
4600
ITEM: NUMBER OF ATOMS
10
ITEM: BOX BOUNDS pp pp pp
0.0000000000000000e+00 1.5000000000000000e+01
0.0000000000000000e+00 1.5000000000000000e+01
0.0000000000000000e+00 1.5000000000000000e+01
ITEM: ATOMS id type x y z
10 2 6.19199 7.09087 6.37129
9 2 7.27925 5.78792 6.62692
4 1 7.08923 6.8465 6.87938
5 2 9.13991 7.29298 6.67449
3 1 6.89004 7.2686 8.36158
8 2 6.2659 6.936 9.1745
1 1 8.16606 7.73143 6.78697
6 2 8.10114 8.49875 5.97564
2 1 7.82532 8.23741 8.19472
7 2 8.32186 9.10978 8.73022
ITEM: TIMESTEP
4700
ITEM: NUMBER OF ATOMS
10
ITEM: BOX BOUNDS pp pp pp
0.0000000000000000e+00 1.5000000000000000e+01
0.0000000000000000e+00 1.5000000000000000e+01
0.0000000000000000e+00 1.5000000000000000e+01
ITEM: ATOMS id type x y z
10 2 6.16038 7.08841 6.25379
9 2 7.35078 5.88049 6.68834
4 1 7.04136 6.83151 6.91621
5 2 9.19581 7.40741 6.551
3 1 6.87928 7.2925 8.30791
8 2 6.13922 7.03653 9.11488
1 1 8.14113 7.76218 6.77347
6 2 7.94587 8.65482 6.14216
2 1 7.92218 8.16876 8.21448
7 2 8.4283 8.82263 8.8664
ITEM: TIMESTEP
4800
ITEM: NUMBER OF ATOMS
10
ITEM: BOX BOUNDS pp pp pp
0.0000000000000000e+00 1.5000000000000000e+01
0.0000000000000000e+00 1.5000000000000000e+01
0.0000000000000000e+00 1.5000000000000000e+01
ITEM: ATOMS id type x y z
10 2 6.13802 6.94774 6.18006
9 2 7.31365 5.78125 6.78866
4 1 7.04704 6.88062 6.82121
5 2 9.14788 7.39354 6.45638
3 1 6.83007 7.32616 8.34372
8 2 6.15479 7.08836 9.14486
1 1 8.0968 7.85573 6.7733
6 2 7.98094 8.74768 6.11476
2 1 7.97755 8.05987 8.26113
7 2 8.67995 8.52715 9.00816
ITEM: TIMESTEP
4900
ITEM: NUMBER OF ATOMS
10
ITEM: BOX BOUNDS pp pp pp
0.0000000000000000e+00 1.5000000000000000e+01
0.0000000000000000e+00 1.5000000000000000e+01
0.0000000000000000e+00 1.5000000000000000e+01
ITEM: ATOMS id type x y z
10 2 6.18007 7.53421 6.35303
9 2 7.00469 5.96498 6.4679
4 1 6.94664 7.03382 6.82886
5 2 9.03382 7.23005 6.68453
3 1 6.98181 7.14294 8.34956
8 2 6.35383 6.82463 9.20369
1 1 8.13628 7.77702 6.77963
6 2 8.23895 8.62621 6.11511
2 1 7.92583 8.09624 8.22423
7 2 8.36925 8.73975 8.97105
ITEM: TIMESTEP
5000
ITEM: NUMBER OF ATOMS
10
ITEM: BOX BOUNDS pp pp pp
0.0000000000000000e+00 1.5000000000000000e+01
0.0000000000000000e+00 1.5000000000000000e+01
0.0000000000000000e+00 1.5000000000000000e+01
ITEM: ATOMS id type x y z
10 2 6.10511 7.31547 6.08513
9 2 7.08743 5.96063 6.54953
4 1 6.9567 7.0269 6.82248
5 2 9.01775 7.4551 6.33136
3 1 6.90214 7.2266 8.32889
8 2 6.17346 7.12695 9.16287
1 1 8.12092 7.8434 6.76598
6 2 7.9254 8.81842 6.27091
2 1 8.04246 7.92349 8.3244
7 2 8.6815 8.42109 9.0387
ITEM: TIMESTEP
5100
ITEM: NUMBER OF ATOMS
10
ITEM: BOX BOUNDS pp pp pp
0.0000000000000000e+00 1.5000000000000000e+01
0.0000000000000000e+00 1.5000000000000000e+01
0.0000000000000000e+00 1.5000000000000000e+01
ITEM: ATOMS id type x y z
10 2 6.06969 7.55923 6.15693
9 2 7.0963 6.02448 6.46576
4 1 6.92512 7.0623 6.79099
3 1 6.90811 7.22267 8.34402
8 2 6.29136 6.92378 9.14956
1 1 8.08751 7.8766 6.78916
6 2 8.06877 8.81256 6.2519
5 2 8.98206 7.26675 6.43159
2 1 8.06426 7.8879 8.29976
7 2 8.70575 8.33637 9.08966
ITEM: TIMESTEP
5200
ITEM: NUMBER OF ATOMS
10
ITEM: BOX BOUNDS pp pp pp
0.0000000000000000e+00 1.5000000000000000e+01
0.0000000000000000e+00 1.5000000000000000e+01
0.0000000000000000e+00 1.5000000000000000e+01
ITEM: ATOMS id type x y z
10 2 6.05789 7.68296 6.34895
9 2 6.85843 6.19187 6.26771
4 1 6.87544 7.16614 6.77877
3 1 6.9513 7.13406 8.33063
8 2 6.36357 6.68808 9.20099
1 1 8.12898 7.81406 6.80358
6 2 8.21206 8.7566 6.24765
5 2 8.96463 7.21333 6.44143
2 1 8.05597 7.93278 8.30153
7 2 8.59727 8.40497 9.09527
ITEM: TIMESTEP
5300
ITEM: NUMBER OF ATOMS
10
ITEM: BOX BOUNDS pp pp pp
0.0000000000000000e+00 1.5000000000000000e+01
0.0000000000000000e+00 1.5000000000000000e+01
0.0000000000000000e+00 1.5000000000000000e+01
ITEM: ATOMS id type x y z
10 2 6.01085 7.51838 6.28607
9 2 7.07296 6.1192 6.40503
4 1 6.88752 7.14149 6.78775
3 1 6.86172 7.24226 8.30338
8 2 6.27262 7.01809 9.1494
1 1 8.11368 7.86069 6.79435
6 2 8.00126 8.99923 6.55419
5 2 8.98922 7.52556 6.19612
2 1 8.12885 7.74758 8.30927
7 2 8.82645 8.08746 9.12967
ITEM: TIMESTEP
5400
ITEM: NUMBER OF ATOMS
10
ITEM: BOX BOUNDS pp pp pp
0.0000000000000000e+00 1.5000000000000000e+01
0.0000000000000000e+00 1.5000000000000000e+01
0.0000000000000000e+00 1.5000000000000000e+01
ITEM: ATOMS id type x y z
10 2 5.98669 7.93414 6.53907
9 2 6.76739 6.33336 6.15856
4 1 6.8566 7.20617 6.77536
3 1 6.93529 7.14741 8.33445
8 2 6.34063 6.60969 9.11219
1 1 8.11929 7.8804 6.77429
6 2 8.2975 8.93316 6.42711
5 2 8.9283 7.1824 6.34044
2 1 8.1051 7.76911 8.31693
7 2 8.70579 8.20874 9.10544
ITEM: TIMESTEP
5500
ITEM: NUMBER OF ATOMS
10
ITEM: BOX BOUNDS pp pp pp
0.0000000000000000e+00 1.5000000000000000e+01
0.0000000000000000e+00 1.5000000000000000e+01
0.0000000000000000e+00 1.5000000000000000e+01
ITEM: ATOMS id type x y z
10 2 5.95501 7.95318 6.50314
9 2 6.66288 6.39613 6.17811
4 1 6.82227 7.33941 6.77766
3 1 6.95003 7.10121 8.30789
8 2 6.3111 6.5655 9.04647
1 1 8.14398 7.85737 6.83557
6 2 8.21507 8.84879 6.50998
5 2 8.83392 7.35833 6.17157
2 1 8.12879 7.72017 8.31909
7 2 8.87565 7.98909 9.03847
ITEM: TIMESTEP
5600
ITEM: NUMBER OF ATOMS
10
ITEM: BOX BOUNDS pp pp pp
0.0000000000000000e+00 1.5000000000000000e+01
0.0000000000000000e+00 1.5000000000000000e+01
0.0000000000000000e+00 1.5000000000000000e+01
ITEM: ATOMS id type x y z
10 2 6.00298 7.95597 6.33221
9 2 6.89513 6.28603 6.27762
4 1 6.80074 7.34873 6.83015
3 1 6.90104 7.1657 8.30678
8 2 6.20058 6.76226 8.9872
1 1 8.09406 7.92829 6.81007
6 2 8.11083 9.04411 6.71457
5 2 8.83797 7.52939 6.16381
2 1 8.20476 7.56465 8.28662
7 2 9.07292 7.59801 9.01185
ITEM: TIMESTEP
5700
ITEM: NUMBER OF ATOMS
10
ITEM: BOX BOUNDS pp pp pp
0.0000000000000000e+00 1.5000000000000000e+01
0.0000000000000000e+00 1.5000000000000000e+01
0.0000000000000000e+00 1.5000000000000000e+01
ITEM: ATOMS id type x y z
4 1 6.80167 7.40816 6.80927
9 2 6.38692 6.62662 6.12783
5 2 8.78613 7.26491 6.26601
3 1 6.94012 7.00964 8.26042
8 2 6.27154 6.43821 8.99334
1 1 8.12402 7.94149 6.82286
6 2 8.37276 8.95861 6.45884
10 2 6.05732 8.25972 6.72173
2 1 8.18979 7.60209 8.32269
7 2 8.91577 7.90367 9.02981
ITEM: TIMESTEP
5800
ITEM: NUMBER OF ATOMS
10
ITEM: BOX BOUNDS pp pp pp
0.0000000000000000e+00 1.5000000000000000e+01
0.0000000000000000e+00 1.5000000000000000e+01
0.0000000000000000e+00 1.5000000000000000e+01
ITEM: ATOMS id type x y z
4 1 6.76632 7.46424 6.82718