LAMMPS (2 Aug 2023 - Update 2)
#13 Butadiene
units           metal
boundary        p p p
atom_style      atomic

neighbor        2.0 bin
neigh_modify    delay 0 every 1 check yes

read_data       restart.lmp
Reading data file ...
  orthogonal box = (0 0 0) to (15 15 15)
  1 by 2 by 2 MPI processor grid
  reading atoms ...
  10 atoms
  reading velocities ...
  10 velocities
  read_data CPU = 0.005 seconds
mass            1 12.0
mass            2 2

variable        sysvol          equal vol
variable        sysmass         equal mass(all)/6.0221367e+23
variable        sysdensity      equal v_sysmass/v_sysvol/1.0e-24
variable	out_freq 	equal 100

pair_style      deepmd ../files/frozen_model_1_compressed.pb ../files/frozen_model_2_compressed.pb ../files/frozen_model_3_compressed.pb ../files/frozen_model_3_compressed.pb out_file md.out out_freq 10 atomic relative 1.0
Summary of lammps deepmd module ...
  >>> Info of deepmd-kit:
  installed to:       /rs1/researchers/w/wjpfaend/rahul/MLP/DeePMD-kit/deepmd_cpu
  source:             v2.2.8-dirty
  source branch:      master
  source commit:      b875ea8
  source commit at:   2024-01-22 22:28:58 -0500
  support model ver.: 1.1 
  build variant:      cpu
  build with tf inc:  /rs1/researchers/w/wjpfaend/rahul/MLP/DeePMD-kit/tensorflow/lib/python3.11/site-packages/tensorflow/include;/rs1/researchers/w/wjpfaend/rahul/MLP/DeePMD-kit/tensorflow/lib/python3.11/site-packages/tensorflow/include
  build with tf lib:  /rs1/researchers/w/wjpfaend/rahul/MLP/DeePMD-kit/tensorflow/lib/python3.11/site-packages/tensorflow/libtensorflow_cc.so.2
  set tf intra_op_parallelism_threads: 0
  set tf inter_op_parallelism_threads: 0
  >>> Info of lammps module:
  use deepmd-kit at:  /rs1/researchers/w/wjpfaend/rahul/MLP/DeePMD-kit/deepmd_cpu
  source:             v2.2.8-dirty
  source branch:      master
  source commit:      b875ea8
  source commit at:   2024-01-22 22:28:58 -0500
  build float prec:   double
  build with tf inc:  /rs1/researchers/w/wjpfaend/rahul/MLP/DeePMD-kit/tensorflow/lib/python3.11/site-packages/tensorflow/include;/rs1/researchers/w/wjpfaend/rahul/MLP/DeePMD-kit/tensorflow/lib/python3.11/site-packages/tensorflow/include
  build with tf lib:  /rs1/researchers/w/wjpfaend/rahul/MLP/DeePMD-kit/tensorflow/lib/python3.11/site-packages/tensorflow/libtensorflow_cc.so.2
pair_coeff	* *

#
velocity        all create 300.0 2345678 rot no dist gaussian
fix             1 all nvt temp 300.0 300.0 0.05
fix             2 all plumed plumedfile plumed.dat outfile PLUMED.log

timestep        0.0005
thermo_style    custom step pe ke etotal v_sysdensity temp press vol
thermo          10

dump            10 all custom 100 btd.dump id type x y z
dump		101 all xyz 20 btd.xyz
dump_modify	101 element C H

fix		extra all print 20 "$(step), $(ke), $(pe), $(etotal), $(temp), $(press), $(vol)" file logfile screen no

restart	        20000 dump.restart

run             50000

CITE-CITE-CITE-CITE-CITE-CITE-CITE-CITE-CITE-CITE-CITE-CITE-CITE

Your simulation uses code contributions which should be cited:

- USER-DEEPMD package:

@article{Wang_ComputPhysCommun_2018_v228_p178,
  author = {Wang, Han and Zhang, Linfeng and Han, Jiequn and E, Weinan},
  doi = {10.1016/j.cpc.2018.03.016},
  url = {https://doi.org/10.1016/j.cpc.2018.03.016},
  year = 2018,
  month = {jul},
  publisher = {Elsevier {BV}},
  volume = 228,
  journal = {Comput. Phys. Commun.},
  title = {{DeePMD-kit: A deep learning package for many-body potential energy representation and molecular dynamics}},
  pages = {178--184}
}
@misc{Zeng_JChemPhys_2023_v159_p054801,
  title  = {{DeePMD-kit v2: A software package for deep potential models}},
  author =   {Jinzhe Zeng and Duo Zhang and Denghui Lu and Pinghui Mo and Zeyu Li
         and Yixiao Chen and Mari{\'a}n Rynik and Li'ang Huang and Ziyao Li and 
         Shaochen Shi and Yingze Wang and Haotian Ye and Ping Tuo and Jiabin
         Yang and Ye Ding and Yifan Li and Davide Tisi and Qiyu Zeng and Han 
         Bao and Yu Xia and Jiameng Huang and Koki Muraoka and Yibo Wang and 
         Junhan Chang and Fengbo Yuan and Sigbj{\o}rn L{\o}land Bore and Chun
         Cai and Yinnian Lin and Bo Wang and Jiayan Xu and Jia-Xin Zhu and 
         Chenxing Luo and Yuzhi Zhang and Rhys E A Goodall and Wenshuo Liang
         and Anurag Kumar Singh and Sikai Yao and Jingchao Zhang and Renata
         Wentzcovitch and Jiequn Han and Jie Liu and Weile Jia and Darrin M
         York and Weinan E and Roberto Car and Linfeng Zhang and Han Wang},
  journal =  {J. Chem. Phys.},
  volume =   159,
  issue =    5,  
  year =    2023,
  pages  =   054801,
  doi =      {10.1063/5.0155600},
}

CITE-CITE-CITE-CITE-CITE-CITE-CITE-CITE-CITE-CITE-CITE-CITE-CITE

Generated 0 of 1 mixed pair_coeff terms from geometric mixing rule
Neighbor list info ...
  update: every = 1 steps, delay = 0 steps, check = yes
  max neighbors/atom: 2000, page size: 100000
  master list distance cutoff = 8
  ghost atom cutoff = 8
  binsize = 4, bins = 4 4 4
  1 neighbor lists, perpetual/occasional/extra = 1 0 0
  (1) pair deepmd, perpetual
      attributes: full, newton on
      pair build: full/bin/atomonly
      stencil: full/bin/3d
      bin: standard
Per MPI rank memory allocation (min/avg/max) = 2.965 | 3.059 | 3.09 Mbytes
   Step         PotEng         KinEng         TotEng      v_sysdensity       Temp          Press          Volume    
         0  -56.111846      0.34900239    -55.762843      0.029520714    300            287.82285      3375         
        10  -55.63835       0.30005078    -55.338299      0.029520714    257.92154      769.02796      3375         
        20  -55.743995      0.3557598     -55.388235      0.029520714    305.80862      98.533279      3375         
        30  -55.680897      0.3309189     -55.349978      0.029520714    284.45555     -124.75633      3375         
        40  -55.646808      0.32335025    -55.323458      0.029520714    277.9496       28.40939       3375         
        50  -55.678215      0.30863622    -55.369579      0.029520714    265.30152     -39.400258      3375         
        60  -55.625846      0.26995147    -55.355895      0.029520714    232.04838     -557.16139      3375         
        70  -55.584045      0.25807184    -55.325973      0.029520714    221.83673     -681.80886      3375         
        80  -55.714062      0.36474081    -55.349321      0.029520714    313.52864      769.28247      3375         
        90  -55.609019      0.27253995    -55.336479      0.029520714    234.27343      1205.279       3375         
       100  -55.528327      0.20544921    -55.322878      0.029520714    176.6027      -244.51053      3375         
       110  -55.678001      0.3414969     -55.336504      0.029520714    293.54833     -851.02342      3375         
       120  -55.627029      0.34031313    -55.286716      0.029520714    292.53078      31.750484      3375         
       130  -55.539669      0.25822795    -55.281441      0.029520714    221.97093     -49.424729      3375         
       140  -55.770655      0.47451461    -55.29614       0.029520714    407.88942     -287.51619      3375         
       150  -55.686743      0.47170337    -55.21504       0.029520714    405.47289      269.97574      3375         
       160  -55.492219      0.29322882    -55.198991      0.029520714    252.05743      682.19726      3375         
       170  -55.71617       0.49694628    -55.219224      0.029520714    427.17152      361.27309      3375         
       180  -55.603473      0.46299666    -55.140476      0.029520714    397.98867     -546.8909       3375         
       190  -55.403368      0.29517611    -55.108192      0.029520714    253.73131     -927.85693      3375         
       200  -55.628963      0.49367944    -55.135284      0.029520714    424.36338     -388.74059      3375         
       210  -55.565643      0.50510068    -55.060543      0.029520714    434.18099      303.79306      3375         
       220  -55.314001      0.28604128    -55.02796       0.029520714    245.87907      946.12476      3375         
       230  -55.486761      0.43906242    -55.047699      0.029520714    377.41497      1002.6186      3375         
       240  -55.5356        0.5371244     -54.998476      0.029520714    461.70836     -201.62606      3375         
       250  -55.393802      0.41723743    -54.976564      0.029520714    358.65436     -1333.6631      3375         
       260  -55.467615      0.48088173    -54.986733      0.029520714    413.36255     -415.60154      3375         
       270  -55.471457      0.53169895    -54.939758      0.029520714    457.04467      276.57006      3375         
       280  -55.415406      0.46458086    -54.950825      0.029520714    399.35044     -8.784729       3375         
       290  -55.655295      0.67236097    -54.982934      0.029520714    577.95676      390.34003      3375         
       300  -55.553747      0.63923945    -54.914507      0.029520714    549.48573      839.12992      3375         
       310  -55.417675      0.45378008    -54.963895      0.029520714    390.06616      169.26084      3375         
       320  -55.488615      0.46239608    -55.026219      0.029520714    397.47242     -823.17316      3375         
       330  -55.420266      0.45078226    -54.969484      0.029520714    387.48926     -1188.5016      3375         
       340  -55.502305      0.49364216    -55.008663      0.029520714    424.33133      71.395534      3375         
       350  -55.562126      0.48256273    -55.079564      0.029520714    414.80753      1075.8192      3375         
       360  -55.378923      0.3206478     -55.058275      0.029520714    275.62659      178.08663      3375         
       370  -55.395552      0.32490753    -55.070644      0.029520714    279.28823     -131.43491      3375         
       380  -55.633427      0.51700332    -55.116423      0.029520714    444.41241      583.29825      3375         
       390  -55.624393      0.50124383    -55.12315       0.029520714    430.86567     -332.45737      3375         
       400  -55.402815      0.25421825    -55.148597      0.029520714    218.52422     -1299.8095      3375         
       410  -55.572179      0.41283716    -55.159341      0.029520714    354.87192      67.290558      3375         
       420  -55.668011      0.5188443     -55.149167      0.029520714    445.99491      1242.6319      3375         
       430  -55.63          0.42940625    -55.200594      0.029520714    369.11459      345.63666      3375         
       440  -55.64562       0.42545256    -55.220168      0.029520714    365.71603     -578.7667       3375         
       450  -55.621738      0.45206425    -55.169674      0.029520714    388.59125     -186.93952      3375         
       460  -55.500442      0.27825525    -55.222186      0.029520714    239.18626      88.666839      3375         
       470  -55.644126      0.3848831     -55.259243      0.029520714    330.84281     -422.40436      3375         
       480  -55.649422      0.45536873    -55.194053      0.029520714    391.43175     -639.03975      3375         
       490  -55.542169      0.31063377    -55.231535      0.029520714    267.0186       575.24836      3375         
       500  -55.544498      0.2786145     -55.265884      0.029520714    239.49506      1204.8708      3375         
       510  -55.562804      0.33280352    -55.230001      0.029520714    286.07556      161.05481      3375         
       520  -55.616901      0.36865327    -55.248248      0.029520714    316.89176     -756.30216      3375         
       530  -55.68897       0.42656351    -55.262407      0.029520714    366.67099     -528.80474      3375         
       540  -55.55411       0.31522802    -55.238882      0.029520714    270.96778     -268.81672      3375         
       550  -55.55422       0.28632706    -55.267893      0.029520714    246.12472      51.855392      3375         
       560  -55.79444       0.52433781    -55.270103      0.029520714    450.71709      566.66742      3375         
       570  -55.63914       0.39519786    -55.243942      0.029520714    339.7093       504.84106      3375         
       580  -55.60544       0.31800187    -55.287438      0.029520714    273.35217     -178.89243      3375         
       590  -55.662975      0.36734461    -55.29563       0.029520714    315.76684     -246.62109      3375         
       600  -55.614659      0.35600498    -55.258654      0.029520714    306.01938     -27.257141      3375         
       610  -55.643351      0.33576634    -55.307585      0.029520714    288.62238     -463.41391      3375         
       620  -55.617889      0.30405208    -55.313837      0.029520714    261.36103     -402.49959      3375         
       630  -55.567466      0.29090742    -55.276559      0.029520714    250.06197      467.86242      3375         
       640  -55.633684      0.31499716    -55.318687      0.029520714    270.76934      932.80592      3375         
       650  -55.635954      0.30643625    -55.329518      0.029520714    263.41044      223.82331      3375         
       660  -55.553491      0.26107619    -55.292415      0.029520714    224.41926     -752.29021      3375         
       670  -55.659158      0.33088729    -55.328271      0.029520714    284.42839     -724.31253      3375         
       680  -55.67525       0.34157957    -55.33367       0.029520714    293.61939      194.15859      3375         
       690  -55.664738      0.35827268    -55.306466      0.029520714    307.96867      347.69365      3375         
       700  -55.686011      0.3462397     -55.339772      0.029520714    297.62521      164.69566      3375         
       710  -55.613193      0.27735509    -55.335838      0.029520714    238.41248      417.59306      3375         
       720  -55.699559      0.3809108     -55.318648      0.029520714    327.42824      75.581708      3375         
       730  -55.68481       0.33038025    -55.35443       0.029520714    283.99254     -445.20766      3375         
       740  -55.634841      0.28845986    -55.346381      0.029520714    247.95807     -511.4838       3375         
       750  -55.642621      0.31814618    -55.324475      0.029520714    273.47622     -369.91948      3375         
       760  -55.633279      0.26758394    -55.365695      0.029520714    230.01328      152.96045      3375         
       770  -55.599416      0.240148      -55.359268      0.029520714    206.42953      734.65639      3375         
       780  -55.665693      0.33616143    -55.329532      0.029520714    288.962        643.62868      3375         
       790  -55.658772      0.29622497    -55.362547      0.029520714    254.6329      -43.088228      3375         
       800  -55.621692      0.2584729     -55.363219      0.029520714    222.18149     -602.68199      3375         
       810  -55.603992      0.27371487    -55.330277      0.029520714    235.28338     -841.97781      3375         
       820  -55.672293      0.31963292    -55.35266       0.029520714    274.75421     -2.5862125      3375         
       830  -55.81423       0.47403074    -55.3402        0.029520714    407.47349      726.73676      3375         
       840  -55.655792      0.33443784    -55.321354      0.029520714    287.48041      142.06017      3375         
       850  -55.589628      0.24933622    -55.340292      0.029520714    214.32766     -20.613122      3375         
       860  -55.667541      0.35236117    -55.31518       0.029520714    302.88718      572.64664      3375         
       870  -55.703311      0.40215423    -55.301156      0.029520714    345.68894     -247.62556      3375         
       880  -55.682311      0.3580849     -55.324226      0.029520714    307.80726     -1214.0712      3375         
       890  -55.542907      0.26770858    -55.275198      0.029520714    230.12041     -344.16782      3375         
       900  -55.579582      0.31891322    -55.260668      0.029520714    274.13556      908.71108      3375         
       910  -55.637544      0.34333405    -55.29421       0.029520714    295.12753      940.83549      3375         
       920  -55.53091       0.28366739    -55.247243      0.029520714    243.83849     -43.918875      3375         
       930  -55.531405      0.32091047    -55.210495      0.029520714    275.85238     -695.01361      3375         
       940  -55.688127      0.44853525    -55.239592      0.029520714    385.55774     -466.44172      3375         
       950  -55.490843      0.29596893    -55.194874      0.029520714    254.41281      140.30685      3375         
       960  -55.543586      0.39294882    -55.150637      0.029520714    337.77604      120.10967      3375         
       970  -55.777594      0.60765786    -55.169936      0.029520714    522.33842      233.1598       3375         
       980  -55.52723       0.40144279    -55.125787      0.029520714    345.0774       239.33563      3375         
       990  -55.498547      0.40483742    -55.093709      0.029520714    347.9954      -175.11288      3375         
      1000  -55.61027       0.4947288     -55.115542      0.029520714    425.2654       247.40891      3375         
      1010  -55.490798      0.40757763    -55.08322       0.029520714    350.35087      194.11964      3375         
      1020  -55.458633      0.3878432     -55.070789      0.029520714    333.38728     -1201.067       3375         
      1030  -55.572113      0.47807388    -55.094039      0.029520714    410.94894     -794.1117       3375         
      1040  -55.37951       0.33543249    -55.044078      0.029520714    288.33541      1232.6803      3375         
      1050  -55.477194      0.42167725    -55.055517      0.029520714    362.4708       1272.6425      3375         
      1060  -55.549773      0.44624712    -55.103526      0.029520714    383.59088     -361.42517      3375         
      1070  -55.334324      0.29964653    -55.034678      0.029520714    257.57405     -831.76776      3375         
      1080  -55.51221       0.46975395    -55.042456      0.029520714    403.79719     -57.361417      3375         
      1090  -55.619577      0.51917407    -55.100403      0.029520714    446.27838      426.88598      3375         
      1100  -55.493425      0.42383028    -55.069595      0.029520714    364.32152     -677.34247      3375         
      1110  -55.569285      0.51621827    -55.053067      0.029520714    443.73759     -507.38129      3375         
      1120  -55.636346      0.5196123     -55.116734      0.029520714    446.65508      1047.8439      3375         
      1130  -55.618182      0.47927738    -55.138905      0.029520714    411.98347      789.58289      3375         
      1140  -55.556625      0.41967166    -55.136954      0.029520714    360.74681     -481.36438      3375         
      1150  -55.556472      0.36491385    -55.191558      0.029520714    313.67738     -498.64597      3375         
      1160  -55.5243        0.32170615    -55.202594      0.029520714    276.53634     -330.47701      3375         
      1170  -55.594245      0.35835192    -55.235893      0.029520714    308.03679     -351.13212      3375         
      1180  -55.661874      0.38311676    -55.278757      0.029520714    329.32447      441.87665      3375         
      1190  -55.604145      0.32532251    -55.278822      0.029520714    279.64494      788.17588      3375         
      1200  -55.52429       0.21456908    -55.309721      0.029520714    184.44207      160.50933      3375         
      1210  -55.729572      0.36592993    -55.363642      0.029520714    314.55079     -518.24813      3375         
      1220  -55.607769      0.27885147    -55.328917      0.029520714    239.69876     -427.66271      3375         
      1230  -55.596538      0.25266657    -55.343871      0.029520714    217.19041      25.069635      3375         
      1240  -55.803539      0.40677351    -55.396766      0.029520714    349.65965      31.38854       3375         
      1250  -55.735512      0.35830863    -55.377204      0.029520714    307.99958     -177.22198      3375         
      1260  -55.63864       0.26686008    -55.37178       0.029520714    229.39105      611.92772      3375         
      1270  -55.778592      0.36942819    -55.409164      0.029520714    317.55787      901.25676      3375         
      1280  -55.759929      0.35158342    -55.408346      0.029520714    302.21863     -519.06715      3375         
      1290  -55.561683      0.16129955    -55.400383      0.029520714    138.65196     -1506.5022      3375         
      1300  -55.725853      0.31797427    -55.407879      0.029520714    273.32844     -291.29816      3375         
      1310  -55.633944      0.23782758    -55.396117      0.029520714    204.43492      1266.4445      3375         
      1320  -55.679654      0.26579971    -55.413854      0.029520714    228.47956      619.60041      3375         
      1330  -55.667109      0.2512849     -55.415824      0.029520714    216.00273     -604.78423      3375         
      1340  -55.589505      0.214898      -55.374607      0.029520714    184.7248      -84.066357      3375         
      1350  -55.65268       0.25569367    -55.396986      0.029520714    219.79248      464.33948      3375         
      1360  -55.707714      0.28648581    -55.421228      0.029520714    246.26118     -334.04821      3375         
      1370  -55.615898      0.26094148    -55.354957      0.029520714    224.30346     -713.95778      3375         
      1380  -55.643519      0.28202182    -55.361497      0.029520714    242.42397      127.30165      3375         
      1390  -55.823097      0.43397544    -55.389122      0.029520714    373.04223      612.59764      3375         
      1400  -55.691194      0.34466861    -55.346525      0.029520714    296.27471      185.72016      3375         
      1410  -55.645135      0.3188331     -55.326301      0.029520714    274.06669     -30.83301       3375         
      1420  -55.635874      0.29083724    -55.345037      0.029520714    250.00165      27.169704      3375         
      1430  -55.689749      0.35423374    -55.335515      0.029520714    304.49683     -582.30298      3375         
      1440  -55.575526      0.25874083    -55.316785      0.029520714    222.4118      -602.85384      3375         
      1450  -55.602405      0.29720974    -55.305196      0.029520714    255.4794       693.81252      3375         
      1460  -55.653074      0.36090524    -55.292168      0.029520714    310.23161      916.69608      3375         
      1470  -55.575341      0.2687999     -55.306541      0.029520714    231.05851     -515.26306      3375         
      1480  -55.568143      0.28147878    -55.286665      0.029520714    241.95718     -699.16861      3375         
      1490  -55.664027      0.4238188     -55.240209      0.029520714    364.31166      738.04673      3375         
      1500  -55.588792      0.32492324    -55.263868      0.029520714    279.30174      298.12677      3375         
      1510  -55.573062      0.2971518     -55.27591       0.029520714    255.4296      -1167.4563      3375         
      1520  -55.666287      0.47654474    -55.189742      0.029520714    409.6345      -451.07709      3375         
      1530  -55.613491      0.40749854    -55.205992      0.029520714    350.28288      1288.0689      3375         
      1540  -55.704529      0.46301133    -55.241517      0.029520714    398.00128      876.70618      3375         
      1550  -55.665088      0.48970256    -55.175385      0.029520714    420.94487     -749.23678      3375         
      1560  -55.504548      0.33923838    -55.16531       0.029520714    291.60692     -813.41208      3375         
      1570  -55.598588      0.40347478    -55.195113      0.029520714    346.82408      219.7303       3375         
      1580  -55.615187      0.43760433    -55.177583      0.029520714    376.1616      -16.452437      3375         
      1590  -55.538769      0.38002804    -55.158741      0.029520714    326.66943     -455.27881      3375         
      1600  -55.512104      0.34371892    -55.168385      0.029520714    295.45837      517.7956       3375         
      1610  -55.485407      0.32818388    -55.157223      0.029520714    282.10455      876.25759      3375         
      1620  -55.613353      0.44030142    -55.173051      0.029520714    378.48001     -73.976011      3375         
      1630  -55.564966      0.398771      -55.166195      0.029520714    342.78074     -455.29389      3375         
      1640  -55.461176      0.34104342    -55.120133      0.029520714    293.15852     -229.07751      3375         
      1650  -55.557842      0.40296408    -55.154878      0.029520714    346.38509     -532.25587      3375         
      1660  -55.612634      0.43779143    -55.174842      0.029520714    376.32243     -275.85733      3375         
      1670  -55.49468       0.38066265    -55.114017      0.029520714    327.21494      701.43006      3375         
      1680  -55.697246      0.55682954    -55.140417      0.029520714    478.64675      1084.9689      3375         
      1690  -55.665105      0.47667303    -55.188432      0.029520714    409.74478     -56.679422      3375         
      1700  -55.441466      0.28109034    -55.160376      0.029520714    241.62328     -1319.1141      3375         
      1710  -55.577639      0.41675523    -55.160884      0.029520714    358.23986     -441.54433      3375         
      1720  -55.564641      0.35987964    -55.204761      0.029520714    309.35001      1053.2003      3375         
      1730  -55.577722      0.34437619    -55.233346      0.029520714    296.02335     -21.676162      3375         
      1740  -55.570454      0.32191713    -55.248537      0.029520714    276.7177      -853.69584      3375         
      1750  -55.547537      0.28635211    -55.261185      0.029520714    246.14626      861.7438       3375         
      1760  -55.537439      0.25008653    -55.287353      0.029520714    214.97262      1234.9082      3375         
      1770  -55.734471      0.39920198    -55.335269      0.029520714    343.15121     -900.71881      3375         
      1780  -55.603123      0.2659777     -55.337145      0.029520714    228.63256     -1622.779       3375         
      1790  -55.653798      0.32018952    -55.333608      0.029520714    275.23266     -100.22084      3375         
      1800  -55.725191      0.33966724    -55.385524      0.029520714    291.97557      1307.3152      3375         
      1810  -55.701632      0.28711604    -55.414516      0.029520714    246.80293      814.787        3375         
      1820  -55.713257      0.3293691     -55.383888      0.029520714    283.12336     -374.7132       3375         
      1830  -55.731153      0.31297091    -55.418182      0.029520714    269.02759     -293.64404      3375         
      1840  -55.736623      0.28050086    -55.456123      0.029520714    241.11657     -300.59597      3375         
      1850  -55.616191      0.17832326    -55.437867      0.029520714    153.28542     -675.78047      3375         
      1860  -55.714687      0.27563518    -55.439052      0.029520714    236.93406      12.261852      3375         
      1870  -55.700491      0.23942297    -55.461068      0.029520714    205.8063       840.0843       3375         
      1880  -55.760067      0.29346811    -55.466599      0.029520714    252.26312      408.12985      3375         
      1890  -55.652545      0.18900599    -55.463539      0.029520714    162.46822     -44.942144      3375         
      1900  -55.695924      0.24275426    -55.45317       0.029520714    208.66986      45.347931      3375         
      1910  -55.673312      0.21474026    -55.458572      0.029520714    184.58922     -372.36131      3375         
      1920  -55.781447      0.30177814    -55.479668      0.029520714    259.40637     -1161.7133      3375         
      1930  -55.779539      0.33069547    -55.448843      0.029520714    284.2635      -146.79354      3375         
      1940  -55.669677      0.24404301    -55.425634      0.029520714    209.77766      1704.912       3375         
      1950  -55.760699      0.30272405    -55.457975      0.029520714    260.21946      843.28524      3375         
      1960  -55.712467      0.25159133    -55.460875      0.029520714    216.26614     -1327.8219      3375         
      1970  -55.712155      0.31991107    -55.392244      0.029520714    274.99331     -945.98697      3375         
      1980  -55.697973      0.28911588    -55.408857      0.029520714    248.52198      604.66424      3375         
      1990  -55.681901      0.25314102    -55.42876       0.029520714    217.59824      399.35226      3375         
      2000  -55.587297      0.21215708    -55.37514       0.029520714    182.36873     -398.37317      3375         
      2010  -55.657766      0.29498507    -55.362781      0.029520714    253.56709      293.84531      3375         
      2020  -55.665604      0.30027283    -55.365331      0.029520714    258.11241      818.21131      3375         
      2030  -55.643237      0.30012272    -55.343114      0.029520714    257.98338     -200.85126      3375         
      2040  -55.622922      0.30766759    -55.315254      0.029520714    264.4689      -1179.4501      3375         
      2050  -55.527562      0.23810434    -55.289458      0.029520714    204.67281     -232.37103      3375         
      2060  -55.701798      0.43016232    -55.271635      0.029520714    369.7645       716.65153      3375         
      2070  -55.734341      0.467211      -55.26713       0.029520714    401.61129      310.18755      3375         
      2080  -55.566529      0.34290048    -55.223628      0.029520714    294.75484     -180.56418      3375         
      2090  -55.583118      0.39189308    -55.191225      0.029520714    336.86854      308.28868      3375         
      2100  -55.662328      0.44267933    -55.219649      0.029520714    380.52404     -101.73301      3375         
      2110  -55.55861       0.33950855    -55.219101      0.029520714    291.83916     -769.85513      3375         
      2120  -55.568776      0.43046043    -55.138316      0.029520714    370.02075      74.769625      3375         
      2130  -55.538718      0.3700927     -55.168626      0.029520714    318.12908      727.86339      3375         
      2140  -55.536652      0.33099552    -55.205656      0.029520714    284.52142     -226.95178      3375         
      2150  -55.495007      0.34792708    -55.14708       0.029520714    299.07567     -929.56166      3375         
      2160  -55.518766      0.3833031     -55.135463      0.029520714    329.48465      756.13392      3375         
      2170  -55.487378      0.3206681     -55.16671       0.029520714    275.64404      1477.8944      3375         
      2180  -55.585953      0.41696268    -55.16899       0.029520714    358.41818     -724.88066      3375         
      2190  -55.484064      0.34914522    -55.134919      0.029520714    300.12277     -1585.085       3375         
      2200  -55.623145      0.49252545    -55.13062       0.029520714    423.37142      544.17994      3375         
      2210  -55.611028      0.46041729    -55.150611      0.029520714    395.77146      847.80486      3375         
      2220  -55.619887      0.44475346    -55.175134      0.029520714    382.30694     -767.65904      3375         
      2230  -55.618327      0.47861676    -55.139711      0.029520714    411.4156      -255.06562      3375         
      2240  -55.636707      0.49228565    -55.144421      0.029520714    423.16528      1188.8786      3375         
      2250  -55.574866      0.37818415    -55.196681      0.029520714    325.08444      348.24404      3375         
      2260  -55.46619       0.25863695    -55.207553      0.029520714    222.32251     -1281.4139      3375         
      2270  -55.578524      0.4208584     -55.157665      0.029520714    361.76692     -944.94474      3375         
      2280  -55.568334      0.36096189    -55.207372      0.029520714    310.2803       733.45816      3375         
      2290  -55.61626       0.36591785    -55.250343      0.029520714    314.54041      1108.3598      3375         
      2300  -55.506268      0.28645729    -55.219811      0.029520714    246.23667      46.011854      3375         
      2310  -55.547909      0.32198583    -55.225923      0.029520714    276.77676     -102.59226      3375         
      2320  -55.512715      0.2594874     -55.253228      0.029520714    223.05354      120.09808      3375         
      2330  -55.712752      0.43833133    -55.274421      0.029520714    376.78652     -1227.8464      3375         
      2340  -55.61714       0.34217272    -55.274968      0.029520714    294.12927     -976.86959      3375         
      2350  -55.574408      0.30372509    -55.270683      0.029520714    261.07995      1270.4987      3375         
      2360  -55.745181      0.4346669     -55.310515      0.029520714    373.63661      1359.0488      3375         
      2370  -55.796992      0.43164641    -55.365346      0.029520714    371.04022     -359.70176      3375         
      2380  -55.648606      0.31324388    -55.335362      0.029520714    269.26224     -681.68057      3375         
      2390  -55.609556      0.25030237    -55.359253      0.029520714    215.15816     -14.460231      3375         
      2400  -55.670072      0.24975801    -55.420314      0.029520714    214.69022     -236.80189      3375         
      2410  -55.661485      0.23008645    -55.431399      0.029520714    197.7807      -874.07447      3375         
      2420  -55.707338      0.2972212     -55.410117      0.029520714    255.48926      318.06239      3375         
      2430  -55.674032      0.21039812    -55.463634      0.029520714    180.85674      1742.7402      3375         
      2440  -55.737025      0.23333984    -55.503685      0.029520714    200.57728      383.18622      3375         
      2450  -55.660387      0.17012486    -55.490262      0.029520714    146.23813     -1541.3787      3375         
      2460  -55.716698      0.22265757    -55.49404       0.029520714    191.39488     -637.31804      3375         
      2470  -55.738771      0.22013276    -55.518638      0.029520714    189.22457      663.23535      3375         
      2480  -55.792936      0.25392873    -55.539007      0.029520714    218.27535      166.98716      3375         
      2490  -55.743106      0.20769915    -55.535407      0.029520714    178.53673     -105.44498      3375         
      2500  -55.814334      0.29636359    -55.51797       0.029520714    254.75206      519.64258      3375         
      2510  -55.818772      0.27423455    -55.544537      0.029520714    235.73009      277.31497      3375         
      2520  -55.765678      0.19509661    -55.570581      0.029520714    167.70367     -788.8025       3375         
      2530  -55.728163      0.20401493    -55.524148      0.029520714    175.3698      -824.06118      3375         
      2540  -55.712306      0.18637224    -55.525934      0.029520714    160.20427      455.03865      3375         
      2550  -55.768949      0.20730948    -55.561639      0.029520714    178.20177      774.2154       3375         
      2560  -55.719796      0.17916355    -55.540632      0.029520714    154.00773     -155.72996      3375         
      2570  -55.709772      0.20799991    -55.501772      0.029520714    178.79526      42.786674      3375         
      2580  -55.720888      0.19491168    -55.525977      0.029520714    167.54471      518.02382      3375         
      2590  -55.77478       0.23789561    -55.536885      0.029520714    204.49339     -624.87861      3375         
      2600  -55.662341      0.1601751     -55.502166      0.029520714    137.68539     -1131.8046      3375         
      2610  -55.731332      0.24105828    -55.490273      0.029520714    207.212        504.38072      3375         
      2620  -55.758536      0.26233135    -55.496205      0.029520714    225.49819      1114.3117      3375         
      2630  -55.781902      0.28147003    -55.500432      0.029520714    241.94965     -207.46979      3375         
      2640  -55.751538      0.27937883    -55.472159      0.029520714    240.15207     -648.72464      3375         
      2650  -55.760708      0.31911826    -55.44159       0.029520714    274.31181      456.89564      3375         
      2660  -55.703783      0.24028506    -55.463498      0.029520714    206.54735      355.31842      3375         
      2670  -55.67736       0.20540006    -55.47196       0.029520714    176.56044     -883.33306      3375         
      2680  -55.707642      0.29993781    -55.407704      0.029520714    257.82443     -545.85445      3375         
      2690  -55.643412      0.22823618    -55.415176      0.029520714    196.19022      917.51901      3375         
      2700  -55.629122      0.18784622    -55.441276      0.029520714    161.47129      570.74663      3375         
      2710  -55.709911      0.30590515    -55.404006      0.029520714    262.95392     -552.70755      3375         
      2720  -55.691175      0.32507018    -55.366104      0.029520714    279.42804     -175.66743      3375         
      2730  -55.559157      0.17903123    -55.380125      0.029520714    153.89399      413.9151       3375         
      2740  -55.749172      0.37701468    -55.372157      0.029520714    324.07917     -121.3586       3375         
      2750  -55.647939      0.31248165    -55.335458      0.029520714    268.60702     -629.43647      3375         
      2760  -55.605562      0.29018799    -55.315374      0.029520714    249.44356      203.45803      3375         
      2770  -55.708451      0.3973032     -55.311148      0.029520714    341.51903      780.93375      3375         
      2780  -55.78933       0.47402988    -55.3153        0.029520714    407.47275     -330.69551      3375         
      2790  -55.575514      0.29428181    -55.281232      0.029520714    252.96257     -609.21887      3375         
      2800  -55.638615      0.39848127    -55.240134      0.029520714    342.53169      595.88997      3375         
      2810  -55.634068      0.36632538    -55.267743      0.029520714    314.89072      205.08788      3375         
      2820  -55.563445      0.27968289    -55.283762      0.029520714    240.41344     -1237.7241      3375         
      2830  -55.570297      0.37090403    -55.199393      0.029520714    318.8265      -304.54224      3375         
      2840  -55.499386      0.28049418    -55.218892      0.029520714    241.11082      1691.9715      3375         
      2850  -55.563688      0.30706305    -55.256625      0.029520714    263.94924      986.41708      3375         
      2860  -55.562373      0.35049447    -55.211879      0.029520714    301.28258     -1149.7281      3375         
      2870  -55.598365      0.43126789    -55.167097      0.029520714    370.71484     -920.77293      3375         
      2880  -55.484421      0.28883364    -55.195587      0.029520714    248.27937      413.46195      3375         
      2890  -55.651267      0.45045766    -55.200809      0.029520714    387.21024     -96.080962      3375         
      2900  -55.566908      0.40780447    -55.159104      0.029520714    350.54586     -830.89223      3375         
      2910  -55.548433      0.40193229    -55.1465        0.029520714    345.49817      923.32976      3375         
      2920  -55.688612      0.53373079    -55.154881      0.029520714    458.79123      1733.1267      3375         
      2930  -55.682973      0.5085973     -55.174376      0.029520714    437.18666     -624.52571      3375         
      2940  -55.490824      0.33777949    -55.153045      0.029520714    290.35287     -1589.8281      3375         
      2950  -55.514161      0.38673225    -55.127429      0.029520714    332.43232      0.98011053     3375         
      2960  -55.604079      0.43267591    -55.171403      0.029520714    371.92517      23.404156      3375         
      2970  -55.521008      0.31789431    -55.203113      0.029520714    273.25972     -341.26223      3375         
      2980  -55.504121      0.38199787    -55.122124      0.029520714    328.36268      824.8861       3375         
      2990  -55.523935      0.36235185    -55.161583      0.029520714    311.4751       1468.2313      3375         
      3000  -55.587788      0.37134133    -55.216446      0.029520714    319.20239     -83.310797      3375         
      3010  -55.428543      0.25116457    -55.177378      0.029520714    215.8993      -1811.8622      3375         
      3020  -55.573794      0.4098088     -55.163985      0.029520714    352.26876     -717.24753      3375         
      3030  -55.694908      0.47849831    -55.21641       0.029520714    411.31378      948.08385      3375         
      3040  -55.674115      0.43176718    -55.242348      0.029520714    371.14403      395.60208      3375         
      3050  -55.494799      0.26931506    -55.225484      0.029520714    231.50133     -41.411531      3375         
      3060  -55.72823       0.47816222    -55.250068      0.029520714    411.02488      932.12489      3375         
      3070  -55.710755      0.41427457    -55.296481      0.029520714    356.10751      143.8318       3375         
      3080  -55.655921      0.30704016    -55.348881      0.029520714    263.92956     -1894.9594      3375         
      3090  -55.700371      0.35442257    -55.345948      0.029520714    304.65915     -1068.2679      3375         
      3100  -55.601009      0.23427865    -55.36673       0.029520714    201.38428      1337.7763      3375         
      3110  -55.614739      0.19410788    -55.420631      0.029520714    166.85377      1409.0455      3375         
      3120  -55.76504       0.31394359    -55.451096      0.029520714    269.8637      -264.16473      3375         
      3130  -55.740558      0.32353884    -55.417019      0.029520714    278.11171     -689.6693       3375         
      3140  -55.581506      0.12561172    -55.455894      0.029520714    107.97495      37.038155      3375         
      3150  -55.723425      0.22991159    -55.493513      0.029520714    197.63039     -8.5217857      3375         
      3160  -55.747063      0.27771043    -55.469353      0.029520714    238.71793     -824.23133      3375         
      3170  -55.749503      0.28850499    -55.460998      0.029520714    247.99686      180.18273      3375         
      3180  -55.759025      0.27179375    -55.487231      0.029520714    233.63199      1304.227       3375         
      3190  -55.782338      0.28025026    -55.502088      0.029520714    240.90115      99.129263      3375         
      3200  -55.676781      0.1876727     -55.489108      0.029520714    161.32213     -918.72002      3375         
      3210  -55.790527      0.31633451    -55.474193      0.029520714    271.91891     -147.32624      3375         
      3220  -55.74009       0.25530157    -55.484789      0.029520714    219.45543      198.95595      3375         
      3230  -55.753693      0.24818457    -55.505508      0.029520714    213.33771     -274.91427      3375         
      3240  -55.69186       0.22479965    -55.467061      0.029520714    193.2362      -72.978632      3375         
      3250  -55.629332      0.17821756    -55.451114      0.029520714    153.19456      800.85865      3375         
      3260  -55.698636      0.21471343    -55.483923      0.029520714    184.56615      433.7881       3375         
      3270  -55.774641      0.29223896    -55.482402      0.029520714    251.20655     -1063.5814      3375         
      3280  -55.660605      0.24622073    -55.414384      0.029520714    211.6496      -596.53272      3375         
      3290  -55.582608      0.15081492    -55.431793      0.029520714    129.63945      1058.8988      3375         
      3300  -55.801838      0.34885071    -55.452987      0.029520714    299.86961      374.59995      3375         
      3310  -55.684338      0.28459861    -55.39974       0.029520714    244.63896     -1094.7771      3375         
      3320  -55.675807      0.30726598    -55.368541      0.029520714    264.12368      115.66536      3375         
      3330  -55.750653      0.37481685    -55.375836      0.029520714    322.18992      1180.8004      3375         
      3340  -55.729085      0.3535951     -55.37549       0.029520714    303.94786     -281.00878      3375         
      3350  -55.524869      0.18479297    -55.340076      0.029520714    158.84674     -1005.08        3375         
      3360  -55.703361      0.39325872    -55.310102      0.029520714    338.04243      112.77829      3375         
      3370  -55.719237      0.39588486    -55.323352      0.029520714    340.29984      318.41556      3375         
      3380  -55.529366      0.19192599    -55.33744       0.029520714    164.97823     -386.68454      3375         
      3390  -55.567212      0.29784995    -55.269362      0.029520714    256.02972      86.411987      3375         
      3400  -55.623653      0.354061      -55.269592      0.029520714    304.34834      1258.9758      3375         
      3410  -55.611205      0.30592366    -55.305281      0.029520714    262.96983      319.63565      3375         
      3420  -55.550122      0.27561177    -55.27451       0.029520714    236.91394     -1546.304       3375         
      3430  -55.615611      0.39055621    -55.225055      0.029520714    335.71937     -557.7945       3375         
      3440  -55.63832       0.38262278    -55.255697      0.029520714    328.89985      689.82927      3375         
      3450  -55.702495      0.43057321    -55.271921      0.029520714    370.11771     -116.42486      3375         
      3460  -55.625432      0.40215807    -55.223274      0.029520714    345.69225     -1.460439       3375         
      3470  -55.696565      0.47369732    -55.222868      0.029520714    407.18689      1134.3405      3375         
      3480  -55.624341      0.38228537    -55.242056      0.029520714    328.60982      509.05548      3375         
      3490  -55.602618      0.35757636    -55.245041      0.029520714    307.37013     -1381.4845      3375         
      3500  -55.602164      0.37468768    -55.227477      0.029520714    322.07889     -1508.3601      3375         
      3510  -55.536569      0.3208398     -55.21573       0.029520714    275.79164      667.17782      3375         
      3520  -55.609845      0.36848512    -55.24136       0.029520714    316.74721      1291.3546      3375         
      3530  -55.582332      0.31989085    -55.262441      0.029520714    274.97593     -58.000092      3375         
      3540  -55.569918      0.36260454    -55.207313      0.029520714    311.69231     -60.996232      3375         
      3550  -55.511781      0.29319937    -55.218582      0.029520714    252.03212      453.66503      3375         
      3560  -55.614609      0.34751805    -55.267091      0.029520714    298.72407     -534.27368      3375         
      3570  -55.608736      0.38412132    -55.224614      0.029520714    330.18798     -1450.509       3375         
      3580  -55.608063      0.41403162    -55.194032      0.029520714    355.89867      59.669449      3375         
      3590  -55.624241      0.3871474     -55.237093      0.029520714    332.78918      1657.5938      3375         
      3600  -55.706119      0.45886937    -55.24725       0.029520714    394.44088      893.91837      3375         
      3610  -55.621271      0.40585032    -55.21542       0.029520714    348.86608     -779.03972      3375         
      3620  -55.698301      0.46802159    -55.230279      0.029520714    402.30807     -904.57755      3375         
      3630  -55.522019      0.28052053    -55.241498      0.029520714    241.13348     -177.03775      3375         
      3640  -55.607748      0.35048522    -55.257262      0.029520714    301.27463     -466.46449      3375         
      3650  -55.617146      0.36239656    -55.25475       0.029520714    311.51354      17.161343      3375         
      3660  -55.553067      0.3233893     -55.229678      0.029520714    277.98317      1354.6655      3375         
      3670  -55.53954       0.27303674    -55.266503      0.029520714    234.70046      878.65506      3375         
      3680  -55.658707      0.34934313    -55.309364      0.029520714    300.2929      -1091.446       3375         
      3690  -55.529086      0.28669761    -55.242388      0.029520714    246.44325     -703.09695      3375         
      3700  -55.475292      0.20910352    -55.266188      0.029520714    179.74392      462.64684      3375         
      3710  -55.749391      0.42157221    -55.327818      0.029520714    362.38051     -143.8919       3375         
      3720  -55.654311      0.36059819    -55.293712      0.029520714    309.96767     -710.41555      3375         
      3730  -55.568682      0.29378565    -55.274896      0.029520714    252.53608      565.60945      3375         
      3740  -55.721975      0.3869731     -55.335002      0.029520714    332.63935      1393.6737      3375         
      3750  -55.819099      0.45654378    -55.362555      0.029520714    392.44182     -188.37283      3375         
      3760  -55.538544      0.18826807    -55.350276      0.029520714    161.83391     -1571.5831      3375         
      3770  -55.749277      0.36918479    -55.380092      0.029520714    317.34864     -147.31861      3375         
      3780  -55.748974      0.34083526    -55.408139      0.029520714    292.97959      1008.6203      3375         
      3790  -55.602118      0.15684413    -55.445274      0.029520714    134.82211     -242.14509      3375         
      3800  -55.684381      0.23797808    -55.446403      0.029520714    204.56429     -403.42359      3375         
      3810  -55.711583      0.27796603    -55.433617      0.029520714    238.93764      834.80914      3375         
      3820  -55.672976      0.18973276    -55.483243      0.029520714    163.09294      295.81345      3375         
      3830  -55.756679      0.23688664    -55.519793      0.029520714    203.62609     -919.35752      3375         
      3840  -55.675798      0.21818427    -55.457614      0.029520714    187.54966     -452.77404      3375         
      3850  -55.642194      0.15055183    -55.491642      0.029520714    129.4133       519.804        3375         
      3860  -55.867605      0.3271155     -55.54049       0.029520714    281.18618      411.35626      3375         
      3870  -55.751623      0.25025485    -55.501368      0.029520714    215.11731     -273.177        3375         
      3880  -55.743925      0.25038978    -55.493535      0.029520714    215.2333       103.05472      3375         
      3890  -55.809871      0.27850636    -55.531364      0.029520714    239.4021       575.30984      3375         
      3900  -55.768528      0.24136145    -55.527167      0.029520714    207.4726      -575.40054      3375         
      3910  -55.685066      0.17998471    -55.505082      0.029520714    154.71359     -1012.4678      3375         
      3920  -55.817082      0.31095081    -55.506131      0.029520714    267.29113      549.89771      3375         
      3930  -55.722006      0.21206262    -55.509944      0.029520714    182.28753      727.67975      3375         
      3940  -55.636496      0.11687579    -55.51962       0.029520714    100.46561     -420.38631      3375         
      3950  -55.740962      0.24513519    -55.495826      0.029520714    210.71648     -35.280091      3375         
      3960  -55.723213      0.25947964    -55.463733      0.029520714    223.04687      720.42308      3375         
      3970  -55.716165      0.22670184    -55.489464      0.029520714    194.8713      -85.17025       3375         
      3980  -55.693107      0.21292286    -55.480184      0.029520714    183.02699     -1047.0348      3375         
      3990  -55.691406      0.29368174    -55.397725      0.029520714    252.44675     -503.42478      3375         
      4000  -55.665905      0.24944838    -55.416457      0.029520714    214.42407      974.46134      3375         
      4010  -55.797699      0.36979778    -55.427901      0.029520714    317.87557      821.51639      3375         
      4020  -55.721129      0.37371857    -55.34741       0.029520714    321.24585     -697.72128      3375         
      4030  -55.668546      0.34198394    -55.326562      0.029520714    293.96698     -285.78888      3375         
      4040  -55.57765       0.24030087    -55.337349      0.029520714    206.56094      653.64363      3375         
      4050  -55.692635      0.3776902     -55.314945      0.029520714    324.65984     -556.4589       3375         
      4060  -55.6232        0.33271419    -55.290486      0.029520714    285.99877     -949.34247      3375         
      4070  -55.590455      0.32429393    -55.266161      0.029520714    278.76078      684.98127      3375         
      4080  -55.549302      0.28096502    -55.268337      0.029520714    241.51555      1095.64        3375         
      4090  -55.588912      0.29801789    -55.290894      0.029520714    256.17408     -137.4495       3375         
      4100  -55.57714       0.33524723    -55.241893      0.029520714    288.17616     -505.90556      3375         
      4110  -55.554619      0.33470056    -55.219918      0.029520714    287.70625     -11.633635      3375         
      4120  -55.688496      0.42205194    -55.266444      0.029520714    362.79288     -570.34887      3375         
      4130  -55.612526      0.36209287    -55.250433      0.029520714    311.25248     -735.76966      3375         
      4140  -55.547778      0.37008902    -55.177689      0.029520714    318.12591      1030.7349      3375         
      4150  -55.64985       0.42251032    -55.22734       0.029520714    363.1869       1752.9354      3375         
      4160  -55.78607       0.52913237    -55.256938      0.029520714    454.83846     -416.31709      3375         
      4170  -55.548978      0.35899133    -55.189986      0.029520714    308.58642     -1864.6818      3375         
      4180  -55.596482      0.3876347     -55.208847      0.029520714    333.20806     -104.7635       3375         
      4190  -55.581526      0.34530517    -55.236221      0.029520714    296.8219       803.46222      3375         
      4200  -55.561567      0.32887897    -55.232688      0.029520714    282.70205     -534.3858       3375         
      4210  -55.566598      0.34476745    -55.22183       0.029520714    296.35967     -212.78906      3375         
      4220  -55.567668      0.35763838    -55.210029      0.029520714    307.42344      1425.612       3375         
      4230  -55.510727      0.28192328    -55.228803      0.029520714    242.33927      1048.1707      3375         
      4240  -55.608706      0.34489001    -55.263816      0.029520714    296.46502     -1359.0116      3375         
      4250  -55.488658      0.28306029    -55.205598      0.029520714    243.31663     -1632.38        3375         
      4260  -55.578006      0.37287967    -55.205126      0.029520714    320.52474      419.05411      3375         
      4270  -55.798645      0.53933915    -55.259306      0.029520714    463.61214      1030.1144      3375         
      4280  -55.572573      0.3238557     -55.248718      0.029520714    278.38408      59.909382      3375         
      4290  -55.572705      0.37601765    -55.196688      0.029520714    323.22213      72.073534      3375         
      4300  -55.68338       0.43070453    -55.252675      0.029520714    370.23059      261.93176      3375         
      4310  -55.67518       0.39359814    -55.281582      0.029520714    338.33419     -492.10064      3375         
      4320  -55.525466      0.28866725    -55.236799      0.029520714    248.13634     -877.79385      3375         
      4330  -55.689419      0.42892929    -55.260489      0.029520714    368.7046       301.96953      3375         
      4340  -55.513563      0.22778015    -55.285783      0.029520714    195.79821      994.44747      3375         
      4350  -55.551201      0.25313264    -55.298069      0.029520714    217.59104     -146.34158      3375         
      4360  -55.626001      0.3228959     -55.303105      0.029520714    277.55905     -555.08014      3375         
      4370  -55.601978      0.3101131     -55.291865      0.029520714    266.57104      529.22488      3375         
      4380  -55.581373      0.25456675    -55.326806      0.029520714    218.82379      179.61485      3375         
      4390  -55.640879      0.27191952    -55.36896       0.029520714    233.74011     -993.77554      3375         
      4400  -55.684377      0.36854584    -55.315832      0.029520714    316.79941     -283.26759      3375         
      4410  -55.703697      0.35788235    -55.345814      0.029520714    307.63315      1048.0261      3375         
      4420  -55.717861      0.30873409    -55.409127      0.029520714    265.38565      453.0025       3375         
      4430  -55.690852      0.29072123    -55.400131      0.029520714    249.90192     -769.213        3375         
      4440  -55.743246      0.35526649    -55.387979      0.029520714    305.38458     -193.18259      3375         
      4450  -55.704594      0.26010874    -55.444485      0.029520714    223.58764      607.9865       3375         
      4460  -55.744881      0.27776297    -55.467118      0.029520714    238.76309     -126.62306      3375         
      4470  -55.68435       0.23006139    -55.454288      0.029520714    197.75915     -996.66363      3375         
      4480  -55.7154        0.24435767    -55.471042      0.029520714    210.04814      93.792522      3375         
      4490  -55.672048      0.18617637    -55.485872      0.029520714    160.0359       1125.9658      3375         
      4500  -55.727835      0.22064851    -55.507187      0.029520714    189.6679       160.11172      3375         
      4510  -55.711165      0.20301104    -55.508154      0.029520714    174.50686     -658.62805      3375         
      4520  -55.714858      0.22871657    -55.486141      0.029520714    196.60315      236.0745       3375         
      4530  -55.756641      0.24010365    -55.516537      0.029520714    206.39141      62.921879      3375         
      4540  -55.765816      0.22084643    -55.54497       0.029520714    189.83804     -808.59483      3375         
      4550  -55.74263       0.25477614    -55.487853      0.029520714    219.00378     -89.710904      3375         
      4560  -55.768958      0.2649817     -55.503976      0.029520714    227.7764       838.13348      3375         
      4570  -55.842443      0.29713672    -55.545306      0.029520714    255.41663      405.64756      3375         
      4580  -55.725978      0.22003228    -55.505946      0.029520714    189.1382      -505.72275      3375         
      4590  -55.69776       0.21526098    -55.482499      0.029520714    185.03682     -299.6276       3375         
      4600  -55.71889       0.20601226    -55.512878      0.029520714    177.08669      321.68749      3375         
      4610  -55.776099      0.27360301    -55.502496      0.029520714    235.18722     -328.39055      3375         
      4620  -55.684249      0.2159182     -55.468331      0.029520714    185.60177     -638.40917      3375         
      4630  -55.683351      0.22325622    -55.460094      0.029520714    191.90948      931.99791      3375         
      4640  -55.600385      0.15701073    -55.443374      0.029520714    134.96532      1292.005       3375         
      4650  -55.705998      0.27109876    -55.434899      0.029520714    233.03459     -833.0112       3375         
      4660  -55.704186      0.30001664    -55.40417       0.029520714    257.89219     -1446.9953      3375         
      4670  -55.616531      0.28969747    -55.326834      0.029520714    249.02191      156.56754      3375         
      4680  -55.663116      0.3312061     -55.33191       0.029520714    284.70243      762.91219      3375         
      4690  -55.696098      0.35776165    -55.338337      0.029520714    307.5294       145.5879       3375         
      4700  -55.592576      0.35308191    -55.239494      0.029520714    303.50673      13.058202      3375         
      4710  -55.71396       0.47157134    -55.242389      0.029520714    405.35941      355.62692      3375         
      4720  -55.651584      0.37835083    -55.273233      0.029520714    325.22771      116.06377      3375         
      4730  -55.402099      0.18142365    -55.220675      0.029520714    155.9505      -1029.7952      3375         
      4740  -55.602846      0.40408812    -55.198758      0.029520714    347.35131     -672.46037      3375         
      4750  -55.603207      0.37717003    -55.226037      0.029520714    324.2127       817.40626      3375         
      4760  -55.569042      0.35438713    -55.214655      0.029520714    304.62869      449.62404      3375         
      4770  -55.487754      0.29001609    -55.197738      0.029520714    249.29579     -25.250585      3375         
      4780  -55.528304      0.34122029    -55.187084      0.029520714    293.31056      653.92777      3375         
      4790  -55.538971      0.34499164    -55.193979      0.029520714    296.55239      44.728087      3375         
      4800  -55.607071      0.39513172    -55.21194       0.029520714    339.65244     -1455.612       3375         
      4810  -55.598478      0.4248791     -55.173599      0.029520714    365.22308     -675.22236      3375         
      4820  -55.603087      0.45162655    -55.15146       0.029520714    388.215        1158.4616      3375         
      4830  -55.62474       0.43272631    -55.192014      0.029520714    371.96849      1063.7643      3375         
      4840  -55.68626       0.48052579    -55.205734      0.029520714    413.05659     -701.35853      3375         
      4850  -55.658074      0.51252009    -55.145554      0.029520714    440.55866     -697.90902      3375         
      4860  -55.538613      0.35205937    -55.186554      0.029520714    302.62776      498.91626      3375         
      4870  -55.590241      0.35960066    -55.23064       0.029520714    309.1102       6.232197       3375         
      4880  -55.505594      0.31680387    -55.18879       0.029520714    272.32238     -904.77542      3375         
      4890  -55.580958      0.39257122    -55.188387      0.029520714    337.45146      384.70089      3375         
      4900  -55.592421      0.366255      -55.226166      0.029520714    314.83022      1218.082       3375         
      4910  -55.552618      0.322235      -55.230383      0.029520714    276.99094     -49.146756      3375         
      4920  -55.508351      0.28358566    -55.224766      0.029520714    243.76823     -910.6799       3375         
      4930  -55.645307      0.41649833    -55.228808      0.029520714    358.01904      64.557478      3375         
      4940  -55.587135      0.34173172    -55.245403      0.029520714    293.75018      132.22901      3375         
      4950  -55.581581      0.30812958    -55.273452      0.029520714    264.86602     -548.31721      3375         
      4960  -55.702525      0.44731742    -55.255207      0.029520714    384.5109       37.515743      3375         
      4970  -55.678782      0.42060325    -55.258179      0.029520714    361.54759      979.71057      3375         
      4980  -55.654306      0.34293425    -55.311371      0.029520714    294.78387      321.74486      3375         
      4990  -55.662683      0.33878639    -55.323897      0.029520714    291.21839     -952.28694      3375         
      5000  -55.674505      0.38349953    -55.291005      0.029520714    329.6535      -284.49842      3375         
      5010  -55.581773      0.24082564    -55.340948      0.029520714    207.01202      582.06492      3375         
      5020  -55.667468      0.28597356    -55.381495      0.029520714    245.82086     -266.57573      3375         
      5030  -55.629781      0.27919692    -55.350584      0.029520714    239.99571     -697.75778      3375         
      5040  -55.592011      0.22507889    -55.366932      0.029520714    193.47623      629.22317      3375         
      5050  -55.596197      0.19632609    -55.399871      0.029520714    168.76052      1061.338       3375         
      5060  -55.742208      0.3385161     -55.403692      0.029520714    290.98606     -223.28267      3375         
      5070  -55.677912      0.26660222    -55.41131       0.029520714    229.16939     -968.0292       3375         
      5080  -55.640717      0.23197675    -55.40874       0.029520714    199.40558     -88.283223      3375         
      5090  -55.719151      0.29601306    -55.423138      0.029520714    254.45074      548.02096      3375         
      5100  -55.711306      0.25709291    -55.454214      0.029520714    220.99525     -143.04561      3375         
      5110  -55.724308      0.28213172    -55.442176      0.029520714    242.51845     -359.61185      3375         
      5120  -55.826697      0.39117261    -55.435524      0.029520714    336.24922      377.23918      3375         
      5130  -55.704245      0.22679266    -55.477452      0.029520714    194.94937      435.19692      3375         
      5140  -55.640671      0.15450141    -55.48617       0.029520714    132.80832     -304.00548      3375         
      5150  -55.769615      0.32351267    -55.446103      0.029520714    278.08921     -484.64081      3375         
      5160  -55.695806      0.21596668    -55.479839      0.029520714    185.64344     -7.5005006      3375         
      5170  -55.717662      0.2159388     -55.501723      0.029520714    185.61947      182.25736      3375         
      5180  -55.671393      0.19486999    -55.476523      0.029520714    167.50888      176.5671       3375         
      5190  -55.676525      0.19851376    -55.478012      0.029520714    170.64103      532.67702      3375         
      5200  -55.759744      0.26547614    -55.494268      0.029520714    228.20142      225.30127      3375         
      5210  -55.764074      0.27584017    -55.488234      0.029520714    237.11027     -933.92398      3375         
      5220  -55.701596      0.22263046    -55.478966      0.029520714    191.37158     -912.29933      3375         
      5230  -55.746588      0.28789159    -55.458696      0.029520714    247.46959      684.32629      3375         
      5240  -55.747095      0.2890668     -55.458028      0.029520714    248.47979      986.86264      3375         
      5250  -55.743581      0.27920307    -55.464378      0.029520714    240.00099     -320.04431      3375         
      5260  -55.771309      0.35484276    -55.416466      0.029520714    305.02034     -335.86621      3375         
      5270  -55.690984      0.30485904    -55.386125      0.029520714    262.05469      468.8471       3375         
      5280  -55.646382      0.24481767    -55.401565      0.029520714    210.44355     -151.6038       3375         
      5290  -55.631884      0.25587451    -55.37601       0.029520714    219.94793     -1074.0366      3375         
      5300  -55.6436        0.33525332    -55.308346      0.029520714    288.18139     -290.25792      3375         
      5310  -55.635788      0.32194437    -55.313844      0.029520714    276.74111      1127.6908      3375         
      5320  -55.585162      0.2807621     -55.3044        0.029520714    241.34113      1051.4627      3375         
      5330  -55.533467      0.28465777    -55.248809      0.029520714    244.68982     -468.32993      3375         
      5340  -55.637385      0.40093531    -55.23645       0.029520714    344.64117     -724.66042      3375         
      5350  -55.574259      0.34957109    -55.224688      0.029520714    300.48885     -28.021686      3375         
      5360  -55.592043      0.39508074    -55.196963      0.029520714    339.60862     -369.98134      3375         
      5370  -55.713732      0.52725469    -55.186478      0.029520714    453.22442     -72.111863      3375         
      5380  -55.588519      0.43587698    -55.152642      0.029520714    374.67678      954.67924      3375         
      5390  -55.509798      0.35961548    -55.150182      0.029520714    309.12294      348.16575      3375         
      5400  -55.653251      0.48208809    -55.171163      0.029520714    414.39953     -708.93231      3375         
      5410  -55.630216      0.50661679    -55.123599      0.029520714    435.48422     -293.08996      3375         
      5420  -55.470775      0.34714661    -55.123628      0.029520714    298.40478     -27.182755      3375         
      5430  -55.48194       0.31680871    -55.165132      0.029520714    272.32654     -250.63201      3375         
      5440  -55.508433      0.37282689    -55.135606      0.029520714    320.47937      30.79864       3375         
      5450  -55.532448      0.42236976    -55.110079      0.029520714    363.06607      793.84864      3375         
      5460  -55.536341      0.38690874    -55.149432      0.029520714    332.58403      760.08992      3375         
      5470  -55.533506      0.38314575    -55.15036       0.029520714    329.34939     -525.64871      3375         
      5480  -55.486508      0.35973055    -55.126778      0.029520714    309.22185     -1180.7113      3375         
      5490  -55.549145      0.40301807    -55.146127      0.029520714    346.4315       57.062056      3375         
      5500  -55.676667      0.52789719    -55.14877       0.029520714    453.77671      743.72536      3375         
      5510  -55.620595      0.46345287    -55.157143      0.029520714    398.38083     -99.378086      3375         
      5520  -55.548106      0.3629577     -55.185148      0.029520714    311.99589     -264.36111      3375         
      5530  -55.64374       0.46818339    -55.175556      0.029520714    402.44715      333.28314      3375         
      5540  -55.535654      0.3402619     -55.195392      0.029520714    292.48674      546.57014      3375         
      5550  -55.637323      0.38624907    -55.251074      0.029520714    332.01698     -365.68943      3375         
      5560  -55.655841      0.42998138    -55.22586       0.029520714    369.60897     -939.48407      3375         
      5570  -55.438649      0.20506192    -55.233587      0.029520714    176.26978     -51.03317       3375         
      5580  -55.604786      0.31758611    -55.2872        0.029520714    272.99479      743.60439      3375         
      5590  -55.669929      0.37561566    -55.294313      0.029520714    322.87658      184.74644      3375         
      5600  -55.57657       0.29865559    -55.277915      0.029520714    256.72224     -146.22565      3375         
      5610  -55.668284      0.34291413    -55.32537       0.029520714    294.76657      104.02895      3375         
      5620  -55.653543      0.31150507    -55.342038      0.029520714    267.76757     -61.851823      3375         
      5630  -55.582923      0.24604438    -55.336879      0.029520714    211.49802     -286.77077      3375         
      5640  -55.830104      0.46910952    -55.360994      0.029520714    403.24324      13.979219      3375         
      5650  -55.742228      0.37033219    -55.371896      0.029520714    318.33495      224.23254      3375         
      5660  -55.594566      0.20342065    -55.391146      0.029520714    174.85896     -182.58405      3375         
      5670  -55.739786      0.32515314    -55.414633      0.029520714    279.49935     -2.7505604      3375         
      5680  -55.706725      0.30208984    -55.404635      0.029520714    259.6743       469.47102      3375         
      5690  -55.669689      0.24902184    -55.420667      0.029520714    214.05742     -62.765662      3375         
      5700  -55.696968      0.24500272    -55.451965      0.029520714    210.60261     -811.45113      3375         
      5710  -55.66443       0.23878815    -55.425642      0.029520714    205.26061     -232.56671      3375         
      5720  -55.672557      0.23980195    -55.432755      0.029520714    206.13207      815.77311      3375         
      5730  -55.70787       0.24593416    -55.461936      0.029520714    211.40327      618.32098      3375         
      5740  -55.647751      0.20307444    -55.444677      0.029520714    174.56136     -347.29408      3375         
      5750  -55.75014       0.31812995    -55.43201       0.029520714    273.46227     -486.3226       3375         
      5760  -55.741316      0.28795137    -55.453365      0.029520714    247.52097      51.841897      3375         
      5770  -55.653667      0.21189693    -55.44177       0.029520714    182.14511      29.576532      3375         
      5780  -55.790647      0.3583292     -55.432317      0.029520714    308.01726     -362.90573      3375         
      5790  -55.764918      0.32779548    -55.437122      0.029520714    281.77069     -50.322556      3375         
      5800  -55.676469      0.26230426    -55.414165      0.029520714    225.4749       643.30877      3375         
      5810  -55.686715      0.27861778    -55.408097      0.029520714    239.49789      494.47922      3375         
      5820  -55.713015      0.30680548    -55.40621       0.029520714    263.72783     -139.23952      3375         
      5830  -55.624583      0.26338647    -55.361197      0.029520714    226.40515     -629.32991      3375         
      5840  -55.594705      0.25321893    -55.341486      0.029520714    217.66521     -736.11539      3375         
      5850  -55.618884      0.2898074     -55.329077      0.029520714    249.1164       80.645277      3375         
      5860  -55.619975      0.36056649    -55.259408      0.029520714    309.94042      978.27437      3375         
      5870  -55.604727      0.38851263    -55.216214      0.029520714    333.96272      454.47581      3375         
      5880  -55.49894       0.29714006    -55.2018        0.029520714    255.4195      -440.96159      3375         
      5890  -55.546255      0.40051722    -55.145738      0.029520714    344.28178     -145.25701      3375         
      5900  -55.577917      0.46031087    -55.117607      0.029520714    395.67999     -19.893592      3375         
      5910  -55.689418      0.57363448    -55.115784      0.029520714    493.09216     -436.71077      3375         
      5920  -55.450036      0.3839754     -55.066061      0.029520714    330.06255     -204.63402      3375         
      5930  -55.51328       0.44986497    -55.063415      0.029520714    386.70076      499.59559      3375         
      5940  -55.718305      0.62792263    -55.090383      0.029520714    539.75788      649.71318      3375         
      5950  -55.466022      0.41415611    -55.051866      0.029520714    356.00568      206.53402      3375         
      5960  -55.414631      0.35777344    -55.056858      0.029520714    307.53953     -846.48382      3375         
      5970  -55.521867      0.43303459    -55.088833      0.029520714    372.23349     -842.50339      3375         
      5980  -55.387743      0.32381128    -55.063932      0.029520714    278.3459       107.97588      3375         
      5990  -55.429277      0.36356212    -55.065715      0.029520714    312.51544      860.56926      3375         
      6000  -55.637182      0.53518031    -55.102002      0.029520714    460.03723      714.20802      3375         
      6010  -55.460358      0.37583359    -55.084524      0.029520714    323.06391     -144.72259      3375         
      6020  -55.484796      0.38527426    -55.099522      0.029520714    331.17904     -690.43845      3375         
      6030  -55.553576      0.42302345    -55.130552      0.029520714    363.62798     -94.460898      3375         
      6040  -55.467016      0.34607864    -55.120938      0.029520714    297.48677      256.78943      3375         
      6050  -55.681931      0.53512379    -55.146807      0.029520714    459.98865     -506.43392      3375         
      6060  -55.697375      0.51434506    -55.18303       0.029520714    442.1274      -166.68982      3375         
      6070  -55.475979      0.30428506    -55.171694      0.029520714    261.5613       672.18609      3375         
      6080  -55.577265      0.36485306    -55.212412      0.029520714    313.62512      618.85402      3375         
      6090  -55.768051      0.50762542    -55.260425      0.029520714    436.35124     -256.73779      3375         
      6100  -55.553276      0.31076627    -55.24251       0.029520714    267.1325      -767.41768      3375         
      6110  -55.535177      0.26542863    -55.269748      0.029520714    228.16058     -248.95164      3375         
      6120  -55.612391      0.30497378    -55.307417      0.029520714    262.15331      691.08         3375         
      6130  -55.619574      0.31237159    -55.307203      0.029520714    268.51242      149.42863      3375         
      6140  -55.631227      0.32343707    -55.30779       0.029520714    278.02423     -529.73581      3375         
      6150  -55.621628      0.2887346     -55.332893      0.029520714    248.19423      121.85577      3375         
      6160  -55.714364      0.37103516    -55.343329      0.029520714    318.93921      304.24575      3375         
      6170  -55.643696      0.28789007    -55.355806      0.029520714    247.46828     -87.568115      3375         
      6180  -55.609165      0.2545751     -55.35459       0.029520714    218.83097      3.5024801      3375         
      6190  -55.703552      0.34501992    -55.358532      0.029520714    296.5767       30.825827      3375         
      6200  -55.828499      0.44197495    -55.386524      0.029520714    379.91856     -425.42638      3375         
      6210  -55.67169       0.28251879    -55.389171      0.029520714    242.85116     -122.45731      3375         
      6220  -55.643583      0.27724276    -55.36634       0.029520714    238.31593      571.01905      3375         
      6230  -55.669087      0.27386       -55.395227      0.029520714    235.40813      459.80851      3375         
      6240  -55.708854      0.28562946    -55.423225      0.029520714    245.52508     -563.82901      3375         
      6250  -55.685402      0.3091056     -55.376297      0.029520714    265.705       -801.92089      3375         
      6260  -55.585615      0.2004139     -55.385201      0.029520714    172.27438      554.72981      3375         
      6270  -55.657832      0.24378117    -55.414051      0.029520714    209.55258      771.62854      3375         
      6280  -55.702654      0.3017372     -55.400917      0.029520714    259.37117     -608.60792      3375         
      6290  -55.639793      0.25993284    -55.37986       0.029520714    223.43644     -436.31574      3375         
      6300  -55.696316      0.31110799    -55.385208      0.029520714    267.42624      902.0678       3375         
      6310  -55.754612      0.36954172    -55.38507       0.029520714    317.65546      356.94246      3375         
      6320  -55.64703       0.26843744    -55.378592      0.029520714    230.74693     -1085.0758      3375         
      6330  -55.633653      0.28410472    -55.349548      0.029520714    244.21442     -734.68876      3375         
      6340  -55.705602      0.3681941     -55.337408      0.029520714    316.49706      730.19148      3375         
      6350  -55.721599      0.37021976    -55.351379      0.029520714    318.2383       785.75112      3375         
      6360  -55.616593      0.29467794    -55.321915      0.029520714    253.30309     -118.71394      3375         
[...]
     48420  -55.453929      0.39870156    -55.055227      0.029520714    342.72105      1906.9675      3375         
     48430  -55.549268      0.5148367     -55.034431      0.029520714    442.55         197.51366      3375         
     48440  -55.322592      0.32749744    -54.995095      0.029520714    281.5145      -1760.1502      3375         
     48450  -55.476644      0.56475338    -54.911891      0.029520714    485.45804     -297.57931      3375         
     48460  -55.52093       0.62782229    -54.893108      0.029520714    539.67162      1331.4558      3375         
     48470  -55.599564      0.67812806    -54.921436      0.029520714    582.91411      332.69566      3375         
     48480  -55.347134      0.52567663    -54.821457      0.029520714    451.86793     -1117.1778      3375         
     48490  -55.353929      0.57055842    -54.78337       0.029520714    490.44801     -95.416822      3375         
     48500  -55.452991      0.61223519    -54.840756      0.029520714    526.27307      1025.4989      3375         
     48510  -55.497377      0.63188157    -54.865496      0.029520714    543.16095     -558.75497      3375         
     48520  -55.310617      0.512691      -54.797926      0.029520714    440.70558     -849.89798      3375         
     48530  -55.428658      0.5744089     -54.854249      0.029520714    493.75785      1193.8074      3375         
     48540  -55.61055       0.6939018     -54.916648      0.029520714    596.4731       457.52973      3375         
     48550  -55.245062      0.31879797    -54.926264      0.029520714    274.03649     -1130.2781      3375         
     48560  -55.279152      0.37154029    -54.907612      0.029520714    319.37342     -177.91004      3375         
     48570  -55.401564      0.45387031    -54.947694      0.029520714    390.14373      1010.5618      3375         
     48580  -55.671485      0.64979126    -55.021694      0.029520714    558.55599     -306.88832      3375         
     48590  -55.464777      0.41519987    -55.049578      0.029520714    356.90288     -1266.5582      3375         
     48600  -55.545425      0.51771158    -55.027713      0.029520714    445.02123      901.96976      3375         
     48610  -55.443166      0.34669403    -55.096472      0.029520714    298.01575      1788.6535      3375         
     48620  -55.66042       0.47863296    -55.181788      0.029520714    411.42952     -988.75061      3375         
     48630  -55.587278      0.44896047    -55.138317      0.029520714    385.92326     -1996.1739      3375         
     48640  -55.644044      0.49162553    -55.152418      0.029520714    422.59785      604.73268      3375         
     48650  -55.569841      0.33971796    -55.230123      0.029520714    292.01917      1518.0731      3375         
     48660  -55.619073      0.35729353    -55.261779      0.029520714    307.12701     -558.87695      3375         
     48670  -55.538341      0.33008262    -55.208258      0.029520714    283.7367      -971.67723      3375         
     48680  -55.597076      0.3474617     -55.249614      0.029520714    298.67563      1003.1661      3375         
     48690  -55.670576      0.37787139    -55.292704      0.029520714    324.81559      658.13168      3375         
     48700  -55.534377      0.23941008    -55.294967      0.029520714    205.79522     -1298.7573      3375         
     48710  -55.57912       0.3123227     -55.266797      0.029520714    268.4704      -555.26313      3375         
     48720  -55.611607      0.32225465    -55.289353      0.029520714    277.00783      1164.91        3375         
     48730  -55.742856      0.41292693    -55.329929      0.029520714    354.94909      504.06819      3375         
     48740  -55.595312      0.27695958    -55.318353      0.029520714    238.07251     -783.41441      3375         
     48750  -55.679302      0.40373661    -55.275565      0.029520714    347.04915     -25.944116      3375         
     48760  -55.605576      0.28364785    -55.321928      0.029520714    243.8217       490.70377      3375         
     48770  -55.699366      0.33086292    -55.368503      0.029520714    284.40744     -764.92934      3375         
     48780  -55.637679      0.33500765    -55.302672      0.029520714    287.97022     -551.79558      3375         
     48790  -55.672419      0.35637709    -55.316042      0.029520714    306.33924      1149.2931      3375         
     48800  -55.698216      0.33243826    -55.365777      0.029520714    285.76159      712.7735       3375         
     48810  -55.671778      0.30790837    -55.363869      0.029520714    264.67587     -998.77833      3375         
     48820  -55.583257      0.26995016    -55.313307      0.029520714    232.04726     -665.5293       3375         
     48830  -55.594716      0.25256317    -55.342153      0.029520714    217.10152      873.26643      3375         
     48840  -55.697578      0.33118023    -55.366398      0.029520714    284.6802       269.76027      3375         
     48850  -55.582898      0.22445168    -55.358447      0.029520714    192.93709     -1125.9928      3375         
     48860  -55.730796      0.40690008    -55.323896      0.029520714    349.76845      182.25849      3375         
     48870  -55.62641       0.28742061    -55.338989      0.029520714    247.06473      1483.2109      3375         
     48880  -55.675086      0.29799357    -55.377092      0.029520714    256.15317     -351.58146      3375         
     48890  -55.617922      0.27442377    -55.343498      0.029520714    235.89274     -1466.6085      3375         
     48900  -55.732011      0.43921304    -55.292798      0.029520714    377.54444      321.04683      3375         
     48910  -55.658981      0.32608836    -55.332893      0.029520714    280.30326      1194.2473      3375         
     48920  -55.68459       0.32625378    -55.358336      0.029520714    280.44546     -377.6138       3375         
     48930  -55.551562      0.27583875    -55.275723      0.029520714    237.10905     -926.19808      3375         
     48940  -55.612197      0.32416053    -55.288037      0.029520714    278.64611      688.04213      3375         
     48950  -55.802959      0.48549751    -55.317461      0.029520714    417.33024      498.31673      3375         
     48960  -55.574527      0.28927121    -55.285256      0.029520714    248.6555      -992.20438      3375         
     48970  -55.466779      0.2374346     -55.229344      0.029520714    204.09711     -320.86586      3375         
     48980  -55.531532      0.28676393    -55.244768      0.029520714    246.50025      1263.7291      3375         
     48990  -55.735578      0.48548208    -55.250096      0.029520714    417.31698      243.34713      3375         
     49000  -55.475596      0.27699101    -55.198605      0.029520714    238.09952     -1306.7079      3375         
     49010  -55.651652      0.51488571    -55.136767      0.029520714    442.59213      253.31889      3375         
     49020  -55.507477      0.36762192    -55.139855      0.029520714    316.00522      1275.7476      3375         
     49030  -55.60658       0.44969424    -55.156886      0.029520714    386.55401     -1000.449       3375         
     49040  -55.518045      0.44526234    -55.072783      0.029520714    382.74438     -1137.0516      3375         
     49050  -55.526457      0.5006428     -55.025814      0.029520714    430.34903      1161.6733      3375         
     49060  -55.494291      0.42953687    -55.064754      0.029520714    369.22687      908.49943      3375         
     49070  -55.604107      0.53842693    -55.06568       0.029520714    462.828       -971.65864      3375         
     49080  -55.55287       0.60223299    -54.950637      0.029520714    517.67524     -681.39274      3375         
     49090  -55.442479      0.44974917    -54.99273       0.029520714    386.60122      1243.2254      3375         
     49100  -55.465365      0.43184473    -55.03352       0.029520714    371.21069      490.1544       3375         
     49110  -55.329696      0.33801193    -54.991684      0.029520714    290.55267     -1725.0127      3375         
     49120  -55.455865      0.48013769    -54.975727      0.029520714    412.72298     -371.44581      3375         
     49130  -55.43599       0.43070935    -55.00528       0.029520714    370.23472      1377.095       3375         
     49140  -55.545005      0.52008231    -55.024923      0.029520714    447.0591       223.69944      3375         
     49150  -55.395985      0.37219434    -55.023791      0.029520714    319.93564     -627.95014      3375         
     49160  -55.519558      0.52218308    -54.997375      0.029520714    448.8649       448.85665      3375         
     49170  -55.616255      0.5780645     -55.03819       0.029520714    496.90018      592.08879      3375         
     49180  -55.590461      0.48333377    -55.107127      0.029520714    415.47031     -920.11062      3375         
     49190  -55.420434      0.33501422    -55.08542       0.029520714    287.97586     -1208.266       3375         
     49200  -55.51143       0.41768158    -55.093749      0.029520714    359.03615      668.22751      3375         
     49210  -55.704083      0.52959129    -55.174492      0.029520714    455.23294      1202.3699      3375         
     49220  -55.752306      0.51349229    -55.238814      0.029520714    441.39436     -206.29502      3375         
     49230  -55.51046       0.31595608    -55.194504      0.029520714    271.59363     -686.84         3375         
     49240  -55.403298      0.15222718    -55.251071      0.029520714    130.85342      281.89796      3375         
     49250  -55.66166       0.36321533    -55.298445      0.029520714    312.21734      131.5828       3375         
     49260  -55.66658       0.37946353    -55.287117      0.029520714    326.18418     -881.20745      3375         
     49270  -55.630637      0.33433675    -55.2963        0.029520714    287.39352      239.10369      3375         
     49280  -55.536688      0.21230055    -55.324387      0.029520714    182.49206      1326.6937      3375         
     49290  -55.699317      0.35474638    -55.344571      0.029520714    304.93749     -23.127197      3375         
     49300  -55.721743      0.38131453    -55.340429      0.029520714    327.77529     -951.35091      3375         
     49310  -55.688286      0.36715503    -55.321131      0.029520714    315.60388     -276.0066       3375         
     49320  -55.559032      0.21335078    -55.345681      0.029520714    183.39483      60.398987      3375         
     49330  -55.712443      0.3373128     -55.37513       0.029520714    289.95171     -211.05563      3375         
     49340  -55.727917      0.40134681    -55.32657       0.029520714    344.99489      215.25322      3375         
     49350  -55.656578      0.32567104    -55.330907      0.029520714    279.94453      1220.192       3375         
     49360  -55.639828      0.26824823    -55.37158       0.029520714    230.58429      260.9382       3375         
     49370  -55.636292      0.26951103    -55.366781      0.029520714    231.66979     -1516.1438      3375         
     49380  -55.669187      0.34833381    -55.320854      0.029520714    299.42529     -631.69006      3375         
     49390  -55.637347      0.28908411    -55.348263      0.029520714    248.49467      910.82619      3375         
     49400  -55.639935      0.27020057    -55.369734      0.029520714    232.26251      232.16244      3375         
     49410  -55.555968      0.22002625    -55.335942      0.029520714    189.13302     -570.06099      3375         
     49420  -55.767576      0.45233029    -55.315246      0.029520714    388.81994      636.8764       3375         
     49430  -55.687732      0.35833589    -55.329396      0.029520714    308.02301      1056.658       3375         
     49440  -55.622183      0.27517249    -55.347011      0.029520714    236.53633     -992.02829      3375         
     49450  -55.565969      0.24879621    -55.317173      0.029520714    213.86347     -1602.9247      3375         
     49460  -55.709534      0.42089767    -55.288637      0.029520714    361.80067      656.07785      3375         
     49470  -55.739738      0.4267193     -55.313019      0.029520714    366.80491      1367.3432      3375         
     49480  -55.630021      0.30010867    -55.329913      0.029520714    257.9713      -369.6088       3375         
     49490  -55.531361      0.27337876    -55.257982      0.029520714    234.99446     -647.20757      3375         
     49500  -55.646203      0.37995788    -55.266245      0.029520714    326.60912      588.67844      3375         
     49510  -55.694047      0.3957571     -55.29829       0.029520714    340.19002      160.74398      3375         
     49520  -55.514108      0.24857203    -55.265535      0.029520714    213.67077     -993.60337      3375         
     49530  -55.561917      0.33677464    -55.225142      0.029520714    289.48911     -89.898077      3375         
     49540  -55.572402      0.32538954    -55.247013      0.029520714    279.70256      898.40404      3375         
     49550  -55.665551      0.41461886    -55.250933      0.029520714    356.40345      238.03569      3375         
     49560  -55.5346        0.33382591    -55.200774      0.029520714    286.9544      -366.72448      3375         
     49570  -55.616143      0.43409364    -55.182049      0.029520714    373.14384      168.50814      3375         
     49580  -55.589427      0.40730175    -55.182125      0.029520714    350.11372      205.48131      3375         
     49590  -55.636104      0.45860702    -55.177497      0.029520714    394.21537     -1032.9105      3375         
     49600  -55.582067      0.45167977    -55.130387      0.029520714    388.26075     -585.46473      3375         
     49610  -55.501288      0.39089707    -55.110391      0.029520714    336.01237      1176.5191      3375         
     49620  -55.507945      0.37550719    -55.132438      0.029520714    322.78334      669.76093      3375         
     49630  -55.632248      0.50762961    -55.124618      0.029520714    436.35484     -679.6867       3375         
     49640  -55.62997       0.57523905    -55.054731      0.029520714    494.47144      3.5383374      3375         
     49650  -55.329548      0.26303535    -55.066512      0.029520714    226.10334      679.79026      3375         
     49660  -55.496208      0.39991482    -55.096293      0.029520714    343.76396     -574.07035      3375         
     49670  -55.4332        0.38689201    -55.046308      0.029520714    332.56965     -1452.3925      3375         
     49680  -55.46689       0.45424686    -55.012643      0.029520714    390.4674       196.23679      3375         
     49690  -55.475701      0.44021167    -55.035489      0.029520714    378.40285      1711.4296      3375         
     49700  -55.507664      0.46858077    -55.039083      0.029520714    402.78873      523.72263      3375         
     49710  -55.397838      0.40832663    -54.989511      0.029520714    350.9947      -859.22948      3375         
     49720  -55.542352      0.56302652    -54.979326      0.029520714    483.97363     -112.10614      3375         
     49730  -55.53648       0.53979143    -54.996688      0.029520714    464.00092      67.361049      3375         
     49740  -55.493153      0.49612761    -54.997025      0.029520714    426.4678      -942.1884       3375         
     49750  -55.626214      0.67878795    -54.947426      0.029520714    583.48135     -385.16661      3375         
     49760  -55.44008       0.4748045     -54.965275      0.029520714    408.13861      1275.9906      3375         
     49770  -55.455129      0.44199649    -55.013133      0.029520714    379.93707      768.23304      3375         
     49780  -55.514305      0.48692872    -55.027376      0.029520714    418.5605      -692.85708      3375         
     49790  -55.522331      0.51759862    -55.004732      0.029520714    444.92413     -234.42832      3375         
     49800  -55.389564      0.32598012    -55.063584      0.029520714    280.21022      65.934681      3375         
     49810  -55.584326      0.4578499     -55.126477      0.029520714    393.56456     -781.99162      3375         
     49820  -55.461173      0.35009286    -55.11108       0.029520714    300.93736     -463.07057      3375         
     49830  -55.390244      0.26868722    -55.121557      0.029520714    230.96164      1356.0174      3375         
     49840  -55.585105      0.40663463    -55.178471      0.029520714    349.54027      1490.72        3375         
     49850  -55.697366      0.47164009    -55.225726      0.029520714    405.4185      -986.52484      3375         
     49860  -55.55961       0.34098537    -55.218625      0.029520714    293.10862     -1665.6462      3375         
     49870  -55.647242      0.40160741    -55.245635      0.029520714    345.2189       578.94903      3375         
     49880  -55.724477      0.42327651    -55.301201      0.029520714    363.84551      504.71936      3375         
     49890  -55.588838      0.25512919    -55.333709      0.029520714    219.30726     -783.57236      3375         
     49900  -55.641917      0.34657098    -55.295346      0.029520714    297.90998      253.11458      3375         
     49910  -55.743287      0.41254997    -55.330737      0.029520714    354.62505      1327.8044      3375         
     49920  -55.738991      0.35383179    -55.385159      0.029520714    304.15132      182.53682      3375         
     49930  -55.60884       0.24184714    -55.366993      0.029520714    207.8901      -1374.1592      3375         
     49940  -55.605621      0.25647293    -55.349148      0.029520714    220.46233     -794.26471      3375         
     49950  -55.578768      0.19039249    -55.388376      0.029520714    163.66005      727.09367      3375         
     49960  -55.725081      0.31586336    -55.409218      0.029520714    271.51392      427.54519      3375         
     49970  -55.694932      0.32229092    -55.372641      0.029520714    277.03901     -87.566302      3375         
     49980  -55.613309      0.23451786    -55.378791      0.029520714    201.5899       469.0004       3375         
     49990  -55.606106      0.20261383    -55.403492      0.029520714    174.16543      286.61694      3375         
     50000  -55.725396      0.31982721    -55.405569      0.029520714    274.92122     -912.24634      3375         
Loop time of 291.602 on 4 procs for 50000 steps with 10 atoms

Performance: 7.407 ns/day, 3.240 hours/ns, 171.467 timesteps/s, 1.715 katom-step/s
86.0% CPU use with 4 MPI tasks x no OpenMP threads

MPI task timing breakdown:
Section |  min time  |  avg time  |  max time  |%varavg| %total
---------------------------------------------------------------
Pair    | 162.99     | 166.76     | 171.68     |  24.2 | 57.19
Neigh   | 0.000641   | 0.00065124 | 0.00067278 |   0.0 |  0.00
Comm    | 85.609     | 89.824     | 93.215     |  28.9 | 30.80
Output  | 4.6394     | 4.7865     | 5.0539     |   7.4 |  1.64
Modify  | 25.047     | 25.727     | 26.274     |   8.9 |  8.82
Other   |            | 4.499      |            |       |  1.54

Nlocal:            2.5 ave           3 max           2 min
Histogram: 2 0 0 0 0 0 0 0 0 2
Nghost:          69.75 ave          74 max          67 min
Histogram: 2 0 0 0 0 1 0 0 0 1
Neighs:              0 ave           0 max           0 min
Histogram: 4 0 0 0 0 0 0 0 0 0
FullNghs:         22.5 ave          27 max          18 min
Histogram: 2 0 0 0 0 0 0 0 0 2

Total # of neighbors = 90
Ave neighs/atom = 9
Neighbor list builds = 91
Dangerous builds = 0

write_data	restart.data
System init for write_data ...
Generated 0 of 1 mixed pair_coeff terms from geometric mixing rule
#
Total wall time: 0:04:55
