LAMMPS data file via write_data, version 2 Aug 2023, timestep = 50000, units = metal

10 atoms
2 atom types

0 15 xlo xhi
0 15 ylo yhi
0 15 zlo zhi

Masses

1 12
2 2

Atoms # atomic

2 1 6.539176268939285 7.151410420245185 7.294229648709241 0 0 0
7 2 5.472797056108402 6.8421280966195654 7.315768058646954 0 0 0
9 2 9.31308761133084 7.102983693289104 7.463823847610798 0 0 0
5 2 7.654364155345403 6.404979519785467 9.102041167416912 0 0 0
1 1 7.473499610832476 7.336276648631729 8.496352631263315 0 0 0
3 1 7.407246379429888 7.694645004970253 6.447199613766192 0 0 0
8 2 7.324467736461004 7.994646092207342 5.400694897862368 0 0 0
6 2 7.028368349871764 8.041247078627523 9.220366699293251 0 0 0
4 1 8.464162681414805 7.820662023692263 7.562079410168177 0 0 0
10 2 9.02640544797327 8.81605093582045 7.587137504253921 0 0 0

Velocities

2 -4.452092733952324 5.453251370044473 -3.6244286938862698
7 -12.460807990591803 1.890060880931718 0.9103061064512168
9 26.298829628764338 -1.2643559392442558 5.794646260640604
5 14.818350453008948 10.570697167132899 11.936554054229678
1 -2.5079814900500796 -4.644128233878798 -3.8455662611161614
3 -0.9175996931959596 0.5491971681028793 4.585629437245235
8 5.224224195722763 -9.71517157158514 10.24567949884852
6 2.24907646762431 -8.01569897871499 10.283051939882636
4 3.2270315468578734 -2.500122804050484 -4.973093687322303
10 -8.225818532485647 13.385283440171898 7.974517370424213
