LAMMPS data file via write_data, version 2 Aug 2023, timestep = 50000, units = metal

10 atoms
2 atom types

0 15 xlo xhi
0 15 ylo yhi
0 15 zlo zhi

Masses

1 12
2 2

Atoms # atomic

10 2 8.257979497973423 7.632536256682157 9.156340065832795 0 0 0
4 1 7.888460121361186 8.063271794335867 8.241004770353634 0 0 0
7 2 6.599909882781068 6.348242884022336 6.001469348871837 0 0 0
8 2 5.482676365241852 7.704082764133689 8.314435189816177 0 0 0
9 2 8.100872500232871 9.090547706858276 8.295794544720513 0 0 0
1 1 8.425013256594925 7.38386457861293 7.083894385300875 0 0 0
3 1 6.4780459433846405 7.601924802479663 7.807022993484022 0 0 0
2 1 7.005120580888634 6.908493716184867 6.794820784512191 0 0 0
6 2 9.111515116541126 6.55421565904303 7.187252796335652 0 0 0
5 2 8.791207224648645 8.145045381160166 6.373250451050049 0 0 0

Velocities

10 2.7321122123690214 -36.473741478584955 8.249001859300634
4 -6.978143829270743 1.3184382521012663 -2.4694906766354983
7 -1.355939919577292 -12.68821908610245 -10.450550382698237
8 13.235261382616423 -0.16086830071376318 -4.560285330205909
9 -22.296772028544144 11.03643598320046 -4.1506501159126294
1 4.529348241957717 5.463651172753647 8.02181696949951
3 6.925203275215593 1.7221298568450627 -7.562974376178362
2 -2.673615694012198 -1.3862231723956846 4.972802192111701
6 -12.038090301313424 0.7266890532613456 -9.345697631548223
5 8.906676691107496 -5.148272826884587 2.48525694828117
