ITEM: TIMESTEP
0
ITEM: NUMBER OF ATOMS
10
ITEM: BOX BOUNDS pp pp pp
0.0000000000000000e+00 1.5000000000000000e+01
0.0000000000000000e+00 1.5000000000000000e+01
0.0000000000000000e+00 1.5000000000000000e+01
ITEM: ATOMS id type x y z
7 2 6.88902 7.27346 6.08143
9 2 6.26624 5.45744 7.8999
3 1 7.31237 7.40832 8.14497
4 1 6.69725 6.32832 8.61752
10 2 6.46957 6.03611 9.64316
6 2 9.12152 9.01612 7.18031
1 1 8.44164 8.63329 6.43464
2 1 7.55153 7.69883 6.78883
5 2 8.68464 8.86774 5.31987
8 2 7.67632 8.15658 8.84855
ITEM: TIMESTEP
100
ITEM: NUMBER OF ATOMS
10
ITEM: BOX BOUNDS pp pp pp
0.0000000000000000e+00 1.5000000000000000e+01
0.0000000000000000e+00 1.5000000000000000e+01
0.0000000000000000e+00 1.5000000000000000e+01
ITEM: ATOMS id type x y z
7 2 7.15401 7.24953 5.97141
9 2 5.94812 5.82981 7.70377
3 1 7.40383 7.27983 8.2028
4 1 6.5257 6.22511 8.51632
10 2 6.36326 5.88077 9.53322
6 2 9.06582 9.37629 7.20663
1 1 8.4264 8.81203 6.42864
2 1 7.65357 7.71167 6.85257
5 2 8.57267 9.06649 5.42453
8 2 7.96315 7.6452 9.0474
ITEM: TIMESTEP
200
ITEM: NUMBER OF ATOMS
10
ITEM: BOX BOUNDS pp pp pp
0.0000000000000000e+00 1.5000000000000000e+01
0.0000000000000000e+00 1.5000000000000000e+01
0.0000000000000000e+00 1.5000000000000000e+01
ITEM: ATOMS id type x y z
7 2 7.21216 7.24122 6.00016
9 2 5.74259 5.77276 7.81962
3 1 7.395 7.1355 8.13432
4 1 6.49049 6.22022 8.44909
10 2 6.38602 5.85539 9.46838
6 2 9.0043 9.41021 7.26026
1 1 8.44745 8.86009 6.58692
2 1 7.69455 7.81548 6.806
5 2 8.55447 9.24927 5.51344
8 2 8.05956 7.50338 8.96917
ITEM: TIMESTEP
300
ITEM: NUMBER OF ATOMS
10
ITEM: BOX BOUNDS pp pp pp
0.0000000000000000e+00 1.5000000000000000e+01
0.0000000000000000e+00 1.5000000000000000e+01
0.0000000000000000e+00 1.5000000000000000e+01
ITEM: ATOMS id type x y z
7 2 7.02444 7.51824 5.99925
9 2 5.88814 5.62625 7.51894
3 1 7.38194 7.15484 8.13125
4 1 6.49841 6.123 8.37013
10 2 6.50117 5.8903 9.45425
6 2 9.23116 9.1936 7.47057
1 1 8.52736 8.86006 6.62096
2 1 7.59895 7.88724 6.85136
5 2 8.51369 9.24285 5.64875
8 2 7.92545 7.59792 8.95505
ITEM: TIMESTEP
400
ITEM: NUMBER OF ATOMS
10
ITEM: BOX BOUNDS pp pp pp
0.0000000000000000e+00 1.5000000000000000e+01
0.0000000000000000e+00 1.5000000000000000e+01
0.0000000000000000e+00 1.5000000000000000e+01
ITEM: ATOMS id type x y z
7 2 6.90391 7.56313 6.10509
9 2 5.98174 5.7539 7.46254
3 1 7.34422 7.14847 8.17638
4 1 6.52821 6.10213 8.29504
10 2 6.37647 5.51869 9.19429
6 2 9.2424 9.17012 7.37552
1 1 8.53758 8.86206 6.65785
2 1 7.58475 7.95541 6.89098
5 2 8.70018 9.2883 5.61216
8 2 7.95073 7.51748 9.01785
ITEM: TIMESTEP
500
ITEM: NUMBER OF ATOMS
10
ITEM: BOX BOUNDS pp pp pp
0.0000000000000000e+00 1.5000000000000000e+01
0.0000000000000000e+00 1.5000000000000000e+01
0.0000000000000000e+00 1.5000000000000000e+01
ITEM: ATOMS id type x y z
7 2 7.02144 7.65552 5.95663
9 2 5.8096 5.88546 7.45015
3 1 7.41863 7.08647 8.09009
4 1 6.48516 6.12735 8.28919
10 2 6.33773 5.60164 9.2356
6 2 9.10863 9.08588 7.67824
1 1 8.48006 8.94483 6.75368
2 1 7.61788 7.85939 6.82634
5 2 8.67559 9.5275 5.87526
8 2 8.16064 7.35575 8.93733
ITEM: TIMESTEP
600
ITEM: NUMBER OF ATOMS
10
ITEM: BOX BOUNDS pp pp pp
0.0000000000000000e+00 1.5000000000000000e+01
0.0000000000000000e+00 1.5000000000000000e+01
0.0000000000000000e+00 1.5000000000000000e+01
ITEM: ATOMS id type x y z
9 2 5.7164 6.07906 7.33035
8 2 8.18328 7.13651 8.78879
3 1 7.46365 7.06075 8.06686
4 1 6.44887 6.12128 8.19418
10 2 6.33929 5.45312 9.03858
7 2 7.01003 7.61013 6.02683
1 1 8.46623 8.97839 6.84761
2 1 7.65078 7.86719 6.91559
5 2 8.55638 9.55618 5.91479
6 2 9.14142 9.21928 7.64427
ITEM: TIMESTEP
700
ITEM: NUMBER OF ATOMS
10
ITEM: BOX BOUNDS pp pp pp
0.0000000000000000e+00 1.5000000000000000e+01
0.0000000000000000e+00 1.5000000000000000e+01
0.0000000000000000e+00 1.5000000000000000e+01
ITEM: ATOMS id type x y z
9 2 5.77795 5.77398 7.3098
8 2 8.06812 7.11732 8.95523
3 1 7.37262 7.06396 8.04109
4 1 6.48735 6.02821 8.0549
10 2 6.45248 5.24569 8.86033
7 2 6.91225 7.96528 6.17633
1 1 8.54941 8.94422 6.8884
2 1 7.57687 8.0386 7.01583
5 2 8.59452 9.59504 6.03324
6 2 9.40116 9.07277 7.55268
ITEM: TIMESTEP
800
ITEM: NUMBER OF ATOMS
10
ITEM: BOX BOUNDS pp pp pp
0.0000000000000000e+00 1.5000000000000000e+01
0.0000000000000000e+00 1.5000000000000000e+01
0.0000000000000000e+00 1.5000000000000000e+01
ITEM: ATOMS id type x y z
9 2 5.75457 5.76614 7.15972
8 2 8.0544 6.9548 8.96556
3 1 7.3852 7.00462 7.94838
4 1 6.47222 5.96092 8.01456
10 2 6.512 5.35269 8.8451
7 2 6.88726 8.23421 6.1436
1 1 8.58721 8.9652 6.99153
2 1 7.53609 8.0962 7.02292
5 2 8.57125 9.77954 6.25274
6 2 9.46016 8.97099 7.65792
ITEM: TIMESTEP
900
ITEM: NUMBER OF ATOMS
10
ITEM: BOX BOUNDS pp pp pp
0.0000000000000000e+00 1.5000000000000000e+01
0.0000000000000000e+00 1.5000000000000000e+01
0.0000000000000000e+00 1.5000000000000000e+01
ITEM: ATOMS id type x y z
9 2 5.6124 6.08132 7.22627
8 2 8.26633 6.81404 8.60267
3 1 7.46183 6.9024 7.95628
4 1 6.43254 6.0438 7.90234
10 2 6.29657 5.14939 8.62304
7 2 6.93979 7.96533 6.21903
1 1 8.51923 9.04365 7.0825
2 1 7.62382 8.05394 7.07773
5 2 8.5087 9.7575 6.26082
6 2 9.27569 9.18974 7.84409
ITEM: TIMESTEP
1000
ITEM: NUMBER OF ATOMS
10
ITEM: BOX BOUNDS pp pp pp
0.0000000000000000e+00 1.5000000000000000e+01
0.0000000000000000e+00 1.5000000000000000e+01
0.0000000000000000e+00 1.5000000000000000e+01
ITEM: ATOMS id type x y z
9 2 5.65072 6.14413 7.09253
8 2 8.28046 6.77642 8.56665
3 1 7.44113 6.902 7.89967
4 1 6.45435 5.97213 7.88329
10 2 6.41326 5.23893 8.62657
7 2 6.84285 8.18599 6.19314
1 1 8.54276 9.07159 7.19823
2 1 7.56991 8.06236 6.99464
5 2 8.62814 9.91972 6.53698
6 2 9.25966 8.90636 8.01811
ITEM: TIMESTEP
1100
ITEM: NUMBER OF ATOMS
10
ITEM: BOX BOUNDS pp pp pp
0.0000000000000000e+00 1.5000000000000000e+01
0.0000000000000000e+00 1.5000000000000000e+01
0.0000000000000000e+00 1.5000000000000000e+01
ITEM: ATOMS id type x y z
9 2 5.80057 6.01601 6.97103
8 2 8.24431 6.77955 8.81647
3 1 7.38915 6.90146 7.94884
4 1 6.49282 5.94415 7.7497
10 2 6.34964 4.99341 8.32041
7 2 6.70306 8.38057 6.37105
1 1 8.56594 9.04277 7.20058
2 1 7.54896 8.16546 7.09231
5 2 8.68114 9.96283 6.56487
6 2 9.36408 8.76466 7.89656
ITEM: TIMESTEP
1200
ITEM: NUMBER OF ATOMS
10
ITEM: BOX BOUNDS pp pp pp
0.0000000000000000e+00 1.5000000000000000e+01
0.0000000000000000e+00 1.5000000000000000e+01
0.0000000000000000e+00 1.5000000000000000e+01
ITEM: ATOMS id type x y z
9 2 5.716 6.2002 6.84162
8 2 8.15643 6.71216 8.68635
3 1 7.4207 6.87442 7.91169
4 1 6.44357 5.93378 7.65866
10 2 6.49031 4.99173 8.14167
7 2 6.73273 8.27296 6.50531
1 1 8.57006 9.05577 7.26703
2 1 7.56847 8.16306 7.18225
5 2 8.58659 9.94068 6.67919
6 2 9.42512 8.94014 7.91706
ITEM: TIMESTEP
1300
ITEM: NUMBER OF ATOMS
10
ITEM: BOX BOUNDS pp pp pp
0.0000000000000000e+00 1.5000000000000000e+01
0.0000000000000000e+00 1.5000000000000000e+01
0.0000000000000000e+00 1.5000000000000000e+01
ITEM: ATOMS id type x y z
9 2 5.48107 6.01502 7.04252
8 2 8.20961 6.5894 8.40008
3 1 7.48543 6.84826 7.70293
4 1 6.40129 5.97101 7.64938
10 2 6.59449 5.00638 8.28796
7 2 6.86358 8.43365 6.37673
1 1 8.54441 9.05977 7.45234
2 1 7.60649 8.17105 7.1226
5 2 8.44869 10.0463 6.98612
6 2 9.30079 8.82864 8.23208
ITEM: TIMESTEP
1400
ITEM: NUMBER OF ATOMS
10
ITEM: BOX BOUNDS pp pp pp
0.0000000000000000e+00 1.5000000000000000e+01
0.0000000000000000e+00 1.5000000000000000e+01
0.0000000000000000e+00 1.5000000000000000e+01
ITEM: ATOMS id type x y z
9 2 5.53492 6.21039 6.96882
8 2 8.25929 6.28133 8.38161
3 1 7.44367 6.79573 7.71119
4 1 6.43752 5.94422 7.52254
10 2 6.43813 4.96616 7.86287
7 2 6.80865 8.51446 6.55284
1 1 8.54047 9.1111 7.4975
2 1 7.60755 8.15272 7.25096
5 2 8.53862 10.1105 7.02931
6 2 9.36911 9.11449 8.20039
ITEM: TIMESTEP
1500
ITEM: NUMBER OF ATOMS
10
ITEM: BOX BOUNDS pp pp pp
0.0000000000000000e+00 1.5000000000000000e+01
0.0000000000000000e+00 1.5000000000000000e+01
0.0000000000000000e+00 1.5000000000000000e+01
ITEM: ATOMS id type x y z
9 2 5.66955 6.12205 6.71961
8 2 8.25498 6.45507 8.42702
3 1 7.42945 6.82811 7.75377
4 1 6.5038 5.93179 7.34795
10 2 6.48038 4.90911 7.74815
7 2 6.6245 8.70254 6.89026
1 1 8.58649 9.08457 7.53904
2 1 7.49979 8.20095 7.32782
5 2 8.54394 10.1201 7.20084
6 2 9.43351 8.6386 8.09168
ITEM: TIMESTEP
1600
ITEM: NUMBER OF ATOMS
10
ITEM: BOX BOUNDS pp pp pp
0.0000000000000000e+00 1.5000000000000000e+01
0.0000000000000000e+00 1.5000000000000000e+01
0.0000000000000000e+00 1.5000000000000000e+01
ITEM: ATOMS id type x y z
9 2 5.63555 6.3638 6.76601
8 2 8.28964 6.49391 8.20946
3 1 7.4692 6.80389 7.67271
4 1 6.51143 5.94809 7.32075
10 2 6.53022 4.90602 7.64523
7 2 6.54607 8.55001 6.84962
1 1 8.54922 9.03622 7.645
2 1 7.48763 8.23506 7.31963
5 2 8.61145 10.1136 7.44477
6 2 9.40614 8.65307 8.22536
ITEM: TIMESTEP
1700
ITEM: NUMBER OF ATOMS
10
ITEM: BOX BOUNDS pp pp pp
0.0000000000000000e+00 1.5000000000000000e+01
0.0000000000000000e+00 1.5000000000000000e+01
0.0000000000000000e+00 1.5000000000000000e+01
ITEM: ATOMS id type x y z
9 2 5.51706 6.45399 6.93528
4 1 6.41867 5.93865 7.29312
10 2 6.33467 4.85509 7.4185
8 2 8.49965 6.31906 8.08716
3 1 7.55029 6.73663 7.59485
7 2 6.75719 8.6136 6.7472
5 2 8.40956 10.1774 7.539
2 1 7.57982 8.2105 7.34785
6 2 9.25721 8.73624 8.40806
1 1 8.50933 9.12499 7.72315
ITEM: TIMESTEP
1800
ITEM: NUMBER OF ATOMS
10
ITEM: BOX BOUNDS pp pp pp
0.0000000000000000e+00 1.5000000000000000e+01
0.0000000000000000e+00 1.5000000000000000e+01
0.0000000000000000e+00 1.5000000000000000e+01
ITEM: ATOMS id type x y z
9 2 5.61601 6.29005 6.74459
4 1 6.48691 5.90437 7.20886
10 2 6.66922 4.84786 7.48635
8 2 8.29924 6.362 8.12865
3 1 7.44265 6.80489 7.5254
7 2 6.59721 8.76948 6.90563
5 2 8.47023 10.0978 7.76649
2 1 7.5214 8.32444 7.39183
6 2 9.42629 8.68728 8.35122
1 1 8.55668 8.99388 7.79158
ITEM: TIMESTEP
1900
ITEM: NUMBER OF ATOMS
10
ITEM: BOX BOUNDS pp pp pp
0.0000000000000000e+00 1.5000000000000000e+01
0.0000000000000000e+00 1.5000000000000000e+01
0.0000000000000000e+00 1.5000000000000000e+01
ITEM: ATOMS id type x y z
9 2 5.56272 6.31991 6.4277
4 1 6.48683 5.9594 6.99586
10 2 6.575 4.88607 7.09685
8 2 8.26488 6.44381 8.1764
3 1 7.44534 6.76038 7.62622
7 2 6.6719 8.72419 7.23501
5 2 8.27398 10.0707 7.63726
2 1 7.54239 8.21654 7.55763
6 2 9.5415 8.77985 8.32467
1 1 8.56445 9.06293 7.81882
ITEM: TIMESTEP
2000
ITEM: NUMBER OF ATOMS
10
ITEM: BOX BOUNDS pp pp pp
0.0000000000000000e+00 1.5000000000000000e+01
0.0000000000000000e+00 1.5000000000000000e+01
0.0000000000000000e+00 1.5000000000000000e+01
ITEM: ATOMS id type x y z
9 2 5.67249 6.4495 6.57353
4 1 6.54047 6.00009 6.97468
10 2 6.48415 4.8831 7.00049
8 2 8.32219 6.22565 7.8753
3 1 7.45036 6.7637 7.50015
7 2 6.62242 8.78479 7.18675
5 2 8.36205 10.1248 7.92064
2 1 7.51682 8.20967 7.50049
6 2 9.41789 8.78005 8.50694
1 1 8.53282 9.02187 7.99557
ITEM: TIMESTEP
2100
ITEM: NUMBER OF ATOMS
10
ITEM: BOX BOUNDS pp pp pp
0.0000000000000000e+00 1.5000000000000000e+01
0.0000000000000000e+00 1.5000000000000000e+01
0.0000000000000000e+00 1.5000000000000000e+01
ITEM: ATOMS id type x y z
9 2 5.50984 6.32692 6.65057
4 1 6.52389 5.98787 6.96432
10 2 6.57994 4.92737 7.00102
8 2 8.46981 6.32368 7.66484
3 1 7.52765 6.81639 7.36991
7 2 6.66631 8.9355 7.09463
5 2 8.46227 10.0594 8.28759
2 1 7.49622 8.24761 7.45571
6 2 9.27155 8.36363 8.66208
1 1 8.47963 8.99539 8.13143
ITEM: TIMESTEP
2200
ITEM: NUMBER OF ATOMS
10
ITEM: BOX BOUNDS pp pp pp
0.0000000000000000e+00 1.5000000000000000e+01
0.0000000000000000e+00 1.5000000000000000e+01
0.0000000000000000e+00 1.5000000000000000e+01
ITEM: ATOMS id type x y z
9 2 5.64701 6.63142 6.56242
4 1 6.52074 6.07122 6.83182
10 2 6.54351 4.99758 6.61559
8 2 8.45915 6.25804 7.76773
3 1 7.55321 6.77418 7.41671
7 2 6.56856 8.50461 7.21784
5 2 8.37848 10.0738 8.27843
2 1 7.48818 8.19527 7.62273
6 2 9.35536 8.58505 8.55037
1 1 8.46652 8.98758 8.11151
ITEM: TIMESTEP
2300
ITEM: NUMBER OF ATOMS
10
ITEM: BOX BOUNDS pp pp pp
0.0000000000000000e+00 1.5000000000000000e+01
0.0000000000000000e+00 1.5000000000000000e+01
0.0000000000000000e+00 1.5000000000000000e+01
ITEM: ATOMS id type x y z
9 2 5.64704 6.51034 6.26216
4 1 6.55229 6.0411 6.71027
10 2 6.78102 4.97301 6.59205
3 1 7.5174 6.79771 7.40912
8 2 8.36591 6.21268 7.84285
6 2 9.39067 8.38541 8.30711
1 1 8.47894 8.96855 8.1436
7 2 6.45953 8.75503 7.54686
2 1 7.45883 8.25795 7.71142
5 2 8.43507 9.99165 8.49155
ITEM: TIMESTEP
2400
ITEM: NUMBER OF ATOMS
10
ITEM: BOX BOUNDS pp pp pp
0.0000000000000000e+00 1.5000000000000000e+01
0.0000000000000000e+00 1.5000000000000000e+01
0.0000000000000000e+00 1.5000000000000000e+01
ITEM: ATOMS id type x y z
9 2 5.52497 6.43649 6.4882
4 1 6.5303 6.07392 6.69139
10 2 6.73755 5.02473 6.39589
3 1 7.53156 6.75927 7.27148
8 2 8.43501 6.18959 7.4137
6 2 9.38744 8.5194 8.7184
1 1 8.44585 8.97721 8.34356
7 2 6.51807 8.72507 7.41072
2 1 7.51707 8.24318 7.6724
5 2 8.37232 10.0033 8.58909
ITEM: TIMESTEP
2500
ITEM: NUMBER OF ATOMS
10
ITEM: BOX BOUNDS pp pp pp
0.0000000000000000e+00 1.5000000000000000e+01
0.0000000000000000e+00 1.5000000000000000e+01
0.0000000000000000e+00 1.5000000000000000e+01
ITEM: ATOMS id type x y z
9 2 5.52637 6.50133 6.51817
4 1 6.54654 6.1607 6.65335
10 2 6.77507 5.15037 6.33301
3 1 7.54717 6.81605 7.1641
8 2 8.5592 6.31555 7.23358
6 2 9.34019 8.44554 8.8715
1 1 8.40286 8.86709 8.49747
7 2 6.64223 8.64704 7.46465
2 1 7.5446 8.19105 7.65189
5 2 8.03393 9.95083 8.66723
ITEM: TIMESTEP
2600
ITEM: NUMBER OF ATOMS
10
ITEM: BOX BOUNDS pp pp pp
0.0000000000000000e+00 1.5000000000000000e+01
0.0000000000000000e+00 1.5000000000000000e+01
0.0000000000000000e+00 1.5000000000000000e+01
ITEM: ATOMS id type x y z
9 2 5.67419 6.53366 6.13857
4 1 6.62011 6.16041 6.48595
10 2 6.90769 5.16709 6.19929
3 1 7.51736 6.88366 7.20614
8 2 8.47245 6.40043 7.45901
6 2 9.45633 8.30966 8.64098
1 1 8.44343 8.8086 8.49687
7 2 6.40711 8.75365 7.77408
2 1 7.40365 8.19127 7.77749
5 2 8.29891 9.79189 8.87835
ITEM: TIMESTEP
2700
ITEM: NUMBER OF ATOMS
10
ITEM: BOX BOUNDS pp pp pp
0.0000000000000000e+00 1.5000000000000000e+01
0.0000000000000000e+00 1.5000000000000000e+01
0.0000000000000000e+00 1.5000000000000000e+01
ITEM: ATOMS id type x y z
9 2 5.75584 6.85502 6.20628
4 1 6.65711 6.24341 6.40339
10 2 6.63527 5.32486 5.76753
3 1 7.58373 6.79101 7.22056
8 2 8.4823 6.21779 7.39081
6 2 9.34504 8.4911 8.70831
1 1 8.36777 8.82943 8.50327
7 2 6.42805 8.62016 7.73881
2 1 7.42942 8.1127 7.90487
5 2 8.24924 9.85174 8.88474
ITEM: TIMESTEP
2800
ITEM: NUMBER OF ATOMS
10
ITEM: BOX BOUNDS pp pp pp
0.0000000000000000e+00 1.5000000000000000e+01
0.0000000000000000e+00 1.5000000000000000e+01
0.0000000000000000e+00 1.5000000000000000e+01
ITEM: ATOMS id type x y z
9 2 5.69075 6.80255 6.26816
4 1 6.62643 6.21756 6.37198
10 2 6.79884 5.23968 5.92129
3 1 7.61955 6.91502 7.13634
8 2 8.6409 6.46395 7.31158
6 2 9.31221 8.15905 8.74401
1 1 8.34969 8.73318 8.62561
7 2 6.5356 8.70641 7.65632
2 1 7.40366 8.17568 7.82518
5 2 8.14974 9.59981 9.23296
ITEM: TIMESTEP
2900
ITEM: NUMBER OF ATOMS
10
ITEM: BOX BOUNDS pp pp pp
0.0000000000000000e+00 1.5000000000000000e+01
0.0000000000000000e+00 1.5000000000000000e+01
0.0000000000000000e+00 1.5000000000000000e+01
ITEM: ATOMS id type x y z
9 2 5.66775 6.64803 6.30817
4 1 6.65415 6.28521 6.33501
10 2 6.90452 5.38193 5.80831
3 1 7.58621 6.91858 7.08485
8 2 8.64669 6.62336 7.06129
6 2 9.27802 8.18072 8.9644
1 1 8.34144 8.63501 8.71856
7 2 6.45889 8.68767 7.53711
2 1 7.43445 8.18485 7.84685
5 2 8.07064 9.55639 9.29812
ITEM: TIMESTEP
3000
ITEM: NUMBER OF ATOMS
10
ITEM: BOX BOUNDS pp pp pp
0.0000000000000000e+00 1.5000000000000000e+01
0.0000000000000000e+00 1.5000000000000000e+01
0.0000000000000000e+00 1.5000000000000000e+01
ITEM: ATOMS id type x y z
9 2 5.61965 6.85619 6.03148
4 1 6.69389 6.40855 6.1818
10 2 6.94987 5.51509 5.54158
3 1 7.57531 6.8164 7.08578
8 2 8.56773 6.40761 7.04068
6 2 9.40923 8.38056 8.84483
1 1 8.31857 8.72907 8.79142
7 2 6.45115 8.54975 7.99139
2 1 7.43691 8.0397 7.96266
5 2 7.97822 9.54848 9.30907
ITEM: TIMESTEP
3100
ITEM: NUMBER OF ATOMS
10
ITEM: BOX BOUNDS pp pp pp
0.0000000000000000e+00 1.5000000000000000e+01
0.0000000000000000e+00 1.5000000000000000e+01
0.0000000000000000e+00 1.5000000000000000e+01
ITEM: ATOMS id type x y z
9 2 5.82151 6.84806 5.78616
4 1 6.76621 6.48736 6.07857
10 2 7.14003 5.65291 5.50486
3 1 7.54556 6.94781 7.03695
8 2 8.52138 6.42746 7.07242
6 2 9.36103 8.40445 8.74506
1 1 8.34281 8.57733 8.8114
7 2 6.32882 8.33728 8.20345
2 1 7.33296 8.01706 8.0657
5 2 8.02601 9.37246 9.62134
ITEM: TIMESTEP
3200
ITEM: NUMBER OF ATOMS
10
ITEM: BOX BOUNDS pp pp pp
0.0000000000000000e+00 1.5000000000000000e+01
0.0000000000000000e+00 1.5000000000000000e+01
0.0000000000000000e+00 1.5000000000000000e+01
ITEM: ATOMS id type x y z
9 2 5.70323 6.81024 6.1582
4 1 6.72217 6.53061 6.09241
10 2 7.03157 5.88809 5.29983
3 1 7.68892 7.06265 6.93845
8 2 8.79132 6.7329 6.89665
6 2 9.29219 8.0306 9.05125
1 1 8.20294 8.47328 8.96224
7 2 6.33478 8.37395 7.89686
2 1 7.39601 7.95582 8.00252
5 2 7.91069 9.2501 9.61249
ITEM: TIMESTEP
3300
ITEM: NUMBER OF ATOMS
10
ITEM: BOX BOUNDS pp pp pp
0.0000000000000000e+00 1.5000000000000000e+01
0.0000000000000000e+00 1.5000000000000000e+01
0.0000000000000000e+00 1.5000000000000000e+01
ITEM: ATOMS id type x y z
9 2 5.69361 6.91103 6.13847
4 1 6.80548 6.54566 6.02164
10 2 7.06595 5.81093 5.22402
3 1 7.70654 7.13584 6.91333
8 2 8.6861 6.74556 6.82329
6 2 9.16206 7.9968 8.9877
1 1 8.18836 8.36478 9.00764
7 2 6.31594 8.34498 8.03922
2 1 7.33796 8.01678 8.0253
5 2 7.97025 9.03233 9.86889
ITEM: TIMESTEP
3400
ITEM: NUMBER OF ATOMS
10
ITEM: BOX BOUNDS pp pp pp
0.0000000000000000e+00 1.5000000000000000e+01
0.0000000000000000e+00 1.5000000000000000e+01
0.0000000000000000e+00 1.5000000000000000e+01
ITEM: ATOMS id type x y z
9 2 5.83493 6.97635 5.87979
4 1 6.83887 6.69767 5.93044
10 2 7.15883 6.06651 5.06085
3 1 7.66561 7.03389 6.95357
8 2 8.71695 6.7121 6.94713
6 2 9.23653 8.08888 8.89974
1 1 8.18012 8.36771 9.01656
7 2 6.25287 8.1809 8.24019
2 1 7.30492 7.92942 8.10564
5 2 7.98681 9.02314 9.82399
ITEM: TIMESTEP
3500
ITEM: NUMBER OF ATOMS
10
ITEM: BOX BOUNDS pp pp pp
0.0000000000000000e+00 1.5000000000000000e+01
0.0000000000000000e+00 1.5000000000000000e+01
0.0000000000000000e+00 1.5000000000000000e+01
ITEM: ATOMS id type x y z
9 2 5.77641 7.09349 5.97677
4 1 6.84164 6.77733 5.88323
10 2 7.19439 6.23344 5.08398
3 1 7.65702 7.0425 6.93251
8 2 8.75278 6.70469 6.83793
6 2 9.30737 8.17082 9.10166
1 1 8.1785 8.33122 9.08751
7 2 6.22065 8.04968 8.13049
2 1 7.35855 7.85156 8.06957
5 2 7.65815 8.9522 9.92121
ITEM: TIMESTEP
3600
ITEM: NUMBER OF ATOMS
10
ITEM: BOX BOUNDS pp pp pp
0.0000000000000000e+00 1.5000000000000000e+01
0.0000000000000000e+00 1.5000000000000000e+01
0.0000000000000000e+00 1.5000000000000000e+01
ITEM: ATOMS id type x y z
9 2 5.80493 6.81406 5.77885
4 1 6.86285 6.77196 5.88957
10 2 7.3691 6.12003 5.04266
3 1 7.66833 7.19373 6.83941
8 2 8.69365 6.97697 6.78229
6 2 9.16523 7.91773 9.127
1 1 8.15868 8.1894 9.14755
7 2 6.33419 8.26385 8.22061
2 1 7.31513 7.93599 8.10871
5 2 7.72701 8.58082 10.0261
ITEM: TIMESTEP
3700
ITEM: NUMBER OF ATOMS
10
ITEM: BOX BOUNDS pp pp pp
0.0000000000000000e+00 1.5000000000000000e+01
0.0000000000000000e+00 1.5000000000000000e+01
0.0000000000000000e+00 1.5000000000000000e+01
ITEM: ATOMS id type x y z
9 2 5.71218 6.87342 5.92556
4 1 6.89729 6.84545 5.79851
10 2 7.31795 6.44455 4.92019
3 1 7.71531 7.23598 6.8244
8 2 8.78755 7.04929 6.6662
6 2 9.18835 7.83653 9.35858
1 1 8.10069 8.1349 9.19998
7 2 6.24705 8.21007 8.16909
2 1 7.31875 7.81394 8.13623
5 2 7.67868 8.62451 10.0947
ITEM: TIMESTEP
3800
ITEM: NUMBER OF ATOMS
10
ITEM: BOX BOUNDS pp pp pp
0.0000000000000000e+00 1.5000000000000000e+01
0.0000000000000000e+00 1.5000000000000000e+01
0.0000000000000000e+00 1.5000000000000000e+01
ITEM: ATOMS id type x y z
9 2 5.96642 7.27812 5.82423
4 1 6.93197 7.04251 5.76225
10 2 7.32415 6.55422 4.82789
3 1 7.73069 7.23243 6.86785
8 2 8.84746 6.90286 6.84941
6 2 9.16787 8.05847 9.05559
1 1 8.04729 8.08565 9.18252
7 2 6.20739 7.70701 8.25124
2 1 7.29759 7.68717 8.18074
5 2 7.5655 8.43276 10.1205
ITEM: TIMESTEP
3900
ITEM: NUMBER OF ATOMS
10
ITEM: BOX BOUNDS pp pp pp
0.0000000000000000e+00 1.5000000000000000e+01
0.0000000000000000e+00 1.5000000000000000e+01
0.0000000000000000e+00 1.5000000000000000e+01
ITEM: ATOMS id type x y z
9 2 5.86767 7.19161 5.78774
4 1 6.99963 7.08684 5.70852
10 2 7.41942 6.77948 4.80666
3 1 7.7576 7.29114 6.86702
8 2 8.81419 7.1583 6.83133
6 2 9.095 7.94297 9.11104
1 1 8.0452 7.96773 9.22898
7 2 6.14402 7.65261 8.32441
2 1 7.20535 7.68234 8.16786
5 2 7.73706 8.32672 10.1936
ITEM: TIMESTEP
4000
ITEM: NUMBER OF ATOMS
10
ITEM: BOX BOUNDS pp pp pp
0.0000000000000000e+00 1.5000000000000000e+01
0.0000000000000000e+00 1.5000000000000000e+01
0.0000000000000000e+00 1.5000000000000000e+01
ITEM: ATOMS id type x y z
9 2 5.90499 6.97291 5.90544
4 1 7.00733 7.08667 5.7561
10 2 7.33793 6.86381 4.62752
3 1 7.76877 7.39283 6.79644
8 2 8.85041 7.3944 6.61364
6 2 9.0909 7.73217 9.30725
1 1 7.97269 7.84255 9.30769
7 2 6.16636 7.79127 8.25059
2 1 7.29895 7.72991 8.13241
5 2 7.48699 8.15367 10.2287
ITEM: TIMESTEP
4100
ITEM: NUMBER OF ATOMS
10
ITEM: BOX BOUNDS pp pp pp
0.0000000000000000e+00 1.5000000000000000e+01
0.0000000000000000e+00 1.5000000000000000e+01
0.0000000000000000e+00 1.5000000000000000e+01
ITEM: ATOMS id type x y z
9 2 5.98467 7.10001 5.61154
4 1 7.0214 7.15113 5.68272
10 2 7.56402 6.9847 4.87778
3 1 7.72522 7.42841 6.82089
8 2 8.81499 7.34246 6.78795
6 2 9.07694 7.83663 9.27022
1 1 8.01637 7.80521 9.29242
7 2 6.17526 7.693 8.30176
2 1 7.2301 7.67215 8.16502
5 2 7.54958 7.92182 10.2735
ITEM: TIMESTEP
4200
ITEM: NUMBER OF ATOMS
10
ITEM: BOX BOUNDS pp pp pp
0.0000000000000000e+00 1.5000000000000000e+01
0.0000000000000000e+00 1.5000000000000000e+01
0.0000000000000000e+00 1.5000000000000000e+01
ITEM: ATOMS id type x y z
9 2 5.90509 7.31964 5.58835
4 1 7.03549 7.31012 5.67448
10 2 7.65803 7.26475 4.66076
3 1 7.74669 7.35944 6.83598
8 2 8.86641 7.24153 6.70665
6 2 9.12561 7.9313 9.35094
1 1 7.96691 7.82306 9.29853
7 2 6.14721 7.51055 8.23858
2 1 7.26028 7.50562 8.21004
5 2 7.36539 7.96277 10.2295
ITEM: TIMESTEP
4300
ITEM: NUMBER OF ATOMS
10
ITEM: BOX BOUNDS pp pp pp
0.0000000000000000e+00 1.5000000000000000e+01
0.0000000000000000e+00 1.5000000000000000e+01
0.0000000000000000e+00 1.5000000000000000e+01
ITEM: ATOMS id type x y z
9 2 5.87713 7.3579 5.7257
4 1 7.07853 7.38048 5.64003
10 2 7.53089 7.23711 4.69931
3 1 7.82529 7.43717 6.78166
8 2 8.86738 7.44279 6.70404
6 2 8.87878 7.81467 9.40212
1 1 7.88252 7.70003 9.35159
7 2 6.1782 7.50172 8.23988
2 1 7.27848 7.50925 8.19915
5 2 7.4027 7.70424 10.2834
ITEM: TIMESTEP
4400
ITEM: NUMBER OF ATOMS
10
ITEM: BOX BOUNDS pp pp pp
0.0000000000000000e+00 1.5000000000000000e+01
0.0000000000000000e+00 1.5000000000000000e+01
0.0000000000000000e+00 1.5000000000000000e+01
ITEM: ATOMS id type x y z
9 2 6.15931 7.15938 5.58084
4 1 7.1427 7.41391 5.63305
10 2 7.76202 7.2743 4.62358
3 1 7.78124 7.58548 6.86083
8 2 8.87445 7.89031 6.80737
6 2 9.05234 7.51753 9.20082
1 1 7.90702 7.49861 9.33369
7 2 6.04059 7.58714 8.17149
2 1 7.12498 7.55586 8.19503
5 2 7.49964 7.4682 10.3693
ITEM: TIMESTEP
4500
ITEM: NUMBER OF ATOMS
10
ITEM: BOX BOUNDS pp pp pp
0.0000000000000000e+00 1.5000000000000000e+01
0.0000000000000000e+00 1.5000000000000000e+01
0.0000000000000000e+00 1.5000000000000000e+01
ITEM: ATOMS id type x y z
9 2 6.07636 7.24602 5.6934
4 1 7.16864 7.53825 5.6637
10 2 7.59764 7.63022 4.79783
1 1 7.81066 7.44296 9.351
5 2 7.28485 7.39122 10.3351
3 1 7.8289 7.59026 6.81852
8 2 8.88887 7.9146 6.86584
6 2 8.92502 7.57141 9.34617
2 1 7.22878 7.44597 8.12772
7 2 6.12934 7.3619 8.0851
ITEM: TIMESTEP
4600
ITEM: NUMBER OF ATOMS
10
ITEM: BOX BOUNDS pp pp pp
0.0000000000000000e+00 1.5000000000000000e+01
0.0000000000000000e+00 1.5000000000000000e+01
0.0000000000000000e+00 1.5000000000000000e+01
ITEM: ATOMS id type x y z
9 2 6.11894 7.57037 5.4991
4 1 7.17943 7.65761 5.64899
10 2 7.77861 7.83495 4.60312
1 1 7.82258 7.44775 9.38533
5 2 7.31189 7.20289 10.2842
3 1 7.81609 7.58265 6.85575
8 2 8.87927 7.6891 6.78088
6 2 8.81809 7.83153 9.47859
2 1 7.1945 7.32423 8.12807
7 2 6.14163 7.01767 8.13426
ITEM: TIMESTEP
4700
ITEM: NUMBER OF ATOMS
10
ITEM: BOX BOUNDS pp pp pp
0.0000000000000000e+00 1.5000000000000000e+01
0.0000000000000000e+00 1.5000000000000000e+01
0.0000000000000000e+00 1.5000000000000000e+01
ITEM: ATOMS id type x y z
9 2 6.12899 7.40724 5.39738
4 1 7.22193 7.6803 5.62803
10 2 7.76297 8.01972 4.8287
1 1 7.79793 7.35198 9.3315
5 2 7.21628 7.1311 10.2526
3 1 7.79585 7.65942 6.86057
8 2 8.87547 7.87126 6.85432
6 2 8.82441 7.63216 9.53377
2 1 7.21454 7.31892 8.15078
7 2 6.13437 7.09484 8.19692
ITEM: TIMESTEP
4800
ITEM: NUMBER OF ATOMS
10
ITEM: BOX BOUNDS pp pp pp
0.0000000000000000e+00 1.5000000000000000e+01
0.0000000000000000e+00 1.5000000000000000e+01
0.0000000000000000e+00 1.5000000000000000e+01
ITEM: ATOMS id type x y z
9 2 6.27744 7.29441 5.52001
4 1 7.21446 7.66861 5.61137
10 2 7.82278 8.02711 4.73844
1 1 7.77539 7.20611 9.34041
5 2 7.10558 6.89041 10.1292
3 1 7.79021 7.78027 6.8836
8 2 8.8699 8.12664 6.92023
6 2 8.84416 7.425 9.63598
2 1 7.22291 7.39318 8.14549
7 2 6.18632 7.16738 8.05989
ITEM: TIMESTEP
4900
ITEM: NUMBER OF ATOMS
10
ITEM: BOX BOUNDS pp pp pp
0.0000000000000000e+00 1.5000000000000000e+01
0.0000000000000000e+00 1.5000000000000000e+01
0.0000000000000000e+00 1.5000000000000000e+01
ITEM: ATOMS id type x y z
9 2 6.19262 7.48906 5.3827
4 1 7.31125 7.83432 5.62318
10 2 7.88473 8.14375 4.74643
1 1 7.79136 7.17286 9.32565
5 2 7.22607 6.83677 10.2515
3 1 7.8167 7.76879 6.88668
8 2 8.80214 8.07717 7.11632
6 2 8.75451 7.53572 9.45307
2 1 7.1126 7.27308 8.15334
7 2 6.07256 6.84318 8.00584
ITEM: TIMESTEP
5000
ITEM: NUMBER OF ATOMS
10
ITEM: BOX BOUNDS pp pp pp
0.0000000000000000e+00 1.5000000000000000e+01
0.0000000000000000e+00 1.5000000000000000e+01
0.0000000000000000e+00 1.5000000000000000e+01
ITEM: ATOMS id type x y z
1 1 7.65249 7.12661 9.35531
5 2 7.10795 6.85363 10.1584
2 1 7.19194 7.13018 8.065
7 2 6.20047 6.68789 7.88758
3 1 7.89341 7.74791 6.84319
8 2 8.93925 8.06231 7.09924
9 2 6.26777 7.65474 5.65349
10 2 7.78418 8.45704 4.78304
4 1 7.29126 7.97697 5.70856
6 2 8.64976 7.61441 9.47487
ITEM: TIMESTEP
5100
ITEM: NUMBER OF ATOMS
10
ITEM: BOX BOUNDS pp pp pp
0.0000000000000000e+00 1.5000000000000000e+01
0.0000000000000000e+00 1.5000000000000000e+01
0.0000000000000000e+00 1.5000000000000000e+01
ITEM: ATOMS id type x y z
1 1 7.68054 7.02411 9.32652
5 2 7.0592 6.36591 10.1468
2 1 7.16971 7.17263 8.02781
7 2 6.18389 6.81584 7.71118
3 1 7.85302 7.85834 6.95218
8 2 8.87692 8.17365 7.16828
9 2 6.31422 7.64504 5.52589
10 2 7.8311 8.40033 4.86264
4 1 7.33153 8.00283 5.67128
6 2 8.64979 7.47178 9.60747
ITEM: TIMESTEP
5200
ITEM: NUMBER OF ATOMS
10
ITEM: BOX BOUNDS pp pp pp
0.0000000000000000e+00 1.5000000000000000e+01
0.0000000000000000e+00 1.5000000000000000e+01
0.0000000000000000e+00 1.5000000000000000e+01
ITEM: ATOMS id type x y z
1 1 7.66245 6.90924 9.25157
5 2 7.18264 6.37488 10.0106
2 1 7.13855 7.16084 8.0731
7 2 6.10194 6.86286 7.98664
3 1 7.77032 7.91963 6.96653
8 2 8.69986 8.43403 7.23905
9 2 6.5625 7.56406 5.18928
10 2 8.0316 8.68172 5.02486
4 1 7.40173 8.02579 5.69214
6 2 8.70721 7.20941 9.53854
ITEM: TIMESTEP
5300
ITEM: NUMBER OF ATOMS
10
ITEM: BOX BOUNDS pp pp pp
0.0000000000000000e+00 1.5000000000000000e+01
0.0000000000000000e+00 1.5000000000000000e+01
0.0000000000000000e+00 1.5000000000000000e+01
ITEM: ATOMS id type x y z
1 1 7.61567 6.85674 9.29976
5 2 6.96714 6.16709 9.90928
2 1 7.22607 7.13049 8.01638
7 2 6.26515 6.64692 7.72271
3 1 7.83864 7.91091 7.00127
8 2 8.78012 8.47135 7.11592
9 2 6.40546 7.66092 5.29603
10 2 7.95912 8.78715 5.01816
4 1 7.37207 8.14546 5.69188
6 2 8.43237 7.22494 9.77119
ITEM: TIMESTEP
5400
ITEM: NUMBER OF ATOMS
10
ITEM: BOX BOUNDS pp pp pp
0.0000000000000000e+00 1.5000000000000000e+01
0.0000000000000000e+00 1.5000000000000000e+01
0.0000000000000000e+00 1.5000000000000000e+01
ITEM: ATOMS id type x y z
1 1 7.55758 6.83995 9.23828
5 2 7.04887 6.18576 9.87994
2 1 7.21806 7.01586 7.97321
7 2 6.44453 6.38855 7.55143
3 1 7.8566 7.89126 6.9891
8 2 8.78829 8.31813 7.35431
9 2 6.4583 7.95621 5.2799
10 2 8.01147 8.90117 5.21053
4 1 7.36302 8.25069 5.77038
6 2 8.40101 7.48366 9.78708
ITEM: TIMESTEP
5500
ITEM: NUMBER OF ATOMS
10
ITEM: BOX BOUNDS pp pp pp
0.0000000000000000e+00 1.5000000000000000e+01
0.0000000000000000e+00 1.5000000000000000e+01
0.0000000000000000e+00 1.5000000000000000e+01
ITEM: ATOMS id type x y z
1 1 7.58702 6.73086 9.2182
5 2 6.97139 6.03743 9.94009
2 1 7.16729 6.99744 7.93768
7 2 6.30972 6.50323 7.46807
3 1 7.80802 7.99369 7.04288
8 2 8.63032 8.60414 7.46441
9 2 6.66128 7.71944 5.33694
10 2 7.95732 9.05022 5.21986
4 1 7.4598 8.28707 5.78395
6 2 8.46119 7.25117 9.56339
ITEM: TIMESTEP
5600
ITEM: NUMBER OF ATOMS
10
ITEM: BOX BOUNDS pp pp pp
0.0000000000000000e+00 1.5000000000000000e+01
0.0000000000000000e+00 1.5000000000000000e+01
0.0000000000000000e+00 1.5000000000000000e+01
ITEM: ATOMS id type x y z
1 1 7.53055 6.56121 9.20287
5 2 7.14337 5.77649 9.70259
2 1 7.15991 7.04993 7.9248
7 2 6.28762 6.55079 7.42355
6 2 8.42932 7.10495 9.61369
3 1 7.79881 8.16832 7.09934
4 1 7.51347 8.29252 5.7923
9 2 6.7068 7.61575 5.36044
10 2 7.95261 9.02064 5.05677
8 2 8.58789 8.71951 7.61613
ITEM: TIMESTEP
5700
ITEM: NUMBER OF ATOMS
10
ITEM: BOX BOUNDS pp pp pp
0.0000000000000000e+00 1.5000000000000000e+01
0.0000000000000000e+00 1.5000000000000000e+01
0.0000000000000000e+00 1.5000000000000000e+01
ITEM: ATOMS id type x y z
1 1 7.53034 6.67274 9.13247
5 2 7.03807 5.79148 9.69784
2 1 7.18135 6.87162 7.86507
7 2 6.38641 6.3573 7.28235
6 2 8.27009 7.24776 9.62437
3 1 7.79515 8.01885 7.11215
4 1 7.51378 8.44411 5.85633
9 2 6.77678 7.93537 5.2938
10 2 7.98844 9.32687 5.47543
8 2 8.54044 8.51732 7.7191
ITEM: TIMESTEP
5800
ITEM: NUMBER OF ATOMS
10
ITEM: BOX BOUNDS pp pp pp
0.0000000000000000e+00 1.5000000000000000e+01
0.0000000000000000e+00 1.5000000000000000e+01
0.0000000000000000e+00 1.5000000000000000e+01
ITEM: ATOMS id type x y z
1 1 7.42465 6.55196 9.11258