10
 Atoms. Timestep: 0
C 8.44164 8.63329 6.43464
C 7.55153 7.69883 6.78883
C 7.31237 7.40832 8.14497
C 6.69725 6.32832 8.61752
H 8.68464 8.86774 5.31987
H 9.12152 9.01612 7.18031
H 6.88902 7.27346 6.08143
H 7.67632 8.15658 8.84855
H 6.26624 5.45744 7.8999
H 6.46957 6.03611 9.64316
10
 Atoms. Timestep: 20
C 8.50068 8.69941 6.35838
C 7.56988 7.75737 6.75769
C 7.29266 7.37817 8.2169
C 6.63797 6.20912 8.64051
H 8.6704 8.93126 5.30459
H 9.0208 9.06884 7.24831
H 6.98389 7.29446 5.93478
H 7.80607 8.0264 8.98282
H 6.22603 5.60202 7.86595
H 6.4097 6.0326 9.7117
10
 Atoms. Timestep: 40
C 8.49677 8.68125 6.39355
C 7.56824 7.8072 6.76927
C 7.30278 7.29493 8.22835
C 6.61019 6.23894 8.59846
H 8.69433 9.01001 5.42354
H 9.09792 9.36664 7.05356
H 7.05198 7.20788 5.98575
H 7.7921 7.86655 8.99116
H 6.14235 5.61636 7.87233
H 6.47743 6.01866 9.62487
10
 Atoms. Timestep: 60
C 8.49371 8.73106 6.46433
C 7.57706 7.76326 6.86707
C 7.37402 7.30987 8.13552
C 6.56285 6.26171 8.53864
H 8.61006 8.92694 5.25492
H 9.08645 9.43417 7.06227
H 7.0724 7.2102 6.0973
H 7.82053 7.83318 8.98641
H 5.93283 5.48751 7.82952
H 6.55589 5.93254 9.62524
10
 Atoms. Timestep: 80
C 8.44856 8.78201 6.44967
C 7.68418 7.79019 6.82493
C 7.34694 7.24533 8.21285
C 6.53391 6.24243 8.50116
H 8.50388 8.82245 5.37783
H 8.99803 9.31114 7.17008
H 7.08003 7.25222 6.06582
H 7.95472 7.8165 8.9849
H 5.9577 5.69944 7.82
H 6.5481 5.9585 9.53872
10
 Atoms. Timestep: 100
C 8.4264 8.81203 6.42864
C 7.65357 7.71167 6.85257
C 7.40383 7.27983 8.2028
C 6.5257 6.22511 8.51632
H 8.57267 9.06649 5.42453
H 9.06582 9.37629 7.20663
H 7.15401 7.24953 5.97141
H 7.96315 7.6452 9.0474
H 5.94812 5.82981 7.70377
H 6.36326 5.88077 9.53322
10
 Atoms. Timestep: 120
C 8.41669 8.77391 6.48738
C 7.6517 7.74434 6.81468
C 7.42966 7.21863 8.21051
C 6.54746 6.27651 8.50309
H 8.55752 9.2756 5.47494
H 8.99397 9.40568 7.15891
H 7.15277 7.11529 6.0998
H 8.01717 7.64687 9.00807
H 5.90211 5.85375 7.61098
H 6.22736 5.84246 9.44239
10
 Atoms. Timestep: 140
C 8.46751 8.84456 6.49249
C 7.66765 7.75009 6.83168
C 7.4631 7.17509 8.20383
C 6.47394 6.24861 8.46722
H 8.39121 9.18836 5.37884
H 8.89714 9.3436 7.33598
H 7.1041 7.11432 6.0995
H 8.11241 7.72818 8.96176
H 5.91972 5.85691 7.63019
H 6.26614 5.87852 9.51143
10
 Atoms. Timestep: 160
C 8.39495 8.8093 6.52007
C 7.70481 7.72912 6.86901
C 7.46504 7.18334 8.15346
C 6.48857 6.27173 8.43953
H 8.45335 9.14356 5.57703
H 8.92313 9.4036 7.30517
H 7.15276 7.35805 5.99722
H 8.04124 7.56217 8.98957
H 5.89468 5.84084 7.69169
H 6.33866 5.95083 9.43585
10
 Atoms. Timestep: 180
C 8.44417 8.89657 6.53665
C 7.70786 7.74333 6.81181
C 7.40992 7.14477 8.16283
C 6.48336 6.21679 8.48371
H 8.54494 9.23202 5.47328
H 9.05498 9.51813 7.25965
H 7.14491 7.31818 5.98704
H 8.00626 7.44957 9.00405
H 5.74053 5.77159 7.66254
H 6.36056 5.92174 9.53243
10
 Atoms. Timestep: 200
C 8.44745 8.86009 6.58692
C 7.69455 7.81548 6.806
C 7.395 7.1355 8.13432
C 6.49049 6.22022 8.44909
H 8.55447 9.24927 5.51344
H 9.0043 9.41021 7.26026
H 7.21216 7.24122 6.00016
H 8.05956 7.50338 8.96917
H 5.74259 5.77276 7.81962
H 6.38602 5.85539 9.46838
10
 Atoms. Timestep: 220
C 8.46483 8.84959 6.5844
C 7.61706 7.76807 6.86253
C 7.43767 7.19329 8.09686
C 6.47966 6.2155 8.42282
H 8.56907 9.22787 5.58581
H 8.9662 9.32586 7.47926
H 7.24532 7.31563 5.91359
H 8.07569 7.55796 8.90396
H 5.77901 5.82233 7.74295
H 6.49337 5.81163 9.46374
10
 Atoms. Timestep: 240
C 8.46638 8.84129 6.60337
C 7.64058 7.81373 6.75889
C 7.38517 7.15688 8.16408
C 6.51241 6.20751 8.44771
H 8.66035 9.25088 5.67634
H 8.95447 9.29894 7.51313
H 7.06989 7.34382 5.95942
H 8.07163 7.55801 8.88677
H 5.83409 5.87534 7.58234
H 6.50639 5.77655 9.42665
10
 Atoms. Timestep: 260
C 8.48729 8.86399 6.61595
C 7.62031 7.7912 6.78966
C 7.38885 7.19654 8.11089
C 6.51838 6.17187 8.45311
H 8.78858 9.39031 5.6171
H 8.99767 9.26781 7.44921
H 6.97059 7.42495 5.98489
H 8.05333 7.53602 8.97038
H 5.86038 5.78025 7.64148
H 6.3645 5.67911 9.40824
10
 Atoms. Timestep: 280
C 8.48324 8.83189 6.62298
C 7.61332 7.84053 6.8495
C 7.38999 7.17429 8.11492
C 6.52975 6.17616 8.37321
H 8.66265 9.32631 5.6601
H 9.07335 9.19558 7.45502
H 7.01392 7.4982 5.98758
H 7.98855 7.59034 8.91792
H 5.90627 5.69427 7.7119
H 6.38141 5.77807 9.39279
10
 Atoms. Timestep: 300
C 8.52736 8.86006 6.62096
C 7.59895 7.88724 6.85136
C 7.38194 7.15484 8.13125
C 6.49841 6.123 8.37013
H 8.51369 9.24285 5.64875
H 9.23116 9.1936 7.47057
H 7.02444 7.51824 5.99925
H 7.92545 7.59792 8.95505
H 5.88814 5.62625 7.51894
H 6.50117 5.8903 9.45425
10
 Atoms. Timestep: 320
C 8.52258 8.83729 6.65533
C 7.6012 7.87058 6.88015
C 7.34515 7.1723 8.09671
C 6.54679 6.15288 8.36312
H 8.5661 9.29817 5.65147
H 9.27748 9.24101 7.2904
H 6.97394 7.60075 6.03193
H 7.8552 7.5134 9.04097
H 5.9522 5.63727 7.58965
H 6.40473 5.73102 9.31272
10
 Atoms. Timestep: 340
C 8.536 8.85623 6.62234
C 7.62617 7.88349 6.87267
C 7.34109 7.19871 8.16077
C 6.51307 6.09233 8.34382
H 8.6248 9.35812 5.58979
H 9.26381 9.20402 7.33948
H 6.90009 7.66587 6.06078
H 7.91212 7.58074 9.01303
H 5.96506 5.66185 7.55381
H 6.36021 5.56482 9.33451
10
 Atoms. Timestep: 360
C 8.5301 8.8297 6.60977
C 7.5928 7.90212 6.88101
C 7.34546 7.1801 8.21362
C 6.54316 6.12694 8.29448
H 8.59927 9.28361 5.6806
H 9.20748 9.1157 7.46419
H 6.90089 7.62958 6.08194
H 7.92303 7.60605 9.00029
H 5.98134 5.741 7.4132
H 6.44287 5.6109 9.25554
10
 Atoms. Timestep: 380
C 8.54052 8.82497 6.63955
C 7.53564 7.89874 6.92511
C 7.38324 7.21905 8.13667
C 6.5398 6.11324 8.29941
H 8.64042 9.28527 5.66518
H 9.22308 9.12663 7.44897
H 6.90872 7.54113 6.11146
H 7.90783 7.53159 9.109
H 6.01529 5.81716 7.34687
H 6.43344 5.58225 9.20307
10
 Atoms. Timestep: 400
C 8.53758 8.86206 6.65785
C 7.58475 7.95541 6.89098
C 7.34422 7.14847 8.17638
C 6.52821 6.10213 8.29504
H 8.70018 9.2883 5.61216
H 9.2424 9.17012 7.37552
H 6.90391 7.56313 6.10509
H 7.95073 7.51748 9.01785
H 5.98174 5.7539 7.46254
H 6.37647 5.51869 9.19429
10
 Atoms. Timestep: 420
C 8.5269 8.88412 6.65699
C 7.60578 7.91259 6.91552
C 7.35624 7.16296 8.16439
C 6.51057 6.08984 8.27286
H 8.66097 9.28444 5.65206
H 9.27691 9.23337 7.41648
H 6.96542 7.75105 6.02864
H 7.96049 7.45439 8.98222
H 5.8697 5.66804 7.46915
H 6.39363 5.53167 9.28194
10
 Atoms. Timestep: 440
C 8.52865 8.86438 6.70039
C 7.61361 7.8966 6.91369
C 7.35676 7.14981 8.0933
C 6.51577 6.11324 8.27161
H 8.52506 9.30873 5.75931
H 9.24238 9.25627 7.45521
H 6.97035 7.71641 6.06875
H 7.95341 7.38818 9.03858
H 5.86429 5.72822 7.46479
H 6.47978 5.67805 9.22842
10
 Atoms. Timestep: 460
C 8.56361 8.90339 6.72066
C 7.61905 7.91641 6.87121
C 7.37482 7.0967 8.09555
C 6.47975 6.10136 8.2864
H 8.49388 9.48212 5.74386
H 9.20515 9.20957 7.51958
H 6.92451 7.55705 6.08237
H 7.97265 7.43161 8.96501
H 5.85183 5.77451 7.4712
H 6.45259 5.65797 9.26405
10
 Atoms. Timestep: 480
C 8.48414 8.89387 6.72442
C 7.62029 7.88026 6.87016
C 7.43406 7.11373 8.0969
C 6.48787 6.134 8.27605
H 8.67585 9.59838 5.8935
H 9.15218 9.13538 7.54738
H 7.00692 7.63232 5.97698
H 8.02943 7.40999 8.90543
H 5.79731 5.76904 7.51273
H 6.3042 5.54367 9.24777
10
 Atoms. Timestep: 500
C 8.48006 8.94483 6.75368
C 7.61788 7.85939 6.82634
C 7.41863 7.08647 8.09009
C 6.48516 6.12735 8.28919
H 8.67559 9.5275 5.87526
H 9.10863 9.08588 7.67824
H 7.02144 7.65552 5.95663
H 8.16064 7.35575 8.93733
H 5.8096 5.88546 7.45015
H 6.33773 5.60164 9.2356
10
 Atoms. Timestep: 520
C 8.49741 8.94094 6.80514
C 7.64226 7.90174 6.8211
C 7.41371 7.06679 8.05054
C 6.46318 6.10882 8.29186
H 8.60453 9.43544 5.86444
H 9.05142 9.2161 7.68927
H 6.99668 7.5735 5.99817
H 8.15706 7.26596 8.852
H 5.78854 5.95446 7.45044
H 6.42646 5.66477 9.22286
10
 Atoms. Timestep: 540
C 8.51112 8.93531 6.80444
C 7.62795 7.88434 6.90501
C 7.43401 7.05167 8.02012
C 6.46061 6.13781 8.24285
H 8.63783 9.53418 5.86507
H 9.04104 9.38493 7.6364
H 7.09269 7.63172 5.94325
H 8.10311 7.20716 8.78812
H 5.62451 5.82619 7.58835
H 6.42269 5.58108 9.23336
10
 Atoms. Timestep: 560
C 8.50638 8.96457 6.78699
C 7.66976 7.93895 6.8791
C 7.41178 7.00531 8.04936
C 6.42174 6.10765 8.22967
H 8.61318 9.53557 5.84488
H 9.06985 9.39782 7.65192
H 7.16111 7.69239 5.96476
H 8.17729 7.14432 8.93309
H 5.56634 5.83517 7.61351
H 6.47834 5.51589 9.21009
10
 Atoms. Timestep: 580
C 8.48326 8.99466 6.82005
C 7.67361 7.90022 6.88174
C 7.41258 7.03867 8.04524
C 6.44849 6.11179 8.23473
H 8.56015 9.46734 5.87975
H 9.1185 9.28847 7.65393
H 7.10127 7.66144 5.98785
H 8.11816 7.01614 8.90517
H 5.66725 5.99603 7.49169
H 6.45108 5.51855 9.0801
10
 Atoms. Timestep: 600
C 8.46623 8.97839 6.84761
C 7.65078 7.86719 6.91559
C 7.46365 7.06075 8.06686
C 6.44887 6.12128 8.19418
H 8.55638 9.55618 5.91479
H 9.14142 9.21928 7.64427
H 7.01003 7.61013 6.02683
H 8.18328 7.13651 8.78879
H 5.7164 6.07906 7.33035
H 6.33929 5.45312 9.03858
10
 Atoms. Timestep: 620
C 8.48992 8.96112 6.81557
C 7.63831 7.93828 6.90681
C 7.47159 6.98964 8.11366
C 6.43052 6.10626 8.14823
H 8.53027 9.69098 5.9558
H 9.13639 9.19992 7.68693
H 6.97259 7.64066 6.09892
H 8.32907 7.28681 8.89775
H 5.75636 6.02907 7.31913
H 6.21724 5.40074 9.0249
10
 Atoms. Timestep: 640
C 8.52673 8.97532 6.80114
C 7.60861 7.93559 6.95089
C 7.46701 6.99701 8.06746
C 6.47088 6.09223 8.14862
H 8.494 9.68098 6.00146
H 9.17173 9.2114 7.66562
H 6.93343 7.79673 6.10941
H 8.07952 7.08206 9.03265
H 5.81907 6.00134 7.30643
H 6.1869 5.44655 8.9648
10
 Atoms. Timestep: 660
C 8.52091 8.96734 6.85139
C 7.64557 7.97282 6.96879
C 7.43549 7.01823 8.07051
C 6.46723 6.04968 8.1174
H 8.47056 9.57594 5.97558
H 9.28146 9.21004 7.56718
H 6.86625 7.90556 6.17722
H 7.96799 7.0454 8.91326
H 5.78444 5.94001 7.20095
H 6.33809 5.49466 9.00623
10
 Atoms. Timestep: 680
C 8.54927 8.99226 6.89335
C 7.62182 7.98048 7.00126
C 7.36765 7.01967 8.06546
C 6.45652 6.03597 8.04576
H 8.49638 9.55772 5.88749
H 9.43245 9.16202 7.53743
H 6.86255 7.93772 6.20853
H 8.1754 7.20095 8.95671
H 5.72996 5.76679 7.28303
H 6.45569 5.42443 8.9808
10
 Atoms. Timestep: 700
C 8.54941 8.94422 6.8884
C 7.57687 8.0386 7.01583
C 7.37262 7.06396 8.04109
C 6.48735 6.02821 8.0549
H 8.59452 9.59504 6.03324
H 9.40116 9.07277 7.55268
H 6.91225 7.96528 6.17633
H 8.06812 7.11732 8.95523
H 5.77795 5.77398 7.3098
H 6.45248 5.24569 8.86033
10
 Atoms. Timestep: 720
C 8.60706 8.94947 6.87101
C 7.51779 8.08893 6.98099
C 7.36936 7.03805 8.07712
C 6.50934 5.9829 8.08536
H 8.66217 9.66172 6.09177
H 9.31687 8.94734 7.71856
H 6.80877 8.01597 6.11677
H 7.95767 7.07517 8.88271
H 5.82722 5.94691 7.16584
H 6.52993 5.21683 8.82646
10
 Atoms. Timestep: 740
C 8.57123 8.90516 6.91634
C 7.51684 8.07212 6.97413
C 7.36093 7.05599 8.05309
C 6.52846 5.99257 8.02958
H 8.76847 9.67789 6.14055
H 9.26404 8.89081 7.74805
H 6.71211 8.11249 6.22899
H 8.15255 7.21479 8.96322
H 5.82763 5.90543 7.18548
H 6.53437 5.26357 8.78394
10
 Atoms. Timestep: 760
C 8.57386 8.95005 6.9582
C 7.52732 8.05195 6.99531
C 7.37366 7.07297 8.01371
C 6.5082 5.9808 7.99526
H 8.79177 9.68037 6.12071
H 9.33352 8.84715 7.73643
H 6.69265 8.15123 6.31512
H 8.12646 7.2322 8.84468
H 5.81064 5.7734 7.22756
H 6.47072 5.20097 8.86961
10
 Atoms. Timestep: 780
C 8.58698 8.97928 6.97838
C 7.5499 8.12255 6.98919
C 7.35825 6.98571 7.99802
C 6.50479 5.97916 8.02324
H 8.66993 9.66915 6.19588
H 9.42362 8.88253 7.68125
H 6.74838 8.16842 6.21832
H 7.97589 7.05531 8.79385
H 5.81467 5.75035 7.19158
H 6.49198 5.29407 8.87518
10
 Atoms. Timestep: 800
C 8.58721 8.9652 6.99153
C 7.53609 8.0962 7.02292
C 7.3852 7.00462 7.94838
C 6.47222 5.96092 8.01456
H 8.57125 9.77954 6.25274
H 9.46016 8.97099 7.65792
H 6.88726 8.23421 6.1436
H 8.0544 6.9548 8.96556
H 5.75457 5.76614 7.15972
H 6.512 5.35269 8.8451
10
 Atoms. Timestep: 820
C 8.57761 8.9718 7.00486
C 7.58254 8.0602 7.02528
C 7.37443 6.96924 7.9854
C 6.47689 6.01043 7.94745
H 8.53086 9.82784 6.28779
H 9.38523 8.99059 7.71913
H 6.82 8.16092 6.26005
H 8.13841 7.08974 8.78192
H 5.71209 5.81429 7.24684
H 6.46863 5.26663 8.81534
10
 Atoms. Timestep: 840
C 8.56162 9.01097 7.02045
C 7.60818 8.04404 6.99186
C 7.42895 6.99966 7.99752
C 6.45084 5.9845 7.95146
H 8.56767 9.80595 6.28391
H 9.32671 8.98625 7.8151
H 6.7164 8.06771 6.34654
H 8.13559 6.99695 8.75081
H 5.66901 5.9915 7.1747
H 6.41114 5.13663 8.75015
10
 Atoms. Timestep: 860
C 8.52473 9.01965 7.0306
C 7.56957 8.03849 7.00682
C 7.43884 6.9404 7.98519
C 6.48157 6.02539 7.96898
H 8.63751 9.782 6.30687
H 9.27593 9.01501 7.82969
H 6.79514 8.088 6.19981
H 8.20583 6.79996 8.884
H 5.73292 6.15412 7.15977
H 6.38842 5.23728 8.5593
10
 Atoms. Timestep: 880
C 8.52637 9.04951 7.03955
C 7.57296 8.07432 7.0485
C 7.48139 6.89982 7.99182
C 6.41631 6.00959 7.94101
H 8.61246 9.82414 6.22955
H 9.2567 9.05847 7.84579
H 6.96035 8.03275 6.16235
H 8.28837 6.82009 8.75398
H 5.67967 6.1736 7.13577
H 6.34432 5.11154 8.6363
10
 Atoms. Timestep: 900
C 8.51923 9.04365 7.0825
C 7.62382 8.05394 7.07773
C 7.46183 6.9024 7.95628
C 6.43254 6.0438 7.90234
H 8.5087 9.7575 6.26082
H 9.27569 9.18974 7.84409
H 6.93979 7.96533 6.21903
H 8.26633 6.81404 8.60267
H 5.6124 6.08132 7.22627
H 6.29657 5.14939 8.62304
10
 Atoms. Timestep: 920
C 8.5396 9.07629 7.11205
C 7.64734 8.00761 7.0436
C 7.44017 6.9169 7.92538
C 6.41422 6.01043 7.90172
H 8.44 9.77828 6.29843
H 9.30686 9.27866 7.89338
H 6.86736 8.08217 6.24464
H 8.29549 6.6455 8.72498
H 5.55368 6.11521 7.21148
H 6.41265 5.25278 8.61959
10
 Atoms. Timestep: 940
C 8.51427 9.06408 7.11059
C 7.67127 8.05686 7.00666
C 7.45435 6.85476 7.93705
C 6.41177 6.01493 7.90958
H 8.45557 9.89152 6.41169
H 9.23858 9.16931 7.89878
H 6.93587 8.18442 6.23843
H 8.17692 6.66664 8.73327
H 5.56538 6.14499 7.19723
H 6.44176 5.2194 8.62637
10
 Atoms. Timestep: 960
C 8.52776 9.07689 7.13248
C 7.61514 8.02861 7.02823
C 7.49254 6.8818 7.89722
C 6.42262 6.03514 7.90847
H 8.50284 10.0097 6.5035
H 9.25513 9.01452 7.94397
H 6.93058 8.09271 6.16068
H 8.19557 6.78212 8.65792
H 5.60629 6.08961 7.21193
H 6.28521 5.09674 8.61251
10
 Atoms. Timestep: 980
C 8.50821 9.03591 7.18285
C 7.59902 8.08322 7.00267
C 7.46969 6.90163 7.87921
C 6.42947 6.00765 7.89587
H 8.55688 9.92011 6.5861
H 9.28829 8.95117 7.95869
H 6.85834 7.97976 6.17229
H 8.40189 6.8558 8.65843
H 5.6618 6.13282 7.14991
H 6.31846 5.20984 8.6
10
 Atoms. Timestep: 1000
C 8.54276 9.07159 7.19823
C 7.56991 8.06236 6.99464
C 7.44113 6.902 7.89967
C 6.45435 5.97213 7.88329
H 8.62814 9.91972 6.53698
H 9.25966 8.90636 8.01811
H 6.84285 8.18599 6.19314
H 8.28046 6.77642 8.56665
H 5.65072 6.14413 7.09253
H 6.41326 5.23893 8.62657
10
 Atoms. Timestep: 1020
C 8.52971 9.02991 7.18369
C 7.60215 8.11301 7.03447
C 7.43332 6.91962 7.8758
C 6.45799 5.9689 7.85288
H 8.68615 9.89109 6.53401
H 9.20865 8.97145 8.00969
H 6.88224 8.3606 6.26566
H 8.15797 6.73213 8.61131
H 5.59544 5.95809 7.18752
H 6.45452 5.11808 8.59985
10
 Atoms. Timestep: 1040
C 8.60112 9.04174 7.20101
C 7.57234 8.14192 7.06948
C 7.39195 6.90584 7.84306
C 6.43591 5.95309 7.82676
H 8.64141 9.91388 6.48001
H 9.3277 9.02776 8.0425
H 6.80275 8.28411 6.25163
H 8.20582 6.80815 8.74877
H 5.57785 5.86229 7.20898
H 6.56061 5.0683 8.51517
10
 Atoms. Timestep: 1060
C 8.58168 9.01101 7.21808
C 7.55092 8.14307 7.09615
C 7.382 6.94127 7.87888
C 6.46569 5.94605 7.80172
H 8.62365 9.83816 6.56849
H 9.39548 8.975 7.93924
H 6.84298 8.23474 6.28951
H 8.15894 6.83459 8.60631
H 5.60695 5.94601 7.07401
H 6.61427 5.1431 8.44245
10
 Atoms. Timestep: 1080
C 8.56512 9.03521 7.21203
C 7.54338 8.13519 7.09767
C 7.38908 6.95346 7.93734
C 6.47662 5.9279 7.77144
H 8.63581 9.89149 6.55589
H 9.38013 8.79132 7.89772
H 6.84424 8.34902 6.29795
H 8.18396 6.78766 8.6212
H 5.70927 6.03636 6.97338
H 6.52545 5.05357 8.43196
10
 Atoms. Timestep: 1100
C 8.56594 9.04277 7.20058
C 7.54896 8.16546 7.09231
C 7.38915 6.90146 7.94884
C 6.49282 5.94415 7.7497
H 8.68114 9.96283 6.56487
H 9.36408 8.76466 7.89656
H 6.70306 8.38057 6.37105
H 8.24431 6.77955 8.81647
H 5.80057 6.01601 6.97103
H 6.34964 4.99341 8.32041
10
 Atoms. Timestep: 1120
C 8.57315 9.01975 7.19057
C 7.53485 8.14928 7.14316
C 7.45643 6.92206 7.92418
C 6.47076 5.9341 7.71996
H 8.67102 9.94936 6.63318
H 9.40084 8.90254 7.89211
H 6.65641 8.30991 6.52482
H 8.05176 6.83139 8.7976
H 5.77254 6.05846 6.8464
H 6.36029 5.01719 8.32767
10
 Atoms. Timestep: 1140
C 8.6005 9.04486 7.1992
C 7.54896 8.1314 7.20082
C 7.40824 6.87595 7.90929
C 6.48099 5.95462 7.67963
H 8.5033 9.91162 6.59122
H 9.4385 8.91967 7.88523
H 6.70398 8.3295 6.55288
H 8.03128 6.81612 8.76274
H 5.77189 6.04792 6.8236
H 6.44293 5.15424 8.33967
10
 Atoms. Timestep: 1160
C 8.57153 9.0513 7.23096
C 7.60524 8.16781 7.20349
C 7.38446 6.90196 7.92758
C 6.45372 5.92362 7.64399
H 8.42575 9.9077 6.55033
H 9.49477 8.9453 7.81189
H 6.79646 8.44262 6.48096
H 8.1783 6.6227 8.8209
H 5.74496 5.9742 6.84693
H 6.39401 5.05938 8.34189
10
 Atoms. Timestep: 1180
C 8.57898 9.07441 7.26308
C 7.56645 8.12835 7.193
C 7.38501 6.88502 7.93787
C 6.48099 5.95515 7.66034
H 8.54404 9.96988 6.58307
H 9.5427 9.01267 7.79032
H 6.80351 8.42128 6.45742
H 8.08918 6.61722 8.66492
H 5.7251 5.99205 6.87071
H 6.35091 4.94931 8.19683
10
 Atoms. Timestep: 1200
C 8.57006 9.05577 7.26703
C 7.56847 8.16306 7.18225
C 7.4207 6.87442 7.91169
C 6.44357 5.93378 7.65866
H 8.58659 9.94068 6.67919
H 9.42512 8.94014 7.91706
H 6.73273 8.27296 6.50531
H 8.15643 6.71216 8.68635
H 5.716 6.2002 6.84162
H 6.49031 4.99173 8.14167
10
 Atoms. Timestep: 1220
C 8.57828 9.05271 7.27732
C 7.53595 8.13699 7.17965
C 7.44714 6.87275 7.87096
C 6.4617 5.96701 7.64422
H 8.57466 9.96826 6.70881
H 9.27123 8.78122 8.10688
H 6.69802 8.31847 6.4632
H 8.2673 6.727 8.7442
H 5.69678 6.22162 6.92749
H 6.47763 5.02671 8.10555
10
 Atoms. Timestep: 1240
C 8.5539 9.04873 7.32454
C 7.54306 8.16358 7.14201
C 7.45787 6.87466 7.86488
C 6.47899 5.95323 7.64739
H 8.65605 10.0114 6.78439
H 9.28705 8.85409 8.11137
H 6.76821 8.41655 6.42813
H 8.21965 6.62588 8.54065
H 5.64627 6.14817 6.97737
H 6.3439 4.92271 8.17424
10
 Atoms. Timestep: 1260
C 8.55832 9.08946 7.39842
C 7.58036 8.18956 7.1195
C 7.4097 6.84201 7.81014
C 6.44272 5.90221 7.66209
H 8.66886 10.0358 6.83946
H 9.38404 8.94645 8.0551
H 6.81869 8.42967 6.37541
H 8.26947 6.58273 8.42926
H 5.61233 6.10894 6.96203
H 6.42403 4.97701 8.28689
10
 Atoms. Timestep: 1280
C 8.54459 9.08096 7.43989
C 7.58828 8.13941 7.14475
C 7.4158 6.85823 7.71757
C 6.43133 5.95397 7.66719
H 8.52237 9.9932 6.89609
H 9.40552 8.87137 8.12608
H 6.88521 8.44972 6.34252
H 8.32431 6.58264 8.45202
H 5.57016 6.00002 7.01032
H 6.5364 5.12767 8.24556
10
 Atoms. Timestep: 1300
C 8.54441 9.05977 7.45234
C 7.60649 8.17105 7.1226
C 7.48543 6.84826 7.70293
C 6.40129 5.97101 7.64938
H 8.44869 10.0463 6.98612
H 9.30079 8.82864 8.23208
H 6.86358 8.43365 6.37673
H 8.20961 6.5894 8.40008
H 5.48107 6.01502 7.04252
H 6.59449 5.00638 8.28796
10
 Atoms. Timestep: 1320
C 8.5575 9.09293 7.46447
C 7.59658 8.17118 7.08012
C 7.44207 6.7925 7.7166
C 6.44891 5.95044 7.64135
H 8.59199 10.1657 7.11964
H 9.22339 8.89622 8.2615
H 6.78792 8.45199 6.39058
H 8.27372 6.52465 8.38391
H 5.54545 6.16671 7.10729
H 6.43117 4.97236 8.21087
10
 Atoms. Timestep: 1340
C 8.49532 9.08707 7.4731
C 7.59853 8.1582 7.11048
C 7.48252 6.85454 7.73071
C 6.43096 5.90725 7.6224
H 8.6545 10.0821 7.12936
H 9.22638 8.84253 8.27296
H 6.82579 8.46061 6.37619
H 8.46583 6.46793 8.32592
H 5.55765 6.3113 7.06328
H 6.34987 5.01317 8.10118
10
 Atoms. Timestep: 1360
C 8.51086 9.10659 7.51992
C 7.56192 8.16275 7.15901
C 7.5075 6.78444 7.74249
C 6.44402 5.99225 7.58747
H 8.52577 10.0202 6.96219
H 9.25616 8.71285 8.27171
H 6.87117 8.37684 6.34539
H 8.38146 6.5707 8.21711
H 5.54557 6.29423 7.0052
H 6.39803 4.96902 8.03414
10
 Atoms. Timestep: 1380
C 8.5191 9.09511 7.52601
C 7.58331 8.18197 7.22345
C 7.49718 6.80314 7.7018
C 6.39973 5.96923 7.55856
H 8.5312 10.0551 6.93568
H 9.31579 8.92571 8.20976
H 6.8673 8.35223 6.41631
H 8.36742 6.43799 8.32317
H 5.56535 6.27883 6.97637
H 6.48099 4.87343 7.96875
10
 Atoms. Timestep: 1400
C 8.54047 9.1111 7.4975
C 7.60755 8.15272 7.25096
C 7.44367 6.79573 7.71119
C 6.43752 5.94422 7.52254
H 8.53862 10.1105 7.02931
H 9.36911 9.11449 8.20039
H 6.80865 8.51446 6.55284
H 8.25929 6.28133 8.38161
H 5.53492 6.21039 6.96882
H 6.43813 4.96616 7.86287
10
 Atoms. Timestep: 1420
C 8.56293 9.12289 7.48701
C 7.61711 8.17863 7.25241
C 7.46422 6.77469 7.789
C 6.42571 5.93733 7.44288
H 8.36469 10.0677 7.04896
H 9.41198 8.96614 8.23421
H 6.77054 8.55072 6.68972
H 8.25102 6.41197 8.33626
H 5.46353 6.20319 6.8809
H 6.44242 4.93894 7.87117
10
 Atoms. Timestep: 1440
C 8.54171 9.06072 7.51069
C 7.57453 8.1648 7.29424
C 7.4699 6.82535 7.76807
C 6.44949 5.97782 7.41743
H 8.35612 10.0684 7.11607
H 9.41414 8.82301 8.07912
H 6.71982 8.46532 6.7002
H 8.33842 6.47454 8.41211
H 5.64858 6.28836 6.80665
H 6.43318 4.92828 7.83227
10
 Atoms. Timestep: 1460
C 8.56025 9.09156 7.53516
C 7.50399 8.18221 7.31395
C 7.4605 6.79545 7.7314
C 6.4738 5.9437 7.43864
H 8.55418 10.1736 7.18554
H 9.48555 8.7599 7.97541
H 6.63093 8.46883 6.66192
H 8.29451 6.47239 8.4949
H 5.78666 6.36568 6.71211
H 6.38092 4.90209 7.74421
10
 Atoms. Timestep: 1480
C 8.52612 9.08833 7.52966
C 7.52742 8.27643 7.30792
C 7.49015 6.77099 7.77307
C 6.47271 5.90294 7.4088
H 8.63113 10.0933 7.23594
H 9.47558 8.68813 7.97982
H 6.63733 8.58726 6.7772
H 8.21235 6.46837 8.43539
H 5.70319 6.26589 6.63476
H 6.366 4.88493 7.70917
10
 Atoms. Timestep: 1500
C 8.58649 9.08457 7.53904
C 7.49979 8.20095 7.32782
C 7.42945 6.82811 7.75377
C 6.5038 5.93179 7.34795
H 8.54394 10.1201 7.20084
H 9.43351 8.6386 8.09168
H 6.6245 8.70254 6.89026
H 8.25498 6.45507 8.42702
H 5.66955 6.12205 6.71961
H 6.48038 4.90911 7.74815
10
 Atoms. Timestep: 1520
C 8.58831 9.01135 7.55594
C 7.53716 8.25478 7.36702
C 7.37563 6.86028 7.71161
C 6.49299 5.90515 7.32625
H 8.50717 10.066 7.22892
H 9.45818 8.77589 8.11019
H 6.6075 8.6404 6.90252
H 8.25519 6.48839 8.38597
H 5.63882 6.14795 6.71558
H 6.69262 4.9121 7.78094
10
 Atoms. Timestep: 1540
C 8.61791 9.05261 7.59009
C 7.48076 8.26436 7.37675
C 7.39071 6.82425 7.69947
C 6.49036 5.8887 7.35036
H 8.56901 10.105 7.24141
H 9.5764 8.77057 8.10974
H 6.66775 8.71786 6.80251
H 8.15688 6.50439 8.2989
H 5.58761 6.08244 6.6824
H 6.6879 4.86022 7.65407
10
 Atoms. Timestep: 1560
C 8.54971 9.05583 7.61176
C 7.5003 8.27113 7.36799
C 7.42415 6.83992 7.70122
C 6.49438 5.90244 7.34737
H 8.64492 10.0542 7.29175
H 9.45465 8.62875 8.04135
H 6.73489 8.765 6.78774
H 8.27076 6.43675 8.32243
H 5.6295 6.05528 6.72595
H 6.57809 4.86405 7.54977
10
 Atoms. Timestep: 1580
C 8.56354 9.07207 7.64542
C 7.49768 8.25036 7.33086
C 7.43383 6.8254 7.70036
C 6.48798 5.91207 7.32023
H 8.63775 10.1337 7.32581
H 9.37548 8.51969 8.10612
H 6.58636 8.64145 6.81527
H 8.37243 6.46521 8.28483
H 5.65119 6.26832 6.74142
H 6.60258 4.83215 7.63431
10
 Atoms. Timestep: 1600
C 8.54922 9.03622 7.645
C 7.48763 8.23506 7.31963
C 7.4692 6.80389 7.67271
C 6.51143 5.94809 7.32075
H 8.61145 10.1136 7.44477
H 9.40614 8.65307 8.22536
H 6.54607 8.55001 6.84962
H 8.28964 6.49391 8.20946
H 5.63555 6.3638 6.76601
H 6.53022 4.90602 7.64523
10
 Atoms. Timestep: 1620
C 8.54839 9.08044 7.6547
C 7.53181 8.22619 7.35047
C 7.5064 6.80421 7.6276
C 6.44912 5.90851 7.31992
H 8.49196 10.1456 7.47612
H 9.39697 8.74939 8.25665
H 6.67621 8.64901 6.82831
H 8.36077 6.40332 8.24425
H 5.56959 6.26978 6.76663
H 6.41415 4.88688 7.60088
10
 Atoms. Timestep: 1640
C 8.53162 9.11394 7.70159
C 7.58249 8.2212 7.358
C 7.46226 6.7293 7.59732
C 6.45185 5.96028 7.32719
H 8.36074 10.1401 7.42525
H 9.42579 8.79655 8.22328
H 6.77572 8.70549 6.7867
H 8.36943 6.30919 8.16698
H 5.57643 6.22125 6.79003
H 6.44656 4.89922 7.59215
10
 Atoms. Timestep: 1660
C 8.50418 9.08267 7.75381
C 7.59363 8.18093 7.33504
C 7.51411 6.78968 7.60952
C 6.41868 5.96549 7.31034
H 8.35572 10.1467 7.4055
H 9.49112 8.92238 8.23347
H 6.73653 8.57213 6.76545
H 8.29493 6.24002 8.03488
H 5.49896 6.36367 6.77485
H 6.56313 4.8624 7.62259
10
 Atoms. Timestep: 1680
C 8.5101 9.10572 7.75314
C 7.59014 8.18504 7.32684
C 7.48854 6.73749 7.59848
C 6.45179 5.98954 7.30589
H 8.37774 10.1391 7.46867
H 9.40501 8.86259 8.32595
H 6.70307 8.4883 6.75827
H 8.40565 6.28345 8.03529
H 5.53798 6.36999 6.89317
H 6.45112 4.96988 7.50155
10
 Atoms. Timestep: 1700
C 8.50933 9.12499 7.72315
C 7.57982 8.2105 7.34785
C 7.55029 6.73663 7.59485
C 6.41867 5.93865 7.29312
H 8.40956 10.1774 7.539
H 9.25721 8.73624 8.40806
H 6.75719 8.6136 6.7472
H 8.49965 6.31906 8.08716
H 5.51706 6.45399 6.93528
H 6.33467 4.85509 7.4185
10
 Atoms. Timestep: 1720
C 8.48929 9.06496 7.74542
C 7.53312 8.20191 7.33664
C 7.53963 6.74385 7.57816
C 6.4837 5.9848 7.30887
H 8.46734 10.1475 7.57255
H 9.29332 8.74938 8.43926
H 6.73768 8.64441 6.72554
H 8.38376 6.3211 8.01074
H 5.59222 6.50898 6.92946
H 6.37523 4.87553 7.39692
10
 Atoms. Timestep: 1740
C 8.5284 9.0838 7.8223
C 7.54118 8.22088 7.32847
C 7.49915 6.77888 7.56236
C 6.43868 5.94698 7.28132
H 8.46174 10.1643 7.50965
H 9.40346 8.73242 8.38462
H 6.65694 8.53629 6.72976
H 8.43887 6.30716 7.97147
H 5.5748 6.43394 6.84849
H 6.54372 4.86263 7.4783
10
 Atoms. Timestep: 1760
C 8.50041 9.07755 7.82158
C 7.59046 8.23841 7.36619
C 7.46974 6.78678 7.54919
C 6.44531 5.95183 7.25705
H 8.4941 10.0921 7.58021
H 9.37809 8.7134 8.28559
H 6.74763 8.64443 6.82362
H 8.42596 6.33962 7.96176
H 5.48023 6.15684 6.7779
H 6.56243 4.94618 7.49583
10
 Atoms. Timestep: 1780
C 8.54645 9.08063 7.80984
C 7.52714 8.2279 7.37428
C 7.47123 6.79516 7.53463
C 6.46848 5.94224 7.23311
H 8.47373 10.1882 7.67193
H 9.46351 8.66215 8.34981
H 6.76805 8.82669 6.87821
H 8.26625 6.32199 8.00958
H 5.46417 6.09747 6.74654
H 6.60855 4.84791 7.52178
10
 Atoms. Timestep: 1800
C 8.55668 8.99388 7.79158
C 7.5214 8.32444 7.39183
C 7.44265 6.80489 7.5254
C 6.48691 5.90437 7.20886
H 8.47023 10.0978 7.76649
H 9.42629 8.68728 8.35122
H 6.59721 8.76948 6.90563
H 8.29924 6.362 8.12865
H 5.61601 6.29005 6.74459
H 6.66922 4.84786 7.48635
10
 Atoms. Timestep: 1820
C 8.58282 9.03593 7.82111
C 7.4531 8.23201 7.38483
C 7.43954 6.83734 7.56924
C 6.52162 5.91909 7.17771
H 8.56802 10.1162 7.75566
H 9.40369 8.48922 8.2823
H 6.56626 8.74489 6.99004
H 8.3941 6.542 8.1216
H 5.6318 6.29952 6.65977
H 6.57768 4.88202 7.36232
10
 Atoms. Timestep: 1840
C 8.49395 9.03442 7.81825
C 7.4926 8.29684 7.4342
C 7.48577 6.80483 7.63316
C 6.5161 5.94036 7.134
H 8.69901 10.0594 7.72014
H 9.37037 8.41101 8.14519
H 6.61144 8.71694 7.02983
H 8.36109 6.47737 8.07919
H 5.60225 6.23834 6.53863
H 6.54935 4.85825 7.25841
10
 Atoms. Timestep: 1860
C 8.563 9.06862 7.83781
C 7.45107 8.29731 7.49007
C 7.44186 6.76147 7.60136
C 6.50882 5.93417 7.10423
H 8.67676 10.2059 7.65407
H 9.46035 8.53462 8.16891
H 6.52086 8.73814 6.97767
H 8.30936 6.21802 8.13329
H 5.6997 6.33313 6.53237
H 6.66847 4.82076 7.22179
10
 Atoms. Timestep: 1880
C 8.55627 9.02114 7.80802
C 7.48637 8.2355 7.54898
C 7.43092 6.81707 7.58304
C 6.52586 5.95798 7.06547
H 8.47029 10.0801 7.6521
H 9.48146 8.73748 8.25152
H 6.61852 8.72361 7.10018
H 8.21251 6.23889 8.18561
H 5.68915 6.34743 6.52398
H 6.65551 4.90236 7.14254
10
 Atoms. Timestep: 1900
C 8.56445 9.06293 7.81882
C 7.54239 8.21654 7.55763
C 7.44534 6.76038 7.62622
C 6.48683 5.9594 6.99586
H 8.27398 10.0707 7.63726
H 9.5415 8.77985 8.32467
H 6.6719 8.72419 7.23501
H 8.26488 6.44381 8.1764
H 5.56272 6.31991 6.4277
H 6.575 4.88607 7.09685
10
 Atoms. Timestep: 1920
C 8.53815 9.07743 7.85742
C 7.53962 8.21071 7.5348
C 7.43691 6.70148 7.6287
C 6.51579 6.00728 6.99487
H 8.34315 10.1672 7.71128
H 9.52917 8.81755 8.23456
H 6.5752 8.71577 7.21404
H 8.31745 6.21946 8.14712
H 5.6971 6.40658 6.43125
H 6.47914 4.91198 7.05597
10
 Atoms. Timestep: 1940
C 8.48532 9.07658 7.88511
C 7.51944 8.19802 7.54431
C 7.51981 6.76449 7.6169
C 6.50381 5.99869 6.99779
H 8.4672 10.1811 7.82522
H 9.45952 8.74613 8.13601
H 6.57211 8.58434 7.11715
H 8.1992 5.9966 8.09284
H 5.81059 6.61024 6.42932
H 6.44505 4.8749 7.02378
10
 Atoms. Timestep: 1960
C 8.50535 9.10255 7.92143
C 7.50257 8.20753 7.555
C 7.51408 6.67037 7.54723
C 6.51504 6.03218 7.00682
H 8.35697 10.165 7.85148
H 9.4572 8.55875 8.19332
H 6.5963 8.52724 7.09611
H 8.31888 6.29652 8.16384
H 5.75058 6.60871 6.41347
H 6.42188 4.98806 6.98787
10
 Atoms. Timestep: 1980
C 8.48934 9.02922 7.93715
C 7.52976 8.20294 7.53906
C 7.55293 6.75845 7.55496
C 6.47153 5.99347 6.95277
H 8.34526 10.0932 7.89048
H 9.46411 8.70688 8.38288
H 6.5815 8.68176 7.15439
H 8.4415 6.39009 8.1226
H 5.64728 6.53834 6.46432
H 6.38294 4.90524 6.97062
10
 Atoms. Timestep: 2000
C 8.53282 9.02187 7.99557
C 7.51682 8.20967 7.50049
C 7.45036 6.7637 7.50015
C 6.54047 6.00009 6.97468
H 8.36205 10.1248 7.92064
H 9.41789 8.78005 8.50694
H 6.62242 8.78479 7.18675
H 8.32219 6.22565 7.8753
H 5.67249 6.4495 6.57353
H 6.48415 4.8831 7.00049
10
 Atoms. Timestep: 2020
C 8.51403 9.03909 8.0341
C 7.55042 8.28709 7.52562
C 7.46788 6.77031 7.46322
C 6.47615 5.95696 6.96574
H 8.39593 10.134 7.97123
H 9.4086 8.61821 8.53985
H 6.69454 8.74402 7.07913
H 8.32472 6.15138 7.7767
H 5.5142 6.37393 6.55169
H 6.73512 4.87771 7.0384
10
 Atoms. Timestep: 2040
C 8.48058 9.01531 8.07122
C 7.50984 8.22242 7.51236
C 7.50811 6.8057 7.42111
C 6.48658 6.02436 6.99772
H 8.51208 10.0635 8.07529
H 9.37699 8.47746 8.51599
H 6.71257 8.76823 6.93743
H 8.41396 6.32398 7.80265
H 5.49128 6.1741 6.57983
H 6.70645 5.00597 6.96331
10
 Atoms. Timestep: 2060
C 8.49988 8.9816 8.1202
C 7.48864 8.27818 7.474
C 7.50227 6.81584 7.39757
C 6.5028 5.96576 6.98936
H 8.54066 10.0876 8.14375
H 9.31361 8.45668 8.54446
H 6.65966 8.75782 6.93324
H 8.45904 6.43151 7.77226
H 5.53225 6.37498 6.67137
H 6.65726 4.86312 6.93715
10
 Atoms. Timestep: 2080
C 8.47508 8.95298 8.12023
C 7.50269 8.34525 7.45181
C 7.48733 6.79572 7.38841
C 6.53481 5.94068 6.97179
H 8.50186 10.0645 8.21418
H 9.27234 8.41776 8.6193
H 6.66143 8.85595 7.05172
H 8.44856 6.36017 7.6871
H 5.64491 6.49293 6.74716
H 6.59543 4.82094 6.97607
10
 Atoms. Timestep: 2100
C 8.47963 8.99539 8.13143
C 7.49622 8.24761 7.45571
C 7.52765 6.81639 7.36991
C 6.52389 5.98787 6.96432
H 8.46227 10.0594 8.28759
H 9.27155 8.36363 8.66208
H 6.66631 8.9355 7.09463
H 8.46981 6.32368 7.66484
H 5.50984 6.32692 6.65057
H 6.57994 4.92737 7.00102
10
 Atoms. Timestep: 2120
C 8.47262 8.9868 8.14729
C 7.55703 8.27415 7.5344
C 7.52955 6.80438 7.32695
C 6.46435 6.00465 6.94528