LAMMPS (2 Aug 2023 - Update 2)
#13 Butadiene
units           metal
boundary        p p p
atom_style      atomic

neighbor        2.0 bin
neigh_modify    delay 0 every 1 check yes

read_data       restart.lmp
Reading data file ...
  orthogonal box = (0 0 0) to (15 15 15)
  1 by 2 by 2 MPI processor grid
  reading atoms ...
  10 atoms
  reading velocities ...
  10 velocities
  read_data CPU = 0.002 seconds
mass            1 12.0
mass            2 2

variable        sysvol          equal vol
variable        sysmass         equal mass(all)/6.0221367e+23
variable        sysdensity      equal v_sysmass/v_sysvol/1.0e-24
variable	out_freq 	equal 100

pair_style      deepmd ../files/frozen_model_1_compressed.pb ../files/frozen_model_2_compressed.pb ../files/frozen_model_3_compressed.pb ../files/frozen_model_3_compressed.pb out_file md.out out_freq 10 atomic relative 1.0
Summary of lammps deepmd module ...
  >>> Info of deepmd-kit:
  installed to:       /rs1/researchers/w/wjpfaend/rahul/MLP/DeePMD-kit/deepmd_cpu
  source:             v2.2.8-dirty
  source branch:      master
  source commit:      b875ea8
  source commit at:   2024-01-22 22:28:58 -0500
  support model ver.: 1.1 
  build variant:      cpu
  build with tf inc:  /rs1/researchers/w/wjpfaend/rahul/MLP/DeePMD-kit/tensorflow/lib/python3.11/site-packages/tensorflow/include;/rs1/researchers/w/wjpfaend/rahul/MLP/DeePMD-kit/tensorflow/lib/python3.11/site-packages/tensorflow/include
  build with tf lib:  /rs1/researchers/w/wjpfaend/rahul/MLP/DeePMD-kit/tensorflow/lib/python3.11/site-packages/tensorflow/libtensorflow_cc.so.2
  set tf intra_op_parallelism_threads: 0
  set tf inter_op_parallelism_threads: 0
  >>> Info of lammps module:
  use deepmd-kit at:  /rs1/researchers/w/wjpfaend/rahul/MLP/DeePMD-kit/deepmd_cpu
  source:             v2.2.8-dirty
  source branch:      master
  source commit:      b875ea8
  source commit at:   2024-01-22 22:28:58 -0500
  build float prec:   double
  build with tf inc:  /rs1/researchers/w/wjpfaend/rahul/MLP/DeePMD-kit/tensorflow/lib/python3.11/site-packages/tensorflow/include;/rs1/researchers/w/wjpfaend/rahul/MLP/DeePMD-kit/tensorflow/lib/python3.11/site-packages/tensorflow/include
  build with tf lib:  /rs1/researchers/w/wjpfaend/rahul/MLP/DeePMD-kit/tensorflow/lib/python3.11/site-packages/tensorflow/libtensorflow_cc.so.2
pair_coeff	* *

#
velocity        all create 300.0 2345678 rot no dist gaussian
fix             1 all nvt temp 300.0 300.0 0.05
fix             2 all plumed plumedfile plumed.dat outfile PLUMED.log

timestep        0.0005
thermo_style    custom step pe ke etotal v_sysdensity temp press vol
thermo          10

dump            10 all custom 100 btd.dump id type x y z
dump		101 all xyz 20 btd.xyz
dump_modify	101 element C H

fix		extra all print 20 "$(step), $(ke), $(pe), $(etotal), $(temp), $(press), $(vol)" file logfile screen no

restart	        20000 dump.restart

run             50000

CITE-CITE-CITE-CITE-CITE-CITE-CITE-CITE-CITE-CITE-CITE-CITE-CITE

Your simulation uses code contributions which should be cited:

- USER-DEEPMD package:

@article{Wang_ComputPhysCommun_2018_v228_p178,
  author = {Wang, Han and Zhang, Linfeng and Han, Jiequn and E, Weinan},
  doi = {10.1016/j.cpc.2018.03.016},
  url = {https://doi.org/10.1016/j.cpc.2018.03.016},
  year = 2018,
  month = {jul},
  publisher = {Elsevier {BV}},
  volume = 228,
  journal = {Comput. Phys. Commun.},
  title = {{DeePMD-kit: A deep learning package for many-body potential energy representation and molecular dynamics}},
  pages = {178--184}
}
@misc{Zeng_JChemPhys_2023_v159_p054801,
  title  = {{DeePMD-kit v2: A software package for deep potential models}},
  author =   {Jinzhe Zeng and Duo Zhang and Denghui Lu and Pinghui Mo and Zeyu Li
         and Yixiao Chen and Mari{\'a}n Rynik and Li'ang Huang and Ziyao Li and 
         Shaochen Shi and Yingze Wang and Haotian Ye and Ping Tuo and Jiabin
         Yang and Ye Ding and Yifan Li and Davide Tisi and Qiyu Zeng and Han 
         Bao and Yu Xia and Jiameng Huang and Koki Muraoka and Yibo Wang and 
         Junhan Chang and Fengbo Yuan and Sigbj{\o}rn L{\o}land Bore and Chun
         Cai and Yinnian Lin and Bo Wang and Jiayan Xu and Jia-Xin Zhu and 
         Chenxing Luo and Yuzhi Zhang and Rhys E A Goodall and Wenshuo Liang
         and Anurag Kumar Singh and Sikai Yao and Jingchao Zhang and Renata
         Wentzcovitch and Jiequn Han and Jie Liu and Weile Jia and Darrin M
         York and Weinan E and Roberto Car and Linfeng Zhang and Han Wang},
  journal =  {J. Chem. Phys.},
  volume =   159,
  issue =    5,  
  year =    2023,
  pages  =   054801,
  doi =      {10.1063/5.0155600},
}

CITE-CITE-CITE-CITE-CITE-CITE-CITE-CITE-CITE-CITE-CITE-CITE-CITE

Generated 0 of 1 mixed pair_coeff terms from geometric mixing rule
Neighbor list info ...
  update: every = 1 steps, delay = 0 steps, check = yes
  max neighbors/atom: 2000, page size: 100000
  master list distance cutoff = 8
  ghost atom cutoff = 8
  binsize = 4, bins = 4 4 4
  1 neighbor lists, perpetual/occasional/extra = 1 0 0
  (1) pair deepmd, perpetual
      attributes: full, newton on
      pair build: full/bin/atomonly
      stencil: full/bin/3d
      bin: standard
Per MPI rank memory allocation (min/avg/max) = 3.09 | 3.09 | 3.09 Mbytes
   Step         PotEng         KinEng         TotEng      v_sysdensity       Temp          Press          Volume    
         0  -56.504744      0.34900239    -56.155741      0.029520714    300            4223.7132      3375         
        10  -56.43392       0.95661687    -55.477303      0.029520714    822.30113      2663.7468      3375         
        20  -56.436729      0.85600426    -55.580725      0.029520714    735.81524     -2980.5235      3375         
        30  -56.053424      0.46182969    -55.591595      0.029520714    396.98555     -2703.9984      3375         
        40  -56.535136      0.88344467    -55.651691      0.029520714    759.40282      684.28887      3375         
        50  -56.654279      0.93742709    -55.716852      0.029520714    805.80573      1142.5832      3375         
        60  -56.086182      0.32162287    -55.764559      0.029520714    276.46476     -407.11545      3375         
        70  -56.64968       0.8099851     -55.839695      0.029520714    696.25749     -400.31669      3375         
        80  -56.4888        0.59144709    -55.897353      0.029520714    508.40376      1266.9881      3375         
        90  -56.452759      0.52548718    -55.927272      0.029520714    451.70508      83.12095       3375         
       100  -56.561402      0.57341321    -55.987989      0.029520714    492.90196     -1651.0996      3375         
       110  -56.578482      0.547074      -56.031408      0.029520714    470.26096      202.7982       3375         
       120  -56.415638      0.38477031    -56.030868      0.029520714    330.74585      1754.3827      3375         
       130  -56.54796       0.47553941    -56.072421      0.029520714    408.77033     -657.67576      3375         
       140  -56.434369      0.35085388    -56.083515      0.029520714    301.59153     -2441.1896      3375         
       150  -56.657591      0.53398477    -56.123606      0.029520714    459.00955      638.28757      3375         
       160  -56.477447      0.34833629    -56.129111      0.029520714    299.42743      3519.9847      3375         
       170  -56.641417      0.50933114    -56.132086      0.029520714    437.81746      812.52628      3375         
       180  -56.541139      0.35591815    -56.18522       0.029520714    305.94474     -2896.3717      3375         
       190  -56.528598      0.35534727    -56.17325       0.029520714    305.45402     -1937.7811      3375         
       200  -56.594284      0.38728011    -56.207004      0.029520714    332.90326      821.60465      3375         
       210  -56.680857      0.45887733    -56.221979      0.029520714    394.44772      505.2512       3375         
       220  -56.558538      0.31609847    -56.24244       0.029520714    271.71602      110.30288      3375         
       230  -56.708541      0.44367066    -56.26487       0.029520714    381.37617      1183.4428      3375         
       240  -56.548767      0.28042116    -56.268346      0.029520714    241.04805      850.76263      3375         
       250  -56.660136      0.36612093    -56.294015      0.029520714    314.71497     -1500.4778      3375         
       260  -56.607744      0.30348457    -56.30426       0.029520714    260.8732      -1777.6654      3375         
       270  -56.618831      0.29082858    -56.328003      0.029520714    249.9942       903.49194      3375         
       280  -56.754442      0.4267164     -56.327725      0.029520714    366.80241      2147.1627      3375         
       290  -56.735545      0.38758346    -56.347961      0.029520714    333.16401     -791.37787      3375         
       300  -56.517355      0.16174658    -56.355608      0.029520714    139.03622     -1918.832       3375         
       310  -56.767799      0.38747346    -56.380326      0.029520714    333.06946      1218.3947      3375         
       320  -56.688118      0.31478633    -56.373331      0.029520714    270.58811      1898.8336      3375         
       330  -56.645669      0.25565357    -56.390015      0.029520714    219.75801     -831.96488      3375         
       340  -56.69561       0.29930826    -56.396302      0.029520714    257.28327     -2036.4829      3375         
       350  -56.70786       0.30341554    -56.404445      0.029520714    260.81386     -398.14991      3375         
       360  -56.700563      0.28534187    -56.415221      0.029520714    245.27786      974.18828      3375         
       370  -56.688802      0.27652624    -56.412275      0.029520714    237.70001      374.39761      3375         
       380  -56.617871      0.19861314    -56.419258      0.029520714    170.72645      259.91986      3375         
       390  -56.739507      0.3168392     -56.422667      0.029520714    272.35275      1597.2479      3375         
       400  -56.709057      0.29565441    -56.413402      0.029520714    254.14245      154.99384      3375         
       410  -56.656195      0.2310919     -56.425104      0.029520714    198.64497     -2998.6095      3375         
       420  -56.732573      0.31753506    -56.415038      0.029520714    272.9509      -1243.9831      3375         
       430  -56.692779      0.27034388    -56.422435      0.029520714    232.3857       2210.6072      3375         
       440  -56.73004       0.32510954    -56.40493       0.029520714    279.46187      1654.4885      3375         
       450  -56.659188      0.25340287    -56.405785      0.029520714    217.82332     -1054.9729      3375         
       460  -56.720628      0.32084163    -56.399786      0.029520714    275.79321     -1352.2464      3375         
       470  -56.775672      0.37779128    -56.397881      0.029520714    324.74672      782.72642      3375         
       480  -56.654218      0.28018122    -56.374036      0.029520714    240.84181      853.85034      3375         
       490  -56.620168      0.24909426    -56.371074      0.029520714    214.11968     -1196.6175      3375         
       500  -56.758415      0.39332337    -56.365092      0.029520714    338.098       -655.42561      3375         
       510  -56.554742      0.21412562    -56.340617      0.029520714    184.06087      1679.9256      3375         
       520  -56.689213      0.36383635    -56.325376      0.029520714    312.75116      192.33173      3375         
       530  -56.687284      0.37948954    -56.307794      0.029520714    326.20654     -1200.9374      3375         
       540  -56.627542      0.33985959    -56.287683      0.029520714    292.14091      872.85217      3375         
       550  -56.546426      0.28494527    -56.26148       0.029520714    244.93695      1520.781       3375         
       560  -56.599003      0.35052968    -56.248474      0.029520714    301.31284     -1563.1535      3375         
       570  -56.502784      0.27540023    -56.227384      0.029520714    236.7321      -2961.4862      3375         
       580  -56.743618      0.54862531    -56.194993      0.029520714    471.59446      345.51067      3375         
       590  -56.476509      0.2781201     -56.198389      0.029520714    239.07008      3181.0721      3375         
       600  -56.622013      0.49700302    -56.12501       0.029520714    427.2203       1005.1524      3375         
       610  -56.575227      0.44078929    -56.134438      0.029520714    378.89937     -2050.1349      3375         
       620  -56.463803      0.33419663    -56.129606      0.029520714    287.27307     -749.29171      3375         
       630  -56.47873       0.37976666    -56.098963      0.029520714    326.44475      1419.9009      3375         
       640  -56.707229      0.61144572    -56.095783      0.029520714    525.59444     -200.49988      3375         
       650  -56.401635      0.3135388     -56.088096      0.029520714    269.51575     -1264.9491      3375         
       660  -56.563082      0.48098807    -56.082094      0.029520714    413.45396      1036.4373      3375         
       670  -56.654588      0.57054059    -56.084047      0.029520714    490.43268      1154.4162      3375         
       680  -56.464275      0.38027005    -56.084005      0.029520714    326.87746     -1414.3417      3375         
       690  -56.390531      0.30547364    -56.085057      0.029520714    262.58299     -884.1248       3375         
       700  -56.738697      0.63014211    -56.108555      0.029520714    541.66572      1238.1903      3375         
       710  -56.566562      0.47484028    -56.091722      0.029520714    408.16937      848.09739      3375         
       720  -56.415063      0.29231404    -56.122749      0.029520714    251.27109     -1341.0595      3375         
       730  -56.586287      0.45355105    -56.132736      0.029520714    389.86929     -1324.9113      3375         
       740  -56.591892      0.44136783    -56.150524      0.029520714    379.39668      968.36474      3375         
       750  -56.459263      0.30666126    -56.152602      0.029520714    263.60386      2055.0023      3375         
       760  -56.567279      0.40722824    -56.160051      0.029520714    350.05053     -205.73714      3375         
       770  -56.573157      0.3922957     -56.180862      0.029520714    337.21462     -1598.5387      3375         
       780  -56.628758      0.43388904    -56.194869      0.029520714    372.96797      526.00956      3375         
       790  -56.612792      0.40687146    -56.20592       0.029520714    349.74384      379.9131       3375         
       800  -56.430069      0.21259581    -56.217473      0.029520714    182.74586     -1366.0809      3375         
       810  -56.689655      0.45980916    -56.229846      0.029520714    395.24872      275.22641      3375         
       820  -56.695901      0.46091494    -56.234986      0.029520714    396.19924      1323.1417      3375         
       830  -56.522669      0.27715868    -56.245511      0.029520714    238.24365     -569.17965      3375         
       840  -56.628101      0.37410423    -56.253997      0.029520714    321.57737     -1021.9628      3375         
       850  -56.766212      0.4975967     -56.268615      0.029520714    427.73063      239.16136      3375         
       860  -56.465671      0.19719966    -56.268471      0.029520714    169.51144      1308.0183      3375         
       870  -56.631355      0.3619032     -56.269452      0.029520714    311.08944      763.57562      3375         
       880  -56.719581      0.43745477    -56.282127      0.029520714    376.03304     -1684.8997      3375         
       890  -56.523069      0.24491305    -56.278156      0.029520714    210.52554     -1286.7859      3375         
       900  -56.649075      0.3514604     -56.297615      0.029520714    302.11289      1722.9127      3375         
       910  -56.743666      0.46275417    -56.280912      0.029520714    397.78023      978.23572      3375         
       920  -56.565308      0.2739256     -56.291383      0.029520714    235.46452     -1269.3465      3375         
       930  -56.587498      0.29216551    -56.295332      0.029520714    251.14342      43.921307      3375         
       940  -56.729848      0.43627957    -56.293569      0.029520714    375.02285      512.43624      3375         
       950  -56.651571      0.357433      -56.294138      0.029520714    307.24689     -1095.2595      3375         
       960  -56.618462      0.32104736    -56.297414      0.029520714    275.97005     -423.52072      3375         
       970  -56.763261      0.46434134    -56.298919      0.029520714    399.14455      681.04917      3375         
       980  -56.554638      0.25286317    -56.301775      0.029520714    217.3594       720.60134      3375         
       990  -56.644516      0.35595474    -56.288561      0.029520714    305.97619      4.1846177      3375         
      1000  -56.701019      0.40477218    -56.296247      0.029520714    347.93931     -759.86495      3375         
      1010  -56.645922      0.34235423    -56.303568      0.029520714    294.28528      479.57209      3375         
      1020  -56.70229       0.41679455    -56.285495      0.029520714    358.27366      1481.2         3375         
      1030  -56.700649      0.39942222    -56.301227      0.029520714    343.34053     -1128.9058      3375         
      1040  -56.517308      0.22804878    -56.28926       0.029520714    196.02913     -2229.5943      3375         
      1050  -56.7182        0.42040497    -56.297795      0.029520714    361.37715      753.906        3375         
      1060  -56.75186       0.4571051     -56.294754      0.029520714    392.92433      1364.9359      3375         
      1070  -56.472785      0.18306311    -56.289722      0.029520714    157.35977     -414.3598       3375         
      1080  -56.820965      0.52873633    -56.292229      0.029520714    454.49803     -8.0095187      3375         
      1090  -56.726124      0.42977222    -56.296352      0.029520714    369.42918      934.07489      3375         
      1100  -56.49407       0.21007259    -56.283997      0.029520714    180.57692     -538.4353       3375         
      1110  -56.699551      0.40796996    -56.291581      0.029520714    350.6881      -1626.5539      3375         
      1120  -56.740439      0.44255445    -56.297885      0.029520714    380.41669     -61.902581      3375         
      1130  -56.503492      0.21865671    -56.284836      0.029520714    187.95577      1617.0133      3375         
      1140  -56.689249      0.4098365     -56.279413      0.029520714    352.29257      1100.7882      3375         
      1150  -56.725777      0.44140412    -56.284372      0.029520714    379.42787     -1151.1958      3375         
      1160  -56.524533      0.24401321    -56.28052       0.029520714    209.75204     -885.80034      3375         
      1170  -56.656245      0.37667878    -56.279566      0.029520714    323.79043      1052.6349      3375         
      1180  -56.630255      0.35738033    -56.272875      0.029520714    307.20161     -16.17657       3375         
      1190  -56.601099      0.33075361    -56.270345      0.029520714    284.31348     -2126.6614      3375         
      1200  -56.786292      0.52678408    -56.259508      0.029520714    452.81989     -27.852324      3375         
      1210  -56.581133      0.31942912    -56.261704      0.029520714    274.57903      2021.9946      3375         
      1220  -56.554149      0.32132308    -56.232826      0.029520714    276.20706      146.13425      3375         
      1230  -56.660885      0.42058614    -56.240299      0.029520714    361.53289     -312.42697      3375         
      1240  -56.722548      0.4952976     -56.227251      0.029520714    425.75433      850.99779      3375         
      1250  -56.497051      0.28987523    -56.207175      0.029520714    249.17471      9.4864564      3375         
      1260  -56.753646      0.5485692     -56.205077      0.029520714    471.54622     -1627.2369      3375         
      1270  -56.568567      0.37691435    -56.191653      0.029520714    323.99292     -1403.8795      3375         
      1280  -56.542796      0.35786557    -56.18493       0.029520714    307.61873      608.07839      3375         
      1290  -56.614951      0.42944592    -56.185505      0.029520714    369.14869      2644.9254      3375         
      1300  -56.56185       0.40711469    -56.154735      0.029520714    349.95292      431.06856      3375         
      1310  -56.482315      0.32232838    -56.159987      0.029520714    277.07121     -2337.6056      3375         
      1320  -56.655512      0.50242185    -56.15309       0.029520714    431.87828     -234.63126      3375         
      1330  -56.581343      0.44031723    -56.141026      0.029520714    378.49359      732.82792      3375         
      1340  -56.392952      0.25616139    -56.136791      0.029520714    220.19453     -727.58723      3375         
      1350  -56.66042       0.51871601    -56.141704      0.029520714    445.88463      17.844858      3375         
      1360  -56.508023      0.38269546    -56.125328      0.029520714    328.96232      1130.143       3375         
      1370  -56.460619      0.33652028    -56.124099      0.029520714    289.27046      553.95264      3375         
      1380  -56.668952      0.54593142    -56.123021      0.029520714    469.27881     -221.58677      3375         
      1390  -56.516723      0.38981621    -56.126906      0.029520714    335.08328     -469.27173      3375         
      1400  -56.578066      0.4466491     -56.131417      0.029520714    383.93643     -130.6367       3375         
      1410  -56.55077       0.41495089    -56.135819      0.029520714    356.68886      299.58428      3375         
      1420  -56.53242       0.38207335    -56.150346      0.029520714    328.42756     -1489.965       3375         
      1430  -56.552323      0.39851397    -56.153809      0.029520714    342.5598      -1251.2427      3375         
      1440  -56.735932      0.55142419    -56.184508      0.029520714    474.00035      1884.9702      3375         
      1450  -56.494098      0.3160965     -56.178002      0.029520714    271.71432      2469.4632      3375         
      1460  -56.592641      0.38703997    -56.205601      0.029520714    332.69683     -614.92675      3375         
      1470  -56.645452      0.41611311    -56.229339      0.029520714    357.68791     -1803.4984      3375         
      1480  -56.464799      0.21897271    -56.245826      0.029520714    188.2274      -146.71658      3375         
      1490  -56.686505      0.41769016    -56.268815      0.029520714    359.04352      277.27325      3375         
      1500  -56.71178       0.42285387    -56.288926      0.029520714    363.48221     -335.57354      3375         
      1510  -56.621539      0.30829433    -56.313245      0.029520714    265.00763      316.63133      3375         
      1520  -56.593924      0.25819646    -56.335728      0.029520714    221.94386      1178.5499      3375         
      1530  -56.683435      0.33725229    -56.346183      0.029520714    289.89969      484.62285      3375         
      1540  -56.630082      0.26625139    -56.363831      0.029520714    228.86782     -1311.5293      3375         
      1550  -56.631206      0.25414613    -56.37706       0.029520714    218.46222     -1470.1036      3375         
      1560  -56.729942      0.33701228    -56.392929      0.029520714    289.69338      888.80613      3375         
      1570  -56.670102      0.27322439    -56.396877      0.029520714    234.86176      1126.7074      3375         
      1580  -56.721173      0.31256703    -56.408606      0.029520714    268.68042     -1299.8724      3375         
      1590  -56.687379      0.26906135    -56.418318      0.029520714    231.28324     -493.78554      3375         
      1600  -56.674999      0.23478452    -56.440214      0.029520714    201.81912      1944.3377      3375         
      1610  -56.708591      0.30392981    -56.404662      0.029520714    261.25593      1044.6901      3375         
      1620  -56.786654      0.35368481    -56.432969      0.029520714    304.02497     -1271.5614      3375         
      1630  -56.696317      0.26446846    -56.431849      0.029520714    227.33522     -1124.5297      3375         
      1640  -56.677529      0.24230896    -56.43522       0.029520714    208.28708      249.15101      3375         
      1650  -56.824905      0.38841454    -56.436491      0.029520714    333.87841      121.71728      3375         
      1660  -56.561069      0.12415138    -56.436918      0.029520714    106.71965     -342.55858      3375         
      1670  -56.72896       0.29435625    -56.434604      0.029520714    253.02656      389.91675      3375         
      1680  -56.76389       0.33001818    -56.433871      0.029520714    283.68131      1360.6481      3375         
      1690  -56.711494      0.29181125    -56.419683      0.029520714    250.83889     -430.81105      3375         
      1700  -56.627905      0.2056608     -56.422244      0.029520714    176.78458     -2220.2881      3375         
      1710  -56.700266      0.27582818    -56.424438      0.029520714    237.09996      40.233421      3375         
      1720  -56.619371      0.21348063    -56.40589       0.029520714    183.50645      2274.066       3375         
      1730  -56.697618      0.31851101    -56.379107      0.029520714    273.78982      433.59269      3375         
      1740  -56.717813      0.34216423    -56.375648      0.029520714    294.12196     -1652.7004      3375         
      1750  -56.668587      0.31104501    -56.357542      0.029520714    267.3721       50.994087      3375         
      1760  -56.6699        0.33886996    -56.33103       0.029520714    291.29023      1252.7687      3375         
      1770  -56.636862      0.32977323    -56.307089      0.029520714    283.47075     -382.65913      3375         
      1780  -56.57834       0.29364685    -56.284693      0.029520714    252.41676     -1141.7077      3375         
      1790  -56.708504      0.46588652    -56.242617      0.029520714    400.47278     -126.15975      3375         
      1800  -56.507656      0.28984236    -56.217813      0.029520714    249.14645      610.44164      3375         
      1810  -56.62243       0.44685984    -56.17557       0.029520714    384.11757     -322.01071      3375         
      1820  -56.572971      0.42855811    -56.144413      0.029520714    368.38553     -445.12163      3375         
      1830  -56.583517      0.44871458    -56.134802      0.029520714    385.7119       1376.9552      3375         
      1840  -56.405752      0.33205005    -56.073702      0.029520714    285.42789      1787.9206      3375         
      1850  -56.600149      0.51994722    -56.080202      0.029520714    446.94297     -1607.5958      3375         
      1860  -56.503538      0.44243507    -56.061103      0.029520714    380.31408     -2512.729       3375         
      1870  -56.450967      0.39207373    -56.058893      0.029520714    337.02382      794.16727      3375         
      1880  -56.705794      0.64941344    -56.05638       0.029520714    558.23122      1824.7447      3375         
      1890  -56.484388      0.43565081    -56.048737      0.029520714    374.48237      411.39523      3375         
      1900  -56.405207      0.34334463    -56.061862      0.029520714    295.13663     -864.33821      3375         
      1910  -56.432911      0.37152414    -56.061387      0.029520714    319.35953     -644.63365      3375         
      1920  -56.712448      0.64352269    -56.068925      0.029520714    553.16758     -49.845074      3375         
      1930  -56.494499      0.41512211    -56.079377      0.029520714    356.83605     -258.22986      3375         
      1940  -56.395119      0.30336226    -56.091757      0.029520714    260.76807     -45.396459      3375         
      1950  -56.642128      0.54481988    -56.097308      0.029520714    468.32334      928.17149      3375         
      1960  -56.424563      0.32002371    -56.104539      0.029520714    275.09013      505.59821      3375         
      1970  -56.546376      0.4281543     -56.118222      0.029520714    368.03843     -941.88776      3375         
      1980  -56.559203      0.4266706     -56.132532      0.029520714    366.76305     -507.52588      3375         
      1990  -56.650809      0.5018256     -56.148983      0.029520714    431.36576      1147.0929      3375         
      2000  -56.577754      0.42256687    -56.155188      0.029520714    363.23551      1302.4128      3375         
      2010  -56.614535      0.42343805    -56.191097      0.029520714    363.98437     -1349.6545      3375         
      2020  -56.620797      0.42832271    -56.192474      0.029520714    368.18319     -1898.5482      3375         
      2030  -56.66083       0.43895095    -56.221879      0.029520714    377.31915      351.03444      3375         
      2040  -56.5642        0.31820462    -56.245995      0.029520714    273.52645      1259.3172      3375         
      2050  -56.553561      0.30192942    -56.251631      0.029520714    259.5364       777.13737      3375         
      2060  -56.802245      0.53011459    -56.27213       0.029520714    455.68277     -644.97738      3375         
      2070  -56.508705      0.21561178    -56.293093      0.029520714    185.33837     -720.57098      3375         
      2080  -56.572429      0.26592486    -56.306504      0.029520714    228.58713      516.61312      3375         
      2090  -56.67316       0.3601853     -56.312974      0.029520714    309.61275     -50.551628      3375         
      2100  -56.628061      0.3010887     -56.326972      0.029520714    258.81373     -428.22873      3375         
      2110  -56.691861      0.35657638    -56.335284      0.029520714    306.51055      995.51276      3375         
      2120  -56.641843      0.29927136    -56.342572      0.029520714    257.25155      311.10284      3375         
      2130  -56.666405      0.31439098    -56.352014      0.029520714    270.24827     -1332.3477      3375         
      2140  -56.620412      0.2627631     -56.357649      0.029520714    225.86931     -326.43294      3375         
      2150  -56.751869      0.38491909    -56.36695       0.029520714    330.87374      919.25864      3375         
      2160  -56.684812      0.31344697    -56.371365      0.029520714    269.43681      951.52676      3375         
      2170  -56.705365      0.33172512    -56.37364       0.029520714    285.14858     -815.93338      3375         
      2180  -56.632483      0.25567864    -56.376804      0.029520714    219.77956     -1894.6539      3375         
      2190  -56.758878      0.36264924    -56.396228      0.029520714    311.73074      459.42416      3375         
      2200  -56.669293      0.28963095    -56.379662      0.029520714    248.96473      1764.9608      3375         
      2210  -56.545954      0.16080244    -56.385152      0.029520714    138.22465      259.85648      3375         
      2220  -56.805738      0.41671202    -56.389026      0.029520714    358.20272     -263.05928      3375         
      2230  -56.69366       0.3083241     -56.385336      0.029520714    265.03323      312.32398      3375         
      2240  -56.684852      0.29640034    -56.388452      0.029520714    254.78365     -794.14203      3375         
      2250  -56.633239      0.24746934    -56.38577       0.029520714    212.7229      -1175.5085      3375         
      2260  -56.718325      0.33458307    -56.383742      0.029520714    287.60525      19.355766      3375         
      2270  -56.698373      0.31138637    -56.386986      0.029520714    267.66553      1290.3037      3375         
      2280  -56.629731      0.26411234    -56.365619      0.029520714    227.02911      707.94834      3375         
      2290  -56.687537      0.31958138    -56.367956      0.029520714    274.70991     -1246.6473      3375         
      2300  -56.693578      0.33519376    -56.358384      0.029520714    288.13019     -666.16363      3375         
      2310  -56.648737      0.30464812    -56.344089      0.029520714    261.87338      1349.0849      3375         
      2320  -56.507104      0.18683293    -56.320272      0.029520714    160.60027      796.65953      3375         
      2330  -56.746235      0.44327617    -56.302959      0.029520714    381.03708     -1420.1454      3375         
      2340  -56.613945      0.34284429    -56.271101      0.029520714    294.70654     -978.80409      3375         
      2350  -56.499808      0.25453245    -56.245275      0.029520714    218.79431      933.30642      3375         
      2360  -56.706327      0.503335      -56.202992      0.029520714    432.66323      870.26011      3375         
      2370  -56.570552      0.41416187    -56.15639       0.029520714    356.01063      93.575924      3375         
      2380  -56.581398      0.45756837    -56.123829      0.029520714    393.32255      369.71578      3375         
      2390  -56.419607      0.33017212    -56.089435      0.029520714    283.81363      2.1389472      3375         
      2400  -56.673771      0.59746658    -56.076305      0.029520714    513.57807     -2015.6944      3375         
      2410  -56.492602      0.46420031    -56.028401      0.029520714    399.02332     -1475.2382      3375         
      2420  -56.627973      0.58345415    -56.044519      0.029520714    501.53308      740.30503      3375         
      2430  -56.421113      0.412267      -56.008846      0.029520714    354.38181      2595.5424      3375         
      2440  -56.398944      0.39580152    -56.003142      0.029520714    340.2282       1112.7577      3375         
      2450  -56.430854      0.42370641    -56.007147      0.029520714    364.21505     -1568.8951      3375         
      2460  -56.473675      0.46419998    -56.009475      0.029520714    399.02303     -465.69123      3375         
      2470  -56.515016      0.49643816    -56.018578      0.029520714    426.73475      758.55526      3375         
      2480  -56.393189      0.37614221    -56.017047      0.029520714    323.3292      -1099.312       3375         
      2490  -56.538447      0.51213758    -56.02631       0.029520714    440.22986     -1246.879       3375         
      2500  -56.486496      0.43526625    -56.05123       0.029520714    374.15181      1079.7197      3375         
      2510  -56.520273      0.47176038    -56.048513      0.029520714    405.5219       1391.1217      3375         
      2520  -56.562352      0.49022284    -56.072129      0.029520714    421.39211     -14.934305      3375         
      2530  -56.524513      0.42956571    -56.094947      0.029520714    369.25166     -820.73065      3375         
      2540  -56.674248      0.55269136    -56.121556      0.029520714    475.08961     -184.94445      3375         
      2550  -56.443772      0.30485281    -56.138919      0.029520714    262.04933      525.83246      3375         
      2560  -56.604323      0.44075218    -56.163571      0.029520714    378.86747     -1086.0943      3375         
      2570  -56.618058      0.42817434    -56.189883      0.029520714    368.05565     -1248.6178      3375         
      2580  -56.620394      0.39191751    -56.228477      0.029520714    336.88953      1697.0685      3375         
      2590  -56.475799      0.25907245    -56.216726      0.029520714    222.69686      2437.0698      3375         
      2600  -56.740736      0.4982067     -56.24253       0.029520714    428.25497     -480.11921      3375         
      2610  -56.680025      0.4139642     -56.266061      0.029520714    355.84071     -1744.9011      3375         
      2620  -56.443658      0.16329361    -56.280364      0.029520714    140.36604     -181.83554      3375         
      2630  -56.664179      0.37133927    -56.292839      0.029520714    319.20062     -240.20606      3375         
      2640  -56.695441      0.39638751    -56.299053      0.029520714    340.73192     -881.06052      3375         
      2650  -56.695441      0.37882596    -56.316615      0.029520714    325.63613      277.03786      3375         
      2660  -56.600323      0.27846062    -56.321863      0.029520714    239.36279      1773.4902      3375         
      2670  -56.708949      0.38758046    -56.321369      0.029520714    333.16144      739.26598      3375         
      2680  -56.580821      0.25113382    -56.329687      0.029520714    215.87287     -1184.472       3375         
      2690  -56.62314       0.28928443    -56.333856      0.029520714    248.66686     -946.85314      3375         
      2700  -56.648412      0.29987645    -56.348535      0.029520714    257.77169      1003.2626      3375         
      2710  -56.626431      0.29894365    -56.327487      0.029520714    256.96986      440.50703      3375         
      2720  -56.683107      0.34272873    -56.340378      0.029520714    294.6072      -1747.146       3375         
      2730  -56.65654       0.31169134    -56.344848      0.029520714    267.92769     -147.47672      3375         
      2740  -56.61753       0.28164381    -56.335886      0.029520714    242.09904      2240.3712      3375         
      2750  -56.673247      0.33685387    -56.336393      0.029520714    289.55721      580.15036      3375         
      2760  -56.681654      0.34441414    -56.337239      0.029520714    296.05597     -1608.7211      3375         
      2770  -56.714095      0.38003708    -56.334058      0.029520714    326.6772      -713.85468      3375         
      2780  -56.627558      0.29138993    -56.336168      0.029520714    250.47673      441.47393      3375         
      2790  -56.733496      0.40353964    -56.329956      0.029520714    346.87984     -538.49312      3375         
      2800  -56.595317      0.26524741    -56.33007       0.029520714    228.0048      -705.22047      3375         
      2810  -56.692687      0.34853829    -56.344149      0.029520714    299.60106      1261.5233      3375         
      2820  -56.577086      0.26084388    -56.316242      0.029520714    224.21956      2357.0036      3375         
      2830  -56.723339      0.40607066    -56.317269      0.029520714    349.05548     -218.69746      3375         
      2840  -56.622444      0.30443374    -56.31801       0.029520714    261.6891      -2392.8932      3375         
      2850  -56.650476      0.33485746    -56.315619      0.029520714    287.84112     -598.93339      3375         
      2860  -56.596377      0.28463555    -56.311741      0.029520714    244.67072      1253.3373      3375         
      2870  -56.60443       0.29885636    -56.305573      0.029520714    256.89482     -262.52843      3375         
      2880  -56.666156      0.36727575    -56.29888       0.029520714    315.70765     -982.59583      3375         
      2890  -56.607754      0.31157825    -56.296175      0.029520714    267.83048      944.93249      3375         
      2900  -56.666317      0.38464444    -56.281673      0.029520714    330.63765      1102.1871      3375         
      2910  -56.621455      0.35594545    -56.265509      0.029520714    305.9682      -731.63322      3375         
      2920  -56.629941      0.37128188    -56.258659      0.029520714    319.15129     -775.59442      3375         
      2930  -56.631234      0.38326603    -56.247968      0.029520714    329.45278      727.65242      3375         
      2940  -56.511289      0.28857994    -56.222709      0.029520714    248.06129      501.23851      3375         
      2950  -56.665992      0.46227115    -56.203721      0.029520714    397.36503     -1202.432       3375         
      2960  -56.612743      0.43037864    -56.182365      0.029520714    369.95045     -917.0011       3375         
      2970  -56.509287      0.34933959    -56.159947      0.029520714    300.28986      1705.5649      3375         
      2980  -56.513433      0.40807455    -56.105358      0.029520714    350.77801      2112.7943      3375         
      2990  -56.676244      0.58428547    -56.091959      0.029520714    502.24768     -1561.7553      3375         
      3000  -56.385682      0.34432445    -56.041357      0.029520714    295.97887     -2319.7342      3375         
      3010  -56.490472      0.47516567    -56.015307      0.029520714    408.44907      724.72083      3375         
      3020  -56.691656      0.71466774    -55.976988      0.029520714    614.32336      593.8709       3375         
      3030  -56.380003      0.43179505    -55.948208      0.029520714    371.16798     -427.80593      3375         
      3040  -56.422655      0.49881294    -55.923842      0.029520714    428.77609      330.32489      3375         
      3050  -56.413426      0.50960457    -55.903821      0.029520714    438.0525       824.06145      3375         
      3060  -56.488454      0.60039726    -55.888057      0.029520714    516.09726      588.57361      3375         
      3070  -56.420547      0.54543597    -55.875111      0.029520714    468.85292     -600.24184      3375         
      3080  -56.366656      0.49347421    -55.873182      0.029520714    424.18696     -1303.9673      3375         
      3090  -56.466911      0.57962715    -55.887284      0.029520714    498.24342      1032.9771      3375         
      3100  -56.556271      0.67890669    -55.877364      0.029520714    583.58342      605.27917      3375         
      3110  -56.369345      0.46786548    -55.90148       0.029520714    402.17388     -2323.7015      3375         
      3120  -56.38221       0.45970571    -55.922504      0.029520714    395.15979     -144.83676      3375         
      3130  -56.595318      0.6563301     -55.938988      0.029520714    564.17673      2460.2608      3375         
      3140  -56.521953      0.55147688    -55.970476      0.029520714    474.04565      482.91673      3375         
      3150  -56.55758       0.53918847    -56.018391      0.029520714    463.48261     -1361.2511      3375         
      3160  -56.645759      0.58570311    -56.060056      0.029520714    503.46627     -950.84779      3375         
      3170  -56.440312      0.34362101    -56.096691      0.029520714    295.3742       176.23041      3375         
      3180  -56.586862      0.45192585    -56.134936      0.029520714    388.47228      645.58435      3375         
      3190  -56.686553      0.51568866    -56.170865      0.029520714    443.28234     -173.64328      3375         
      3200  -56.592413      0.38877623    -56.203637      0.029520714    334.18932      72.616489      3375         
      3210  -56.499964      0.28796744    -56.211996      0.029520714    247.53479      1626.1813      3375         
      3220  -56.810271      0.56900638    -56.241264      0.029520714    489.11388     -291.05896      3375         
      3230  -56.518303      0.27336672    -56.244936      0.029520714    234.98411     -2273.0013      3375         
      3240  -56.566067      0.30530492    -56.260762      0.029520714    262.43796      89.659939      3375         
      3250  -56.691731      0.42432918    -56.267402      0.029520714    364.75037      1401.3101      3375         
      3260  -56.669304      0.39581279    -56.273491      0.029520714    340.23789     -601.90203      3375         
      3270  -56.561951      0.2831669     -56.278784      0.029520714    243.40827     -848.50002      3375         
      3280  -56.675374      0.38693472    -56.288439      0.029520714    332.60636      639.69473      3375         
      3290  -56.650685      0.35193733    -56.298748      0.029520714    302.52285      1119.8897      3375         
      3300  -56.583043      0.30526035    -56.277782      0.029520714    262.39965      327.00565      3375         
      3310  -56.703129      0.4066694     -56.29646       0.029520714    349.57016     -1099.353       3375         
      3320  -56.617923      0.31425997    -56.303663      0.029520714    270.13566     -403.4522       3375         
      3330  -56.706481      0.40808884    -56.298392      0.029520714    350.7903       618.38427      3375         
      3340  -56.728225      0.42093582    -56.307289      0.029520714    361.83347     -693.27761      3375         
      3350  -56.534823      0.22080392    -56.314019      0.029520714    189.8015      -639.71012      3375         
      3360  -56.680643      0.36842116    -56.312222      0.029520714    316.69224      1895.6875      3375         
      3370  -56.745825      0.43028086    -56.315544      0.029520714    369.8664       899.95384      3375         
      3380  -56.560917      0.24191575    -56.319002      0.029520714    207.94908     -2080.7138      3375         
      3390  -56.691545      0.37088441    -56.320661      0.029520714    318.80963     -996.93762      3375         
      3400  -56.80868       0.47142551    -56.337255      0.029520714    405.23405      970.14241      3375         
      3410  -56.536323      0.21997877    -56.316345      0.029520714    189.0922       524.09756      3375         
      3420  -56.624615      0.29836814    -56.326247      0.029520714    256.47515     -154.87399      3375         
      3430  -56.783315      0.44830042    -56.335015      0.029520714    385.35589     -154.94228      3375         
      3440  -56.51717       0.19017786    -56.326992      0.029520714    163.47555      791.65086      3375         
      3450  -56.666024      0.33819261    -56.327831      0.029520714    290.70799      788.36339      3375         
      3460  -56.702768      0.37087573    -56.331892      0.029520714    318.80216     -1386.6788      3375         
      3470  -56.558466      0.22839419    -56.330072      0.029520714    196.32603     -1151.9949      3375         
      3480  -56.539999      0.2119835     -56.328015      0.029520714    182.21953      1360.2753      3375         
      3490  -56.803696      0.47644285    -56.327253      0.029520714    409.54692     -303.91638      3375         
      3500  -56.533911      0.21085962    -56.323051      0.029520714    181.25344     -1417.7674      3375         
      3510  -56.610039      0.28327266    -56.326766      0.029520714    243.49919      1463.4376      3375         
      3520  -56.789503      0.47334601    -56.316157      0.029520714    406.8849       1621.1389      3375         
      3530  -56.628297      0.32623654    -56.302061      0.029520714    280.43064     -935.12983      3375         
      3540  -56.483538      0.18195005    -56.301588      0.029520714    156.40298     -1303.7644      3375         
      3550  -56.774461      0.47265382    -56.301808      0.029520714    406.2899      -262.41457      3375         
      3560  -56.700027      0.41369502    -56.286332      0.029520714    355.60933      824.16434      3375         
      3570  -56.548105      0.2733222     -56.274783      0.029520714    234.94584      896.52649      3375         
      3580  -56.712738      0.44547315    -56.267265      0.029520714    382.92559     -728.45678      3375         
      3590  -56.667613      0.41032394    -56.257289      0.029520714    352.71157     -81.328487      3375         
      3600  -56.50271       0.25845772    -56.244253      0.029520714    222.16844      1149.5466      3375         
      3610  -56.685808      0.45163193    -56.234176      0.029520714    388.21963     -1359.786       3375         
      3620  -56.567455      0.34835687    -56.219098      0.029520714    299.44511     -1531.1204      3375         
      3630  -56.581087      0.36448008    -56.216607      0.029520714    313.30451      1692.9001      3375         
      3640  -56.667366      0.49199046    -56.175376      0.029520714    422.91154      783.67675      3375         
      3650  -56.541694      0.37018447    -56.17151       0.029520714    318.20797     -1275.7104      3375         
      3660  -56.486896      0.32550904    -56.161387      0.029520714    279.80528      84.716541      3375         
      3670  -56.648339      0.51293823    -56.135401      0.029520714    440.91809      1088.2338      3375         
      3680  -56.567939      0.45286707    -56.115072      0.029520714    389.28135      756.86802      3375         
      3690  -56.499618      0.3990031     -56.100615      0.029520714    342.98026     -661.18083      3375         
      3700  -56.587762      0.50419378    -56.083568      0.029520714    433.40143     -2243.8458      3375         
      3710  -56.48794       0.41457665    -56.073363      0.029520714    356.36717      213.73775      3375         
      3720  -56.523464      0.46702262    -56.056441      0.029520714    401.44936      1874.9232      3375         
      3730  -56.476399      0.43217068    -56.044229      0.029520714    371.49087     -342.40666      3375         
      3740  -56.526122      0.48544858    -56.040673      0.029520714    417.28819     -379.2683       3375         
      3750  -56.502007      0.46658163    -56.035425      0.029520714    401.07028      1162.2887      3375         
      3760  -56.52768       0.49196264    -56.035717      0.029520714    422.88762     -804.47705      3375         
      3770  -56.412864      0.37165412    -56.04121       0.029520714    319.47126     -1495.918       3375         
      3780  -56.440304      0.38823505    -56.052069      0.029520714    333.72411      217.66921      3375         
      3790  -56.543146      0.47524095    -56.067905      0.029520714    408.51378      1135.5546      3375         
      3800  -56.484684      0.42551195    -56.059172      0.029520714    365.76708      1220.8886      3375         
      3810  -56.524722      0.42597833    -56.098744      0.029520714    366.16797     -569.01211      3375         
      3820  -56.533631      0.41581193    -56.117819      0.029520714    357.42901     -1244.5808      3375         
      3830  -56.541523      0.39236742    -56.149155      0.029520714    337.27627      781.4451       3375         
      3840  -56.528039      0.34975386    -56.178286      0.029520714    300.64596      743.23886      3375         
      3850  -56.499586      0.29359693    -56.205989      0.029520714    252.37385     -1588.0379      3375         
      3860  -56.628546      0.39109303    -56.237453      0.029520714    336.18082     -689.01376      3375         
      3870  -56.606456      0.33658273    -56.269873      0.029520714    289.32414      1176.9666      3375         
      3880  -56.635313      0.33857367    -56.29674       0.029520714    291.03555      290.1922       3375         
      3890  -56.635995      0.32025503    -56.31574       0.029520714    275.28897     -104.64472      3375         
      3900  -56.710316      0.3668687     -56.343447      0.029520714    315.35775      205.37038      3375         
      3910  -56.582423      0.22343456    -56.358988      0.029520714    192.06278      338.43615      3375         
      3920  -56.711008      0.3434633     -56.367545      0.029520714    295.23864     -238.78531      3375         
      3930  -56.794922      0.4163953     -56.378527      0.029520714    357.93047     -1227.52        3375         
      3940  -56.638888      0.24015156    -56.398736      0.029520714    206.43259     -81.033454      3375         
      3950  -56.699624      0.30487986    -56.394744      0.029520714    262.07259      1655.2464      3375         
      3960  -56.804697      0.39781       -56.406887      0.029520714    341.95468      499.41615      3375         
      3970  -56.601521      0.19598669    -56.405535      0.029520714    168.46878     -1404.5299      3375         
      3980  -56.70811       0.29572527    -56.412385      0.029520714    254.20336     -529.65927      3375         
      3990  -56.835575      0.41840193    -56.417173      0.029520714    359.65536      687.01354      3375         
      4000  -56.603569      0.19758478    -56.405984      0.029520714    169.84249      4.4412657      3375         
      4010  -56.606602      0.19600453    -56.410597      0.029520714    168.48411     -487.36812      3375         
      4020  -56.842673      0.41898983    -56.423683      0.029520714    360.16071      206.7187       3375         
      4030  -56.563319      0.1702664     -56.393053      0.029520714    146.3598       769.03227      3375         
      4040  -56.570031      0.17086492    -56.399166      0.029520714    146.87428      21.44075       3375         
      4050  -56.782287      0.38598719    -56.3963        0.029520714    331.79187     -744.06002      3375         
      4060  -56.718244      0.33343591    -56.384808      0.029520714    286.61916      347.34916      3375         
      4070  -56.543198      0.1656318     -56.377567      0.029520714    142.37593      968.13679      3375         
      4080  -56.70663       0.33547604    -56.371154      0.029520714    288.37284     -1059.4885      3375         
      4090  -56.656304      0.29256965    -56.363734      0.029520714    251.49081     -1527.0953      3375         
      4100  -56.579625      0.22984473    -56.34978       0.029520714    197.57291      856.2672       3375         
      4110  -56.688643      0.33814974    -56.350494      0.029520714    290.67114      1371.5645      3375         
      4120  -56.708723      0.38902619    -56.319697      0.029520714    334.40418     -140.71525      3375         
      4130  -56.562075      0.24929137    -56.312784      0.029520714    214.28911     -746.72081      3375         
      4140  -56.634968      0.31547935    -56.319489      0.029520714    271.18383      25.452795      3375         
      4150  -56.686394      0.40853242    -56.277862      0.029520714    351.17159      458.36347      3375         
      4160  -56.598657      0.32186096    -56.276796      0.029520714    276.66942     -258.99512      3375         
      4170  -56.615862      0.35009799    -56.265764      0.029520714    300.94177     -730.9471       3375         
      4180  -56.673318      0.43106707    -56.24225       0.029520714    370.54222      861.89322      3375         
      4190  -56.615581      0.38384766    -56.231733      0.029520714    329.95275      998.38434      3375         
      4200  -56.556593      0.34197813    -56.214615      0.029520714    293.962       -1149.43        3375         
      4210  -56.562802      0.35952456    -56.203278      0.029520714    309.04478     -841.69819      3375         
      4220  -56.634662      0.44007271    -56.194589      0.029520714    378.2834       1046.1229      3375         
      4230  -56.549322      0.38605533    -56.163267      0.029520714    331.85045      424.09933      3375         
      4240  -56.514979      0.34776837    -56.167211      0.029520714    298.93925     -1267.8324      3375         
      4250  -56.602801      0.46145123    -56.14135       0.029520714    396.66023     -719.45317      3375         
      4260  -56.606118      0.46420266    -56.141915      0.029520714    399.02534      861.50395      3375         
      4270  -56.320895      0.20688744    -56.114007      0.029520714    177.83899      1551.669       3375         
      4280  -56.509875      0.40167596    -56.108199      0.029520714    345.27783      15.401328      3375         
      4290  -56.704935      0.61126271    -56.093673      0.029520714    525.43712     -1140.4903      3375         
      4300  -56.373198      0.2919892     -56.081209      0.029520714    250.99186      289.25243      3375         
      4310  -56.553399      0.48414324    -56.069256      0.029520714    416.16613      24.190955      3375         
      4320  -56.604746      0.54441152    -56.060334      0.029520714    467.97231     -1329.6456      3375         
      4330  -56.441626      0.3927386     -56.048887      0.029520714    337.59534      162.07109      3375         
      4340  -56.47045       0.4259188     -56.044531      0.029520714    366.1168       1582.9004      3375         
      4350  -56.615115      0.59494442    -56.020171      0.029520714    511.41004      256.59441      3375         
      4360  -56.441227      0.42073078    -56.020496      0.029520714    361.65722     -1199.017       3375         
      4370  -56.419787      0.40255771    -56.017229      0.029520714    346.03578     -519.71456      3375         
      4380  -56.52048       0.50360483    -56.016875      0.029520714    432.89517      831.49757      3375         
      4390  -56.404116      0.38945202    -56.014664      0.029520714    334.77022      1006.7028      3375         
      4400  -56.401914      0.38430699    -56.017607      0.029520714    330.34758     -1222.7887      3375         
      4410  -56.407771      0.37888886    -56.028883      0.029520714    325.6902      -1131.656       3375         
      4420  -56.520869      0.47136226    -56.049507      0.029520714    405.17968      1665.9346      3375         
      4430  -56.55252       0.50104961    -56.051471      0.029520714    430.69872      1160.0195      3375         
      4440  -56.357878      0.27994741    -56.07793       0.029520714    240.64083     -1033.3432      3375         
      4450  -56.505077      0.40276451    -56.102313      0.029520714    346.21354     -347.34787      3375         
      4460  -56.556781      0.43508216    -56.121698      0.029520714    373.99356      183.53403      3375         
      4470  -56.523424      0.37689668    -56.146527      0.029520714    323.97774     -1006.748       3375         
      4480  -56.552789      0.3709488     -56.18184       0.029520714    318.86498     -578.71079      3375         
      4490  -56.699793      0.48776       -56.212033      0.029520714    419.27507      622.31646      3375         
      4500  -56.475396      0.24207573    -56.233321      0.029520714    208.08659      1710.825       3375         
      4510  -56.548699      0.29612502    -56.252574      0.029520714    254.54698      707.57076      3375         
      4520  -56.725403      0.44140768    -56.283995      0.029520714    379.43094     -1996.6465      3375         
      4530  -56.583877      0.28349771    -56.30038       0.029520714    243.69264     -904.2033       3375         
      4540  -56.541393      0.21796704    -56.323426      0.029520714    187.36294      1834.0876      3375         
      4550  -56.858201      0.52346851    -56.334732      0.029520714    449.96985      118.84256      3375         
      4560  -56.706392      0.35165276    -56.354739      0.029520714    302.27824     -1424.4916      3375         
      4570  -56.544302      0.1731092     -56.371193      0.029520714    148.80345      463.48721      3375         
      4580  -56.777449      0.39651246    -56.380937      0.029520714    340.83932      974.31114      3375         
      4590  -56.766633      0.37679594    -56.389837      0.029520714    323.89114     -441.5942       3375         
      4600  -56.580892      0.18338403    -56.397508      0.029520714    157.63563     -790.79036      3375         
      4610  -56.824719      0.4150806     -56.409639      0.029520714    356.80036      1.1182848      3375         
      4620  -56.721298      0.30884248    -56.412456      0.029520714    265.47882      759.18589      3375         
      4630  -56.609974      0.19492248    -56.415051      0.029520714    167.55399     -529.461        3375         
      4640  -56.713111      0.29087587    -56.422235      0.029520714    250.03485     -1008.3703      3375         
      4650  -56.777548      0.34187253    -56.435676      0.029520714    293.87122      1477.5567      3375         
      4660  -56.625024      0.21877579    -56.406248      0.029520714    188.05813      1892.3625      3375         
      4670  -56.729356      0.30542565    -56.423931      0.029520714    262.54174     -1389.3374      3375         
      4680  -56.673706      0.25585203    -56.417854      0.029520714    219.92861     -2069.755       3375         
      4690  -56.692269      0.27397537    -56.418293      0.029520714    235.5073       601.98317      3375         
      4700  -56.700826      0.28672396    -56.414102      0.029520714    246.46589      1084.8654      3375         
      4710  -56.664226      0.25878521    -56.405441      0.029520714    222.44995     -435.71362      3375         
      4720  -56.754678      0.35321061    -56.401467      0.029520714    303.61735     -536.07021      3375         
      4730  -56.688657      0.29085512    -56.397801      0.029520714    250.01702      824.78852      3375         
      4740  -56.683205      0.30596691    -56.377238      0.029520714    263.007        620.06418      3375         
      4750  -56.610582      0.23761305    -56.372969      0.029520714    204.2505      -1193.1932      3375         
      4760  -56.678182      0.3054299     -56.372752      0.029520714    262.54539     -545.85729      3375         
      4770  -56.577365      0.23076057    -56.346605      0.029520714    198.36016      1771.364       3375         
      4780  -56.683769      0.3576271     -56.326142      0.029520714    307.41374      342.62254      3375         
      4790  -56.657034      0.34218854    -56.314846      0.029520714    294.14286     -2216.6471      3375         
      4800  -56.590985      0.29703938    -56.293946      0.029520714    255.33296     -11.230401      3375         
      4810  -56.558878      0.28140024    -56.277477      0.029520714    241.88967      2399.0509      3375         
      4820  -56.654368      0.40929254    -56.245075      0.029520714    351.82499      306.46333      3375         
      4830  -56.535346      0.29670005    -56.238646      0.029520714    255.04127     -2383.8932      3375         
      4840  -56.584611      0.39024931    -56.194362      0.029520714    335.45556     -1168.6052      3375         
      4850  -56.67013       0.48056109    -56.189569      0.029520714    413.08694      1311.7613      3375         
      4860  -56.518184      0.36747645    -56.150708      0.029520714    315.88017      969.02408      3375         
      4870  -56.409837      0.26770985    -56.142127      0.029520714    230.12151     -375.751        3375         
      4880  -56.737567      0.60888091    -56.128686      0.029520714    523.38975      246.24598      3375         
      4890  -56.400296      0.29444965    -56.105846      0.029520714    253.10685      1366.6216      3375         
      4900  -56.54188       0.44292425    -56.098955      0.029520714    380.73456     -1013.8163      3375         
      4910  -56.6037        0.50912686    -56.094573      0.029520714    437.64186     -2325.3388      3375         
      4920  -56.527614      0.43852117    -56.089093      0.029520714    376.94972      897.24428      3375         
      4930  -56.424579      0.33311151    -56.091467      0.029520714    286.34031      2498.1029      3375         
      4940  -56.615048      0.52214671    -56.092901      0.029520714    448.83363     -955.41234      3375         
      4950  -56.442574      0.35882427    -56.083749      0.029520714    308.44282     -2092.1929      3375         
      4960  -56.593667      0.47675576    -56.116911      0.029520714    409.8159       654.67464      3375         
      4970  -56.646933      0.5551951     -56.091738      0.029520714    477.2418       1504.9787      3375         
      4980  -56.502854      0.38413587    -56.118718      0.029520714    330.20049     -362.25139      3375         
      4990  -56.497133      0.36577273    -56.131361      0.029520714    314.41566     -1218.8727      3375         
      5000  -56.480785      0.34159098    -56.139194      0.029520714    293.62921      650.68156      3375         
      5010  -56.518567      0.36896826    -56.149599      0.029520714    317.16252      1090.5677      3375         
      5020  -56.592155      0.43298653    -56.159168      0.029520714    372.19218     -899.66093      3375         
      5030  -56.504209      0.33439643    -56.169813      0.029520714    287.44482     -686.89327      3375         
      5040  -56.529059      0.34146037    -56.187599      0.029520714    293.51693      1536.8484      3375         
      5050  -56.611153      0.42387844    -56.187274      0.029520714    364.36292      708.42908      3375         
      5060  -56.544766      0.32547065    -56.219296      0.029520714    279.77228     -2339.648       3375         
      5070  -56.472795      0.27497676    -56.197818      0.029520714    236.36809     -1160.5218      3375         
      5080  -56.731492      0.49487052    -56.236622      0.029520714    425.38721      1786.2166      3375         
      5090  -56.697287      0.48062113    -56.216666      0.029520714    413.13854      1373.6312      3375         
      5100  -56.511072      0.27291323    -56.238159      0.029520714    234.5943      -1177.794       3375         
      5110  -56.654732      0.40765266    -56.247079      0.029520714    350.41536     -1158.5159      3375         
      5120  -56.609898      0.35604958    -56.253849      0.029520714    306.05772      1307.3055      3375         
      5130  -56.620645      0.36237317    -56.258272      0.029520714    311.49343      1036.2562      3375         
      5140  -56.596376      0.33908079    -56.257295      0.029520714    291.47146     -1382.8591      3375         
      5150  -56.757396      0.49027828    -56.267118      0.029520714    421.43976     -590.81901      3375         
      5160  -56.568677      0.28618478    -56.282492      0.029520714    246.00242      1534.9691      3375         
      5170  -56.689616      0.41638163    -56.273235      0.029520714    357.91872     -28.310005      3375         
      5180  -56.559224      0.27775582    -56.281468      0.029520714    238.75695     -1724.0534      3375         
      5190  -56.597066      0.30481563    -56.29225       0.029520714    262.01737      231.20991      3375         
      5200  -56.674114      0.39777128    -56.276343      0.029520714    341.9214       1848.3735      3375         
      5210  -56.715082      0.42662528    -56.288457      0.029520714    366.72409     -372.18447      3375         
      5220  -56.548536      0.26060698    -56.287929      0.029520714    224.01593     -2246.3311      3375         
      5230  -56.716214      0.42114923    -56.295065      0.029520714    362.01691     -128.35786      3375         
      5240  -56.580132      0.28025364    -56.299878      0.029520714    240.90406      2313.9157      3375         
      5250  -56.577652      0.29673926    -56.280913      0.029520714    255.07498      597.33045      3375         
      5260  -56.641488      0.34951615    -56.291972      0.029520714    300.44162     -1469.4866      3375         
      5270  -56.722662      0.43051624    -56.292146      0.029520714    370.06873     -45.894881      3375         
      5280  -56.557803      0.26830654    -56.289496      0.029520714    230.63442      1432.0795      3375         
      5290  -56.753996      0.45325555    -56.300741      0.029520714    389.61528     -928.70258      3375         
      5300  -56.501894      0.21784583    -56.284049      0.029520714    187.25875     -1711.4227      3375         
      5310  -56.681251      0.37706885    -56.304182      0.029520714    324.12573      965.63477      3375         
      5320  -56.652572      0.36182936    -56.290743      0.029520714    311.02597      1540.3303      3375         
      5330  -56.638177      0.3401139     -56.298063      0.029520714    292.35951     -1258.617       3375         
      5340  -56.622699      0.32120729    -56.301492      0.029520714    276.10753     -1430.8043      3375         
      5350  -56.723205      0.413121      -56.310084      0.029520714    355.1159       1570.6172      3375         
      5360  -56.564775      0.26527788    -56.299497      0.029520714    228.031        1951.875       3375         
      5370  -56.537719      0.23865667    -56.299062      0.029520714    205.14759     -1284.4769      3375         
      5380  -56.766769      0.46615934    -56.30061       0.029520714    400.70729     -2020.815       3375         
      5390  -56.628168      0.31171558    -56.316452      0.029520714    267.94852      973.65297      3375         
      5400  -56.604263      0.3116085     -56.292655      0.029520714    267.85648      1345.7245      3375         
      5410  -56.680995      0.37410199    -56.306893      0.029520714    321.57544     -672.48589      3375         
      5420  -56.611196      0.30594317    -56.305253      0.029520714    262.9866      -544.18315      3375         
      5430  -56.528216      0.2243547     -56.303862      0.029520714    192.85372      1077.826       3375         
      5440  -56.752179      0.44699811    -56.305181      0.029520714    384.23643     -190.75131      3375         
      5450  -56.700987      0.40021726    -56.30077       0.029520714    344.02394     -2138.5172      3375         
      5460  -56.610763      0.30733453    -56.303429      0.029520714    264.1826      -321.43881      3375         
      5470  -56.717918      0.40938574    -56.308532      0.029520714    351.9051       2312.3974      3375         
      5480  -56.674216      0.39913373    -56.275082      0.029520714    343.09255      856.45607      3375         
      5490  -56.534737      0.24569871    -56.289038      0.029520714    211.20089     -1600.7957      3375         
      5500  -56.764802      0.47470915    -56.290093      0.029520714    408.05664      109.95598      3375         
      5510  -56.690875      0.4168405     -56.274035      0.029520714    358.31316      1587.7144      3375         
      5520  -56.69157       0.41933737    -56.272233      0.029520714    360.45945     -532.70974      3375         
      5530  -56.544226      0.27273424    -56.271491      0.029520714    234.44043     -2009.5918      3375         
      5540  -56.712654      0.44807171    -56.264583      0.029520714    385.15929     -230.34307      3375         
      5550  -56.597908      0.3341908     -56.263717      0.029520714    287.26806      1572.9585      3375         
      5560  -56.634248      0.38120407    -56.253044      0.029520714    327.68033      4.244866       3375         
      5570  -56.573689      0.32323342    -56.250456      0.029520714    277.84917     -801.14842      3375         
      5580  -56.717413      0.45942216    -56.25799       0.029520714    394.91606      1035.3154      3375         
      5590  -56.53304       0.3069414     -56.226099      0.029520714    263.84467      931.28945      3375         
      5600  -56.41662       0.17811256    -56.238508      0.029520714    153.10431     -2065.9753      3375         
      5610  -56.667001      0.43865901    -56.228342      0.029520714    377.0682      -1372.6851      3375         
      5620  -56.621311      0.3911472     -56.230163      0.029520714    336.22738      1747.8113      3375         
      5630  -56.520196      0.31628615    -56.20391       0.029520714    271.87735      1795.6076      3375         
      5640  -56.581442      0.38025723    -56.201185      0.029520714    326.86644     -382.61623      3375         
      5650  -56.67978       0.47717167    -56.202608      0.029520714    410.17341     -1136.2366      3375         
      5660  -56.45596       0.26260408    -56.193356      0.029520714    225.73262      170.95151      3375         
      5670  -56.571713      0.37856941    -56.193144      0.029520714    325.4156       141.44376      3375         
      5680  -56.608423      0.41585399    -56.192569      0.029520714    357.46516     -1488.8491      3375         
      5690  -56.582264      0.39338015    -56.188884      0.029520714    338.14681     -426.09799      3375         
      5700  -56.637794      0.43759452    -56.2002        0.029520714    376.15317      1753.1147      3375         
      5710  -56.5354        0.35572582    -56.179674      0.029520714    305.77941      663.62262      3375         
      5720  -56.57857       0.38385179    -56.194718      0.029520714    329.9563      -917.13528      3375         
      5730  -56.570675      0.36942369    -56.201251      0.029520714    317.554        645.06741      3375         
      5740  -56.617071      0.42185984    -56.195212      0.029520714    362.62775      1078.7886      3375         
      5750  -56.675838      0.46684064    -56.208997      0.029520714    401.29293     -931.0609       3375         
      5760  -56.507172      0.291547      -56.215625      0.029520714    250.61175     -2027.6302      3375         
      5770  -56.683763      0.4627512     -56.221012      0.029520714    397.77767     -520.33837      3375         
      5780  -56.538896      0.29581895    -56.243077      0.029520714    254.28389      1870.0771      3375         
      5790  -56.660887      0.42701472    -56.233872      0.029520714    367.05885      1289.5646      3375         
      5800  -56.545976      0.29125763    -56.254719      0.029520714    250.36301     -420.03412      3375         
      5810  -56.722512      0.45244679    -56.270065      0.029520714    388.92008     -886.68583      3375         
      5820  -56.622154      0.33720328    -56.28495       0.029520714    289.85757     -211.34097      3375         
      5830  -56.570925      0.27487852    -56.296047      0.029520714    236.28364     -566.24843      3375         
      5840  -56.632831      0.31489266    -56.317939      0.029520714    270.67951     -397.98026      3375         
      5850  -56.662971      0.33951063    -56.323461      0.029520714    291.84095      854.22064      3375         
      5860  -56.689         0.34911525    -56.339884      0.029520714    300.09701      1245.2339      3375         
      5870  -56.575059      0.22813553    -56.346924      0.029520714    196.1037       306.47261      3375         
      5880  -56.839086      0.46685954    -56.372227      0.029520714    401.30917     -850.97023      3375         
      5890  -56.667642      0.28122017    -56.386422      0.029520714    241.73488     -421.34707      3375         
      5900  -56.618929      0.22072009    -56.398209      0.029520714    189.72943      15.77099       3375         
      5910  -56.741293      0.32656494    -56.414728      0.029520714    280.71292     -196.89794      3375         
      5920  -56.713317      0.28919321    -56.424123      0.029520714    248.58845     -666.44896      3375         
      5930  -56.730836      0.29148059    -56.439355      0.029520714    250.55467     -85.747671      3375         
      5940  -56.71342       0.26030578    -56.453114      0.029520714    223.75702      1069.6833      3375         
      5950  -56.717439      0.25489154    -56.462547      0.029520714    219.10297      811.89962      3375         
      5960  -56.661193      0.20577973    -56.455414      0.029520714    176.88681     -131.13013      3375         
      5970  -56.756829      0.28573162    -56.471098      0.029520714    245.61289     -707.86927      3375         
      5980  -56.625675      0.14863295    -56.477043      0.029520714    127.76384     -241.65437      3375         
      5990  -56.745789      0.26863051    -56.477158      0.029520714    230.91289     -228.2089       3375         
      6000  -56.834087      0.35315976    -56.480927      0.029520714    303.57365     -175.01557      3375         
      6010  -56.614779      0.13028371    -56.484496      0.029520714    111.99096      662.08134      3375         
      6020  -56.71318       0.23833716    -56.474843      0.029520714    204.87294      891.90774      3375         
      6030  -56.79318       0.31503138    -56.478149      0.029520714    270.79876     -220.21662      3375         
      6040  -56.723788      0.25204042    -56.471747      0.029520714    216.65217     -1258.9212      3375         
      6050  -56.718765      0.25632215    -56.462443      0.029520714    220.33272     -551.34499      3375         
      6060  -56.852609      0.38861693    -56.463992      0.029520714    334.05238      654.3842       3375         
      6070  -56.665815      0.23389324    -56.431922      0.029520714    201.05298      594.43909      3375         
      6080  -56.635163      0.21505155    -56.420111      0.029520714    184.8568      -389.67551      3375         
      6090  -56.772193      0.36035196    -56.411841      0.029520714    309.75601     -86.996434      3375         
      6100  -56.593213      0.22118524    -56.372028      0.029520714    190.12928      1027.5378      3375         
      6110  -56.671237      0.32984573    -56.341392      0.029520714    283.53307      341.84599      3375         
      6120  -56.683256      0.376729      -56.306527      0.029520714    323.8336      -798.53332      3375         
      6130  -56.691765      0.42031269    -56.271452      0.029520714    361.29783     -527.55418      3375         
      6140  -56.468313      0.2351894     -56.233124      0.029520714    202.16715     -41.250472      3375         
      6150  -56.629553      0.41559157    -56.213962      0.029520714    357.23959     -537.39979      3375         
      6160  -56.575493      0.39128904    -56.184204      0.029520714    336.3493      -47.1197        3375         
      6170  -56.50663       0.33913933    -56.167491      0.029520714    291.52178      895.81708      3375         
      6180  -56.658311      0.50627532    -56.152036      0.029520714    435.1907       963.69349      3375         
      6190  -56.504435      0.37523406    -56.129201      0.029520714    322.54856     -223.72113      3375         
      6200  -56.491716      0.3678115     -56.123904      0.029520714    316.16817     -1627.286       3375         
      6210  -56.46967       0.33764055    -56.13203       0.029520714    290.23344     -198.17967      3375         
      6220  -56.534216      0.42510277    -56.109114      0.029520714    365.41535      1278.0901      3375         
      6230  -56.585141      0.4716381     -56.113503      0.029520714    405.41679      540.19058      3375         
      6240  -56.620758      0.51235723    -56.1084        0.029520714    440.41867     -568.57423      3375         
      6250  -56.465167      0.34971673    -56.11545       0.029520714    300.61404     -78.342506      3375         
      6260  -56.440869      0.32264156    -56.118227      0.029520714    277.34041      278.72482      3375         
      6270  -56.743979      0.6207718     -56.123207      0.029520714    533.61107     -495.19851      3375         
      6280  -56.418575      0.28717286    -56.131402      0.029520714    246.85177     -233.26111      3375         
      6290  -56.651048      0.50432186    -56.146726      0.029520714    433.51152      249.26563      3375         
      6300  -56.66451       0.51164321    -56.152867      0.029520714    439.8049       13.962497      3375         
      6310  -56.629834      0.45581308    -56.174021      0.029520714    391.81371     -629.1565       3375         
      6320  -56.476383      0.27565704    -56.200726      0.029520714    236.95285     -116.54011      3375         
      6330  -56.554222      0.35057158    -56.203651      0.029520714    301.34886      776.39099      3375         
      6340  -56.706861      0.48408069    -56.22278       0.029520714    416.11236      1512.3713      3375         
      6350  -56.509915      0.28209517    -56.22782       0.029520714    242.48702     -6.0758189      3375         
      6360  -56.585993      0.3280877     -56.257905      0.029520714    282.02188     -2065.4597      3375         
[...]
     48420  -56.541592      0.51266915    -56.028923      0.029520714    440.68679     -66.405334      3375         
     48430  -56.469286      0.44202317    -56.027262      0.029520714    379.96001      868.52722      3375         
     48440  -56.530477      0.49102676    -56.03945       0.029520714    422.08315     -146.49184      3375         
     48450  -56.418939      0.36961254    -56.049327      0.029520714    317.71634     -807.26367      3375         
     48460  -56.620429      0.56017014    -56.060259      0.029520714    481.51831      121.28841      3375         
     48470  -56.589487      0.51296351    -56.076524      0.029520714    440.93983      923.08204      3375         
     48480  -56.519273      0.43295575    -56.086318      0.029520714    372.16571     -144.6184       3375         
     48490  -56.509517      0.39992589    -56.109591      0.029520714    343.77348     -182.0896       3375         
     48500  -56.592527      0.46528481    -56.127242      0.029520714    399.95555      331.86137      3375         
     48510  -56.524009      0.38147266    -56.142536      0.029520714    327.91121      40.735197      3375         
     48520  -56.586208      0.42024425    -56.165964      0.029520714    361.239       -854.67515      3375         
     48530  -56.665947      0.48031392    -56.185634      0.029520714    412.87447     -884.76092      3375         
     48540  -56.474929      0.26890073    -56.206028      0.029520714    231.14518      783.72499      3375         
     48550  -56.625578      0.41523202    -56.210346      0.029520714    356.93052      1167.3527      3375         
     48560  -56.690401      0.45133591    -56.239065      0.029520714    387.96517     -578.83507      3375         
     48570  -56.574441      0.32139565    -56.253045      0.029520714    276.26944     -841.78319      3375         
     48580  -56.551124      0.2824428     -56.268681      0.029520714    242.78585      723.19856      3375         
     48590  -56.682326      0.40281707    -56.279509      0.029520714    346.25872      556.17303      3375         
     48600  -56.64248       0.35675437    -56.285726      0.029520714    306.66354     -559.46614      3375         
     48610  -56.598535      0.29831369    -56.300222      0.029520714    256.42835     -234.45575      3375         
     48620  -56.688927      0.37649624    -56.312431      0.029520714    323.63352      652.94927      3375         
     48630  -56.59805       0.28185045    -56.316199      0.029520714    242.27666      77.04793       3375         
     48640  -56.626143      0.30284572    -56.323297      0.029520714    260.32405     -842.05224      3375         
     48650  -56.720037      0.38741372    -56.332624      0.029520714    333.01811     -381.13947      3375         
     48660  -56.674754      0.34384576    -56.330908      0.029520714    295.5674       633.56297      3375         
     48670  -56.651328      0.31373201    -56.337596      0.029520714    269.68183      186.17812      3375         
     48680  -56.628805      0.28711271    -56.341692      0.029520714    246.80007     -555.40823      3375         
     48690  -56.677607      0.3338281     -56.343778      0.029520714    286.95628      183.30477      3375         
     48700  -56.612017      0.26495785    -56.347059      0.029520714    227.7559       1070.6243      3375         
     48710  -56.751795      0.41215051    -56.339644      0.029520714    354.28168     -256.83099      3375         
     48720  -56.590495      0.24717966    -56.343315      0.029520714    212.4739      -1304.698       3375         
     48730  -56.653037      0.30723087    -56.345806      0.029520714    264.0935       215.40414      3375         
     48740  -56.717467      0.37614292    -56.341324      0.029520714    323.32981      1142.5927      3375         
     48750  -56.644178      0.30359709    -56.340581      0.029520714    260.96992     -138.86229      3375         
     48760  -56.64117       0.30480784    -56.336362      0.029520714    262.01067     -656.88367      3375         
     48770  -56.694005      0.35556799    -56.338437      0.029520714    305.64374      169.82202      3375         
     48780  -56.69584       0.36400409    -56.331836      0.029520714    312.89535      83.412272      3375         
     48790  -56.566222      0.23700224    -56.32922       0.029520714    203.72546     -628.69566      3375         
     48800  -56.691546      0.36329173    -56.328254      0.029520714    312.28302     -650.02443      3375         
     48810  -56.639403      0.31035303    -56.32905       0.029520714    266.77728      1188.1149      3375         
     48820  -56.644654      0.33098381    -56.31367       0.029520714    284.51136      1344.2808      3375         
     48830  -56.646096      0.33502173    -56.311075      0.029520714    287.98233     -1015.8064      3375         
     48840  -56.649989      0.33891955    -56.31107       0.029520714    291.33286     -898.08161      3375         
     48850  -56.647326      0.3412846     -56.306041      0.029520714    293.36584      1079.9823      3375         
     48860  -56.594027      0.29966431    -56.294362      0.029520714    257.58933      373.10791      3375         
     48870  -56.617572      0.32262411    -56.294948      0.029520714    277.32541     -1577.4602      3375         
     48880  -56.645326      0.36248392    -56.282842      0.029520714    311.58862     -511.42561      3375         
     48890  -56.637371      0.35826454    -56.279106      0.029520714    307.96168      1390.865       3375         
     48900  -56.59306       0.32979267    -56.263268      0.029520714    283.48745      721.64522      3375         
     48910  -56.66044       0.40815721    -56.252283      0.029520714    350.84907     -978.04476      3375         
     48920  -56.679893      0.44166126    -56.238232      0.029520714    379.64891     -609.22213      3375         
     48930  -56.433148      0.20816523    -56.224983      0.029520714    178.93737      889.16337      3375         
     48940  -56.642424      0.44113448    -56.20129       0.029520714    379.19609     -34.955075      3375         
     48950  -56.612915      0.44037875    -56.172537      0.029520714    378.54647     -955.254        3375         
     48960  -56.568511      0.42480597    -56.143705      0.029520714    365.16022      428.78382      3375         
     48970  -56.509555      0.4252134     -56.084342      0.029520714    365.51045      1861.6621      3375         
     48980  -56.703955      0.66491001    -56.039045      0.029520714    571.55197     -162.37631      3375         
     48990  -56.318461      0.32162477    -55.996837      0.029520714    276.46639     -1839.1968      3375         
     49000  -56.452242      0.49755675    -55.954685      0.029520714    427.69628     -265.98618      3375         
     49010  -56.691795      0.77561446    -55.91618       0.029520714    666.71273      834.74265      3375         
     49020  -56.31849       0.43849179    -55.879999      0.029520714    376.92446     -688.76436      3375         
     49030  -56.381902      0.51752702    -55.864375      0.029520714    444.86259     -858.88867      3375         
     49040  -56.485114      0.62902335    -55.856091      0.029520714    540.70405      1305.9351      3375         
     49050  -56.399129      0.56753468    -55.831594      0.029520714    487.84882      1505.6964      3375         
     49060  -56.356934      0.51930965    -55.837624      0.029520714    446.39492     -461.08915      3375         
     49070  -56.555037      0.70706022    -55.847977      0.029520714    607.78399     -1010.8484      3375         
     49080  -56.308236      0.44306678    -55.865169      0.029520714    380.85709      369.17929      3375         
     49090  -56.26056       0.38741518    -55.873145      0.029520714    333.01937      105.50046      3375         
     49100  -56.66549       0.76126665    -55.904223      0.029520714    654.37946     -1679.5837      3375         
     49110  -56.370461      0.43824272    -55.932219      0.029520714    376.71036     -105.70609      3375         
     49120  -56.364834      0.39839686    -55.966437      0.029520714    342.45914      2191.0749      3375         
     49130  -56.535174      0.55048565    -55.984688      0.029520714    473.19359      1074.5005      3375         
     49140  -56.630477      0.60350121    -56.026975      0.029520714    518.76539     -1613.9081      3375         
     49150  -56.520341      0.45057099    -56.06977       0.029520714    387.30765     -1335.4485      3375         
     49160  -56.492364      0.39429901    -56.098065      0.029520714    338.93665      423.98646      3375         
     49170  -56.607626      0.48594995    -56.121676      0.029520714    417.71915      178.93018      3375         
     49180  -56.407587      0.26093817    -56.146649      0.029520714    224.30062     -213.53913      3375         
     49190  -56.690566      0.5222553     -56.168311      0.029520714    448.92698      829.1758       3375         
     49200  -56.594384      0.41028478    -56.184099      0.029520714    352.67791      1427.9309      3375         
     49210  -56.656584      0.4573312     -56.199253      0.029520714    393.11868     -480.70289      3375         
     49220  -56.539451      0.31931879    -56.220132      0.029520714    274.48419     -1438.9182      3375         
     49230  -56.584568      0.3555438     -56.229025      0.029520714    305.62295     -97.592847      3375         
     49240  -56.684453      0.44165495    -56.242798      0.029520714    379.64349      610.29792      3375         
     49250  -56.608807      0.35247623    -56.256331      0.029520714    302.98609     -584.84212      3375         
     49260  -56.611845      0.349812      -56.262033      0.029520714    300.69593     -872.57034      3375         
     49270  -56.611858      0.32564559    -56.286212      0.029520714    279.92266      1081.362       3375         
     49280  -56.669244      0.39722275    -56.272022      0.029520714    341.44988      1251.6291      3375         
     49290  -56.540412      0.25423996    -56.286172      0.029520714    218.54288     -544.71625      3375         
     49300  -56.666359      0.37169651    -56.294663      0.029520714    319.50771     -815.36917      3375         
     49310  -56.669087      0.36681265    -56.302274      0.029520714    315.30958      393.12049      3375         
     49320  -56.609107      0.30217281    -56.306934      0.029520714    259.74562      293.6001       3375         
     49330  -56.728557      0.4165801     -56.311977      0.029520714    358.08933     -913.78701      3375         
     49340  -56.612302      0.29280729    -56.319495      0.029520714    251.69509     -224.40927      3375         
     49350  -56.643276      0.31566997    -56.327606      0.029520714    271.34769      1289.9274      3375         
     49360  -56.62488       0.30326991    -56.32161       0.029520714    260.68868      793.62816      3375         
     49370  -56.737243      0.40139603    -56.335847      0.029520714    345.0372      -1523.6283      3375         
     49380  -56.635499      0.30071151    -56.334787      0.029520714    258.48949     -918.95394      3375         
     49390  -56.695264      0.35238856    -56.342875      0.029520714    302.91073      850.42052      3375         
     49400  -56.713659      0.3689626     -56.344697      0.029520714    317.15765      525.89825      3375         
     49410  -56.597151      0.25037721    -56.346774      0.029520714    215.22249     -594.07211      3375         
     49420  -56.727175      0.37446801    -56.352707      0.029520714    321.89006     -294.57783      3375         
     49430  -56.643604      0.282615      -56.360989      0.029520714    242.93387      1053.1918      3375         
     49440  -56.661837      0.3087461     -56.353091      0.029520714    265.39598      668.12537      3375         
     49450  -56.630401      0.27127477    -56.359126      0.029520714    233.18589     -742.12697      3375         
     49460  -56.778639      0.41695251    -56.361686      0.029520714    358.40944     -686.62591      3375         
     49470  -56.599849      0.23863158    -56.361218      0.029520714    205.12603      429.08747      3375         
     49480  -56.609085      0.24464258    -56.364443      0.029520714    210.29304     -200.28491      3375         
     49490  -56.745935      0.38601623    -56.359918      0.029520714    331.81683     -687.37128      3375         
     49500  -56.632796      0.27146795    -56.361328      0.029520714    233.35194      392.20423      3375         
     49510  -56.702514      0.34705762    -56.355457      0.029520714    298.32829      763.74267      3375         
     49520  -56.646001      0.29083494    -56.355166      0.029520714    249.99967     -61.676472      3375         
     49530  -56.612807      0.26808701    -56.34472       0.029520714    230.44571     -711.44141      3375         
     49540  -56.652061      0.31264792    -56.339413      0.029520714    268.74996      44.777896      3375         
     49550  -56.760706      0.42919427    -56.331512      0.029520714    368.93237      722.26019      3375         
     49560  -56.655672      0.34657149    -56.3091        0.029520714    297.91041      28.833874      3375         
     49570  -56.620059      0.32075955    -56.299299      0.029520714    275.72265     -571.02217      3375         
     49580  -56.685859      0.39474405    -56.291115      0.029520714    339.31921      98.642985      3375         
     49590  -56.530945      0.26759113    -56.263354      0.029520714    230.01946      552.75361      3375         
     49600  -56.719376      0.47260233    -56.246774      0.029520714    406.24564     -376.31452      3375         
     49610  -56.607675      0.38230522    -56.225369      0.029520714    328.62688     -541.70349      3375         
     49620  -56.542836      0.33775509    -56.205081      0.029520714    290.3319       352.29293      3375         
     49630  -56.579321      0.39852085    -56.1808        0.029520714    342.56572      192.42538      3375         
     49640  -56.668719      0.50515479    -56.163564      0.029520714    434.2275      -836.43056      3375         
     49650  -56.535801      0.3982221     -56.137579      0.029520714    342.30892     -6.8291147      3375         
     49660  -56.436478      0.31739182    -56.119086      0.029520714    272.82777      1005.1457      3375         
     49670  -56.537164      0.43746422    -56.099699      0.029520714    376.04117      257.48282      3375         
     49680  -56.456887      0.37138028    -56.085507      0.029520714    319.23588     -44.02368       3375         
     49690  -56.648572      0.58073595    -56.067836      0.029520714    499.19653     -145.66482      3375         
     49700  -56.503386      0.44583098    -56.057555      0.029520714    383.23318     -183.24673      3375         
     49710  -56.37761       0.33108069    -56.04653       0.029520714    284.59463     -44.967519      3375         
     49720  -56.577881      0.53950599    -56.038375      0.029520714    463.75555     -609.83919      3375         
     49730  -56.556866      0.52251002    -56.034356      0.029520714    449.14593     -288.21001      3375         
     49740  -56.477343      0.44480607    -56.032537      0.029520714    382.35217      680.45883      3375         
     49750  -56.559371      0.52064868    -56.038722      0.029520714    447.54595      172.61391      3375         
     49760  -56.617216      0.56691869    -56.050297      0.029520714    487.31932     -395.81704      3375         
     49770  -56.275924      0.21788693    -56.058037      0.029520714    187.29407      737.64138      3375         
     49780  -56.610013      0.5432164     -56.066796      0.029520714    466.94499      61.668201      3375         
     49790  -56.658545      0.56790555    -56.090639      0.029520714    488.16761     -796.04251      3375         
     49800  -56.426824      0.31328311    -56.113541      0.029520714    269.29596      45.076595      3375         
     49810  -56.656943      0.5116772     -56.145266      0.029520714    439.83412      300.59094      3375         
     49820  -56.60184       0.43164335    -56.170197      0.029520714    371.03758      257.55006      3375         
     49830  -56.509202      0.30719689    -56.202005      0.029520714    264.06429      35.895155      3375         
     49840  -56.539275      0.31051737    -56.228758      0.029520714    266.91855     -254.61162      3375         
     49850  -56.742899      0.4886756     -56.254224      0.029520714    420.0621       72.080271      3375         
     49860  -56.544592      0.25747598    -56.287116      0.029520714    221.32454      14.523706      3375         
     49870  -56.607068      0.30073985    -56.306328      0.029520714    258.51386     -979.65418      3375         
     49880  -56.735834      0.40569787    -56.330136      0.029520714    348.73504     -48.80846       3375         
     49890  -56.56506       0.22173579    -56.343324      0.029520714    190.60252      1150.0802      3375         
     49900  -56.657767      0.30710954    -56.350658      0.029520714    263.9892      -76.789224      3375         
     49910  -56.661482      0.29999639    -56.361486      0.029520714    257.87478     -366.32585      3375         
     49920  -56.712724      0.34342327    -56.3693        0.029520714    295.20423      689.2595       3375         
     49930  -56.624964      0.24986909    -56.375095      0.029520714    214.78571      315.83584      3375         
     49940  -56.736298      0.35708676    -56.379212      0.029520714    306.94927     -727.5441       3375         
     49950  -56.66134       0.28040765    -56.380933      0.029520714    241.03644     -547.19538      3375         
     49960  -56.655549      0.27170181    -56.383847      0.029520714    233.55296     -242.65221      3375         
     49970  -56.741424      0.35636185    -56.385062      0.029520714    306.32614      304.62533      3375         
     49980  -56.642797      0.26121441    -56.381582      0.029520714    224.53807      683.31321      3375         
     49990  -56.790649      0.40754856    -56.383101      0.029520714    350.32587     -236.50305      3375         
     50000  -56.657338      0.27363388    -56.383704      0.029520714    235.21376      47.340817      3375         
Loop time of 71.8788 on 4 procs for 50000 steps with 10 atoms

Performance: 30.051 ns/day, 0.799 hours/ns, 695.615 timesteps/s, 6.956 katom-step/s
172.8% CPU use with 4 MPI tasks x no OpenMP threads

MPI task timing breakdown:
Section |  min time  |  avg time  |  max time  |%varavg| %total
---------------------------------------------------------------
Pair    | 51.506     | 53.381     | 54.972     |  21.0 | 74.27
Neigh   | 0.00055529 | 0.00057059 | 0.00058587 |   0.0 |  0.00
Comm    | 13.188     | 14.508     | 16.054     |  33.5 | 20.18
Output  | 0.56234    | 0.57637    | 0.60493    |   2.2 |  0.80
Modify  | 2.8085     | 3.102      | 3.3989     |  15.8 |  4.32
Other   |            | 0.3113     |            |       |  0.43

Nlocal:            2.5 ave           3 max           2 min
Histogram: 2 0 0 0 0 0 0 0 0 2
Nghost:           60.5 ave          62 max          59 min
Histogram: 1 0 0 1 0 0 1 0 0 1
Neighs:              0 ave           0 max           0 min
Histogram: 4 0 0 0 0 0 0 0 0 0
FullNghs:         22.5 ave          27 max          18 min
Histogram: 2 0 0 0 0 0 0 0 0 2

Total # of neighbors = 90
Ave neighs/atom = 9
Neighbor list builds = 87
Dangerous builds = 0

write_data	restart.data
System init for write_data ...
Generated 0 of 1 mixed pair_coeff terms from geometric mixing rule
#
Total wall time: 0:01:14
