LAMMPS data file via write_data, version 2 Aug 2023, timestep = 50000, units = metal

10 atoms
2 atom types

0 15 xlo xhi
0 15 ylo yhi
0 15 zlo zhi

Masses

1 12
2 2

Atoms # atomic

6 2 9.121515858076126 9.016115346662152 7.1803144099557015 0 0 0
7 2 6.8890192729212885 7.2734597427521 6.081432596036825 0 0 0
8 2 7.676316655069338 8.156583700464765 8.848554733526674 0 0 0
9 2 6.2662391946073495 5.457435698598279 7.899904315494769 0 0 0
1 1 8.441641345201234 8.633291289780376 6.434643627283037 0 0 0
2 1 7.551529756406553 7.698828616702498 6.788825445988239 0 0 0
3 1 7.312366387147528 7.408322809503933 8.144972007471853 0 0 0
4 1 6.697246676953567 6.328315834598707 8.61751955932363 0 0 0
5 2 8.68463856973367 8.867744802491499 5.3198652405011835 0 0 0
10 2 6.469565456124321 6.0361094069755925 9.643164862609392 0 0 0

Velocities

6 -10.136935332101515 -31.92019385821075 -14.281084127264037
7 0.072777799303417 8.842632549781898 28.763947211884254
8 20.5349720809447 -0.024315159820083965 -6.694646983379792
9 5.239092141851947 17.065372922768805 16.431969804719262
1 -6.950613374767144 -3.071713410492032 -2.554529857762657
2 -2.4979489893719165 1.0594273266672174 -1.152150453658471
3 1.695283331538584 1.6337380716629852 -4.79541515671876
4 5.18068184326523 3.1073889597837683 5.019546977942317
5 -0.5633392803695915 -5.149611011875971 1.5424480561695717
10 0.28901572638759815 -5.186931128373097 -4.867343020942245
