LAMMPS data file via write_data, version 2 Aug 2023, timestep = 50000, units = metal

10 atoms
2 atom types

0 15 xlo xhi
0 15 ylo yhi
0 15 zlo zhi

Masses

1 12
2 2

Atoms # atomic

6 2 6.177548438985282 5.971858798034171 6.21279709644955 0 0 0
1 1 6.938036065569624 5.814041856270057 6.979798370794225 0 0 0
5 2 7.108471698950579 4.726125074068501 7.073566518789262 0 0 0
7 2 8.202037734108131 6.5106773259333375 8.454985310867936 0 0 0
2 1 7.510542870707892 6.7824217912651905 7.661008641710514 0 0 0
8 2 6.624047463387612 8.519361358687393 6.593784786253403 0 0 0
3 1 7.40570153055671 8.238807138301928 7.387786959199965 0 0 0
9 2 8.851017057169791 8.821106152934929 8.740366869308579 0 0 0
10 2 7.9365274129028585 10.27084169143425 7.7833278222519455 0 0 0
4 1 8.183111232378073 9.231400814229417 7.976434627395444 0 0 0

Velocities

6 11.205579472399823 -0.43990608806327086 18.800190301351186
1 3.7437245526683425 0.24598896801080583 -7.961338988411428
5 -10.243996852009179 -0.4114139943771959 -8.296815907605877
7 0.7314285653827363 15.951235465688862 4.485251644699614
2 -1.4676728107515407 -4.16471896586039 5.8803994210391926
8 6.440262367398545 6.30950653749074 8.90532591682157
3 -6.601879556061986 2.6311372911849116 -1.8047973420935544
9 0.5857928794630662 -1.059705811885088 10.819133985391327
10 3.5782682101539964 8.645308423151903 8.010962682467284
4 2.2762720403471226 -3.544911382002613 -3.2349378610551036
