ITEM: TIMESTEP
0
ITEM: NUMBER OF ATOMS
10
ITEM: BOX BOUNDS pp pp pp
0.0000000000000000e+00 1.5000000000000000e+01
0.0000000000000000e+00 1.5000000000000000e+01
0.0000000000000000e+00 1.5000000000000000e+01
ITEM: ATOMS id type x y z
3 1 7.90616 7.05533 8.18747
2 1 6.65358 7.31466 7.4479
6 2 7.21335 8.11635 5.57048
4 1 9.00993 7.78193 8.18907
7 2 5.77789 6.99761 7.99414
8 2 7.84172 6.23611 8.93931
9 2 9.05612 8.63614 7.51703
1 1 6.42306 7.80186 6.22937
5 2 5.3871 7.9219 5.78305
10 2 9.89148 7.58921 8.7621
ITEM: TIMESTEP
100
ITEM: NUMBER OF ATOMS
10
ITEM: BOX BOUNDS pp pp pp
0.0000000000000000e+00 1.5000000000000000e+01
0.0000000000000000e+00 1.5000000000000000e+01
0.0000000000000000e+00 1.5000000000000000e+01
ITEM: ATOMS id type x y z
3 1 7.94749 7.06374 8.15709
2 1 6.57251 7.3281 7.61003
6 2 7.28556 7.84234 5.74466
4 1 9.03317 7.86729 7.89631
7 2 5.81482 7.07156 8.35521
8 2 8.07313 6.18036 8.84782
9 2 8.98628 8.76096 7.32685
1 1 6.38752 7.73387 6.36089
5 2 5.42586 7.91165 6.00269
10 2 9.89416 7.49519 8.46586
ITEM: TIMESTEP
200
ITEM: NUMBER OF ATOMS
10
ITEM: BOX BOUNDS pp pp pp
0.0000000000000000e+00 1.5000000000000000e+01
0.0000000000000000e+00 1.5000000000000000e+01
0.0000000000000000e+00 1.5000000000000000e+01
ITEM: ATOMS id type x y z
3 1 7.99585 7.10123 8.17096
2 1 6.61051 7.2936 7.71679
6 2 7.07882 7.85096 5.69945
4 1 9.07161 7.8217 7.78007
7 2 5.75963 7.12615 8.43322
8 2 8.12122 6.33659 8.8985
9 2 8.92719 8.70254 7.05696
1 1 6.29337 7.70219 6.44359
5 2 5.28008 7.94777 6.03486
10 2 10.129 7.74367 8.09753
ITEM: TIMESTEP
300
ITEM: NUMBER OF ATOMS
10
ITEM: BOX BOUNDS pp pp pp
0.0000000000000000e+00 1.5000000000000000e+01
0.0000000000000000e+00 1.5000000000000000e+01
0.0000000000000000e+00 1.5000000000000000e+01
ITEM: ATOMS id type x y z
3 1 8.02973 7.19245 8.17048
2 1 6.69379 7.31614 7.73365
6 2 6.83602 7.95177 5.69679
4 1 9.07212 7.78243 7.6522
7 2 5.89425 7.06892 8.36649
8 2 8.23677 6.48046 9.01752
9 2 8.94025 8.50089 6.90589
1 1 6.19834 7.68115 6.53774
5 2 5.15756 7.66613 6.3791
10 2 10.0953 7.71876 7.95879
ITEM: TIMESTEP
400
ITEM: NUMBER OF ATOMS
10
ITEM: BOX BOUNDS pp pp pp
0.0000000000000000e+00 1.5000000000000000e+01
0.0000000000000000e+00 1.5000000000000000e+01
0.0000000000000000e+00 1.5000000000000000e+01
ITEM: ATOMS id type x y z
3 1 8.06113 7.22378 8.17269
2 1 6.65319 7.31121 7.81409
6 2 6.65823 7.93492 5.69471
4 1 9.12497 7.81094 7.45764
7 2 6.04193 6.95408 8.68828
8 2 8.32376 6.64441 9.07158
9 2 9.05474 8.49895 6.56398
1 1 6.15192 7.64765 6.61896
5 2 5.02901 7.6033 6.53271
10 2 10.0691 7.62284 7.95746
ITEM: TIMESTEP
500
ITEM: NUMBER OF ATOMS
10
ITEM: BOX BOUNDS pp pp pp
0.0000000000000000e+00 1.5000000000000000e+01
0.0000000000000000e+00 1.5000000000000000e+01
0.0000000000000000e+00 1.5000000000000000e+01
ITEM: ATOMS id type x y z
3 1 8.17003 7.26483 8.10726
2 1 6.66257 7.29685 7.88529
6 2 6.68973 7.682 5.86314
4 1 9.08815 7.80523 7.34972
7 2 6.06454 7.0784 8.77508
8 2 8.47012 6.84157 9.03286
9 2 8.89591 8.39206 6.40756
1 1 6.04268 7.58581 6.7477
5 2 5.01024 7.77634 6.63971
10 2 10.2129 7.73333 7.63083
ITEM: TIMESTEP
600
ITEM: NUMBER OF ATOMS
10
ITEM: BOX BOUNDS pp pp pp
0.0000000000000000e+00 1.5000000000000000e+01
0.0000000000000000e+00 1.5000000000000000e+01
0.0000000000000000e+00 1.5000000000000000e+01
ITEM: ATOMS id type x y z
3 1 8.21422 7.32648 8.04834
2 1 6.74093 7.38577 8.01155
6 2 6.53302 7.44745 5.91723
4 1 9.10523 7.81991 7.19792
7 2 6.13207 7.29999 8.89903
8 2 8.60658 6.75604 8.95815
9 2 8.59749 8.40054 6.46333
1 1 5.98772 7.49784 6.84638
5 2 4.85604 7.55401 6.93057
10 2 10.1102 7.58195 7.09554
ITEM: TIMESTEP
700
ITEM: NUMBER OF ATOMS
10
ITEM: BOX BOUNDS pp pp pp
0.0000000000000000e+00 1.5000000000000000e+01
0.0000000000000000e+00 1.5000000000000000e+01
0.0000000000000000e+00 1.5000000000000000e+01
ITEM: ATOMS id type x y z
3 1 8.30214 7.2824 8.01548
2 1 6.78846 7.48607 8.0575
6 2 6.10421 7.07035 5.98776
4 1 8.97618 7.87369 6.95858
7 2 6.51051 7.66287 9.13231
8 2 8.71031 6.70881 8.86946
9 2 8.60261 8.48548 6.1645
1 1 5.96907 7.39895 7.04991
5 2 4.91778 7.42725 7.27713
10 2 10.0634 7.61856 6.96902
ITEM: TIMESTEP
800
ITEM: NUMBER OF ATOMS
10
ITEM: BOX BOUNDS pp pp pp
0.0000000000000000e+00 1.5000000000000000e+01
0.0000000000000000e+00 1.5000000000000000e+01
0.0000000000000000e+00 1.5000000000000000e+01
ITEM: ATOMS id type x y z
3 1 8.26252 7.39879 7.88731
2 1 6.89747 7.46981 8.1464
6 2 6.1638 7.0165 6.28683
4 1 8.96272 7.80207 6.82429
7 2 6.62256 7.69615 9.16413
8 2 8.93842 7.03061 8.61017
9 2 8.4105 8.28658 5.90921
1 1 5.89087 7.34189 7.24338
5 2 4.84543 7.39429 7.5028
10 2 10.0618 7.72048 6.80751
ITEM: TIMESTEP
900
ITEM: NUMBER OF ATOMS
10
ITEM: BOX BOUNDS pp pp pp
0.0000000000000000e+00 1.5000000000000000e+01
0.0000000000000000e+00 1.5000000000000000e+01
0.0000000000000000e+00 1.5000000000000000e+01
ITEM: ATOMS id type x y z
3 1 8.34969 7.48282 7.8378
2 1 6.92139 7.46849 8.25414
6 2 6.13442 7.11233 6.2693
4 1 8.86789 7.76626 6.66694
7 2 6.60638 7.56927 9.32531
8 2 9.01541 7.26679 8.7135
9 2 8.33252 8.03908 5.79563
1 1 5.90816 7.32001 7.37335
5 2 4.83084 7.28867 7.56846
10 2 9.92165 7.71833 6.42337
ITEM: TIMESTEP
1000
ITEM: NUMBER OF ATOMS
10
ITEM: BOX BOUNDS pp pp pp
0.0000000000000000e+00 1.5000000000000000e+01
0.0000000000000000e+00 1.5000000000000000e+01
0.0000000000000000e+00 1.5000000000000000e+01
ITEM: ATOMS id type x y z
5 2 4.94188 7.28548 7.98155
3 1 8.40149 7.53515 7.87708
2 1 6.96582 7.48222 8.24959
6 2 5.9589 7.08856 6.35356
4 1 8.79696 7.73423 6.53692
7 2 6.81185 7.58941 9.30782
8 2 9.17509 7.46032 8.67172
9 2 7.98237 7.86053 5.80326
1 1 5.90174 7.27446 7.41543
10 2 9.85781 7.77935 6.29702
ITEM: TIMESTEP
1100
ITEM: NUMBER OF ATOMS
10
ITEM: BOX BOUNDS pp pp pp
0.0000000000000000e+00 1.5000000000000000e+01
0.0000000000000000e+00 1.5000000000000000e+01
0.0000000000000000e+00 1.5000000000000000e+01
ITEM: ATOMS id type x y z
5 2 4.94189 7.13121 8.07555
3 1 8.39473 7.59011 7.72301
2 1 7.00227 7.53332 8.23652
6 2 5.86008 6.9961 6.59336
4 1 8.77312 7.72277 6.48441
7 2 6.95074 7.69791 9.34151
8 2 9.15951 7.46369 8.4689
9 2 8.0763 7.8851 5.64387
1 1 5.87586 7.20356 7.6529
10 2 9.85957 7.74743 6.18473
ITEM: TIMESTEP
1200
ITEM: NUMBER OF ATOMS
10
ITEM: BOX BOUNDS pp pp pp
0.0000000000000000e+00 1.5000000000000000e+01
0.0000000000000000e+00 1.5000000000000000e+01
0.0000000000000000e+00 1.5000000000000000e+01
ITEM: ATOMS id type x y z
5 2 4.91245 7.31782 8.32192
3 1 8.34452 7.57392 7.60744
2 1 7.09309 7.5906 8.34391
6 2 6.00545 6.65566 6.78084
4 1 8.64909 7.72697 6.33103
7 2 7.16358 8.05094 9.37863
8 2 9.16964 7.45448 8.336
9 2 7.93293 7.93265 5.58397
1 1 5.95672 7.10357 7.78621
10 2 9.67948 7.8381 6.07611
ITEM: TIMESTEP
1300
ITEM: NUMBER OF ATOMS
10
ITEM: BOX BOUNDS pp pp pp
0.0000000000000000e+00 1.5000000000000000e+01
0.0000000000000000e+00 1.5000000000000000e+01
0.0000000000000000e+00 1.5000000000000000e+01
ITEM: ATOMS id type x y z
5 2 5.13614 7.24699 8.44645
3 1 8.44019 7.61575 7.59017
2 1 7.1522 7.6703 8.36535
6 2 5.99862 6.46692 6.97637
4 1 8.45273 7.70676 6.21445
7 2 7.19811 8.17956 9.27255
8 2 9.31688 7.56602 8.2472
9 2 7.54655 7.91801 5.60155
1 1 6.04077 7.0384 7.94515
10 2 9.41234 7.65522 5.65413
ITEM: TIMESTEP
1400
ITEM: NUMBER OF ATOMS
10
ITEM: BOX BOUNDS pp pp pp
0.0000000000000000e+00 1.5000000000000000e+01
0.0000000000000000e+00 1.5000000000000000e+01
0.0000000000000000e+00 1.5000000000000000e+01
ITEM: ATOMS id type x y z
5 2 5.2305 6.99501 8.7812
3 1 8.41848 7.73295 7.51184
2 1 7.21707 7.66805 8.2936
6 2 5.80869 6.57904 7.16775
4 1 8.42487 7.66763 6.16871
7 2 7.27698 8.07219 9.37022
8 2 9.42106 7.79473 7.93352
9 2 7.40285 7.71291 5.719
1 1 6.06017 7.0156 8.09874
10 2 9.26036 7.5607 5.48
ITEM: TIMESTEP
1500
ITEM: NUMBER OF ATOMS
10
ITEM: BOX BOUNDS pp pp pp
0.0000000000000000e+00 1.5000000000000000e+01
0.0000000000000000e+00 1.5000000000000000e+01
0.0000000000000000e+00 1.5000000000000000e+01
ITEM: ATOMS id type x y z
5 2 5.36611 7.08694 9.01179
3 1 8.3904 7.74184 7.41942
2 1 7.29843 7.63543 8.37196
6 2 5.81596 6.51265 7.2314
4 1 8.28557 7.61456 6.09945
7 2 7.46269 8.16282 9.31459
8 2 9.34181 8.0422 7.85648
9 2 7.44463 7.44363 5.51139
1 1 6.10876 7.02595 8.18136
10 2 9.19382 7.86507 5.53019
ITEM: TIMESTEP
1600
ITEM: NUMBER OF ATOMS
10
ITEM: BOX BOUNDS pp pp pp
0.0000000000000000e+00 1.5000000000000000e+01
0.0000000000000000e+00 1.5000000000000000e+01
0.0000000000000000e+00 1.5000000000000000e+01
ITEM: ATOMS id type x y z
5 2 5.48987 6.91084 9.13847
3 1 8.31798 7.78966 7.33532
2 1 7.36465 7.66506 8.46889
6 2 5.88417 6.53046 7.34403
4 1 8.21892 7.592 5.99287
7 2 7.60883 8.21594 9.34397
8 2 9.30357 8.10117 7.73694
9 2 7.25826 7.35972 5.39902
1 1 6.17689 7.01082 8.28751
10 2 9.1087 7.75664 5.41901
ITEM: TIMESTEP
1700
ITEM: NUMBER OF ATOMS
10
ITEM: BOX BOUNDS pp pp pp
0.0000000000000000e+00 1.5000000000000000e+01
0.0000000000000000e+00 1.5000000000000000e+01
0.0000000000000000e+00 1.5000000000000000e+01
ITEM: ATOMS id type x y z
5 2 5.61504 6.96675 9.2945
3 1 8.39425 7.85642 7.26329
2 1 7.37434 7.63449 8.3433
6 2 5.97722 6.39234 7.59626
4 1 8.08371 7.61133 5.99367
7 2 7.56122 8.28496 9.3026
8 2 9.3881 8.1839 7.48316
9 2 7.05881 7.36686 5.8559
1 1 6.27447 6.97324 8.4431
10 2 8.76303 7.57232 5.09636
ITEM: TIMESTEP
1800
ITEM: NUMBER OF ATOMS
10
ITEM: BOX BOUNDS pp pp pp
0.0000000000000000e+00 1.5000000000000000e+01
0.0000000000000000e+00 1.5000000000000000e+01
0.0000000000000000e+00 1.5000000000000000e+01
ITEM: ATOMS id type x y z
5 2 5.84218 6.94518 9.51418
3 1 8.35592 7.83468 7.1995
2 1 7.45411 7.79516 8.36948
6 2 6.06564 6.14074 7.83559
4 1 7.88055 7.59733 5.92083
7 2 7.73113 8.47684 9.17139
8 2 9.42655 8.12822 7.3595
9 2 6.81535 7.37117 5.69805
1 1 6.41712 6.88205 8.54041
10 2 8.59694 7.50253 5.12895
ITEM: TIMESTEP
1900
ITEM: NUMBER OF ATOMS
10
ITEM: BOX BOUNDS pp pp pp
0.0000000000000000e+00 1.5000000000000000e+01
0.0000000000000000e+00 1.5000000000000000e+01
0.0000000000000000e+00 1.5000000000000000e+01
ITEM: ATOMS id type x y z
5 2 6.03951 6.9621 9.59653
3 1 8.21503 7.79194 7.11278
2 1 7.52877 7.8125 8.37199
6 2 6.3393 6.0681 7.94682
4 1 7.76661 7.57864 5.90745
7 2 7.76504 8.5395 9.11254
8 2 9.25999 8.12318 7.17571
9 2 6.75861 7.26476 5.59081
1 1 6.56992 6.91375 8.67236
10 2 8.47957 7.68138 5.07908
ITEM: TIMESTEP
2000
ITEM: NUMBER OF ATOMS
10
ITEM: BOX BOUNDS pp pp pp
0.0000000000000000e+00 1.5000000000000000e+01
0.0000000000000000e+00 1.5000000000000000e+01
0.0000000000000000e+00 1.5000000000000000e+01
ITEM: ATOMS id type x y z
5 2 6.08114 6.94607 9.70278
3 1 8.20447 7.86046 7.08064
2 1 7.58203 7.76798 8.36424
6 2 6.36427 6.11715 8.11614
4 1 7.6816 7.54522 5.85967
7 2 7.87255 8.58023 9.11454
8 2 9.20438 8.27669 7.05976
9 2 6.7131 7.08918 5.77271
1 1 6.64401 6.91956 8.73169
10 2 8.21586 7.65138 4.90567
ITEM: TIMESTEP
2100
ITEM: NUMBER OF ATOMS
10
ITEM: BOX BOUNDS pp pp pp
0.0000000000000000e+00 1.5000000000000000e+01
0.0000000000000000e+00 1.5000000000000000e+01
0.0000000000000000e+00 1.5000000000000000e+01
ITEM: ATOMS id type x y z
5 2 6.46482 6.82625 9.7769
3 1 8.18618 7.99994 6.98611
2 1 7.61727 7.81738 8.36214
6 2 6.24303 6.12776 8.08565
4 1 7.56347 7.46791 5.89131
7 2 8.0833 8.44618 9.07715
8 2 9.25332 8.38523 6.96669
9 2 6.59699 6.96995 6.02258
1 1 6.69854 6.88699 8.76109
10 2 8.08978 7.4313 4.95613
ITEM: TIMESTEP
2200
ITEM: NUMBER OF ATOMS
10
ITEM: BOX BOUNDS pp pp pp
0.0000000000000000e+00 1.5000000000000000e+01
0.0000000000000000e+00 1.5000000000000000e+01
0.0000000000000000e+00 1.5000000000000000e+01
ITEM: ATOMS id type x y z
10 2 7.75016 7.66512 4.82518
5 2 6.48223 6.96223 9.98208
3 1 8.12313 7.93704 6.91898
2 1 7.71185 7.79779 8.34355
6 2 6.40315 6.09525 8.23429
4 1 7.46727 7.48122 5.86889
7 2 8.13485 8.52129 9.08762
8 2 8.99874 8.50424 6.73269
9 2 6.61627 6.75639 5.98144
1 1 6.82085 6.9032 8.8762
ITEM: TIMESTEP
2300
ITEM: NUMBER OF ATOMS
10
ITEM: BOX BOUNDS pp pp pp
0.0000000000000000e+00 1.5000000000000000e+01
0.0000000000000000e+00 1.5000000000000000e+01
0.0000000000000000e+00 1.5000000000000000e+01
ITEM: ATOMS id type x y z
10 2 7.74321 7.66925 4.81936
5 2 6.90694 6.88461 9.99093
3 1 7.97897 7.88802 6.90968
2 1 7.75137 7.85239 8.35441
6 2 6.56397 6.12109 8.39486
4 1 7.28629 7.45422 5.83752
7 2 8.27964 8.59112 9.00675
8 2 8.91282 8.40003 6.61153
9 2 6.44902 6.81227 5.87186
1 1 7.0281 6.92898 8.93068
ITEM: TIMESTEP
2400
ITEM: NUMBER OF ATOMS
10
ITEM: BOX BOUNDS pp pp pp
0.0000000000000000e+00 1.5000000000000000e+01
0.0000000000000000e+00 1.5000000000000000e+01
0.0000000000000000e+00 1.5000000000000000e+01
ITEM: ATOMS id type x y z
10 2 7.38527 7.4046 4.9183
5 2 7.14106 7.00563 10.0168
3 1 8.01679 7.95681 6.83835
2 1 7.78673 7.87833 8.27466
6 2 6.78356 5.94835 8.4774
4 1 7.10281 7.43286 5.92165
7 2 8.21794 8.71816 8.77448
8 2 8.99558 8.43539 6.54896
9 2 6.1665 6.87907 6.21732
1 1 7.16602 6.87013 8.95462
ITEM: TIMESTEP
2500
ITEM: NUMBER OF ATOMS
10
ITEM: BOX BOUNDS pp pp pp
0.0000000000000000e+00 1.5000000000000000e+01
0.0000000000000000e+00 1.5000000000000000e+01
0.0000000000000000e+00 1.5000000000000000e+01
ITEM: ATOMS id type x y z
10 2 7.08306 7.25495 4.87486
1 1 7.34002 6.89042 8.98802
3 1 7.92469 7.92198 6.77429
2 1 7.83289 7.89354 8.21487
6 2 7.03738 5.91354 8.56384
4 1 7.01942 7.44991 5.98354
7 2 8.15576 8.81203 8.76692
8 2 8.79468 8.37344 6.36184
9 2 6.18236 7.00025 6.46776
5 2 7.16867 6.9307 10.0895
ITEM: TIMESTEP
2600
ITEM: NUMBER OF ATOMS
10
ITEM: BOX BOUNDS pp pp pp
0.0000000000000000e+00 1.5000000000000000e+01
0.0000000000000000e+00 1.5000000000000000e+01
0.0000000000000000e+00 1.5000000000000000e+01
ITEM: ATOMS id type x y z
10 2 7.07733 7.33956 4.8989
1 1 7.45363 6.91891 9.00308
3 1 7.85294 7.919 6.80347
2 1 7.8685 7.92486 8.23147
6 2 7.05772 6.04888 8.52207
4 1 6.9087 7.37642 5.97461
7 2 8.32754 8.77106 8.74536
8 2 8.68295 8.4267 6.28403
9 2 5.96636 6.8577 6.28512
5 2 7.50951 6.94096 10.0777
ITEM: TIMESTEP
2700
ITEM: NUMBER OF ATOMS
10
ITEM: BOX BOUNDS pp pp pp
0.0000000000000000e+00 1.5000000000000000e+01
0.0000000000000000e+00 1.5000000000000000e+01
0.0000000000000000e+00 1.5000000000000000e+01
ITEM: ATOMS id type x y z
10 2 6.83194 7.60244 4.97064
1 1 7.50342 6.92332 9.00386
3 1 7.81417 7.9292 6.74406
2 1 7.96899 7.89641 8.21902
6 2 7.02011 5.93886 8.7472
4 1 6.83894 7.32228 6.01197
7 2 8.39765 8.81249 8.60231
8 2 8.47327 8.65121 6.22077
9 2 6.06649 6.6591 6.40863
5 2 7.58141 7.12869 10.066
ITEM: TIMESTEP
2800
ITEM: NUMBER OF ATOMS
10
ITEM: BOX BOUNDS pp pp pp
0.0000000000000000e+00 1.5000000000000000e+01
0.0000000000000000e+00 1.5000000000000000e+01
0.0000000000000000e+00 1.5000000000000000e+01
ITEM: ATOMS id type x y z
10 2 6.70577 7.27074 4.92935
1 1 7.62213 6.93014 9.05627
3 1 7.67401 8.01889 6.69293
2 1 7.96695 7.90237 8.15249
6 2 6.94317 6.19699 8.69745
4 1 6.80569 7.2858 6.05743
7 2 8.61299 8.68969 8.61482
8 2 8.38887 8.62644 6.16673
9 2 6.07212 6.72358 6.61474
5 2 7.9884 6.88931 10.1112
ITEM: TIMESTEP
2900
ITEM: NUMBER OF ATOMS
10
ITEM: BOX BOUNDS pp pp pp
0.0000000000000000e+00 1.5000000000000000e+01
0.0000000000000000e+00 1.5000000000000000e+01
0.0000000000000000e+00 1.5000000000000000e+01
ITEM: ATOMS id type x y z
10 2 6.29951 7.40379 5.1127
1 1 7.74499 6.94558 9.01263
3 1 7.65289 7.96942 6.70376
2 1 8.08278 7.92513 8.13309
6 2 7.0592 6.13468 8.71225
4 1 6.67207 7.24357 6.11024
7 2 8.64933 8.81933 8.41414
8 2 8.18763 8.68961 6.05258
9 2 6.05238 6.62334 6.81045
5 2 7.95957 7.04706 10.0286
ITEM: TIMESTEP
3000
ITEM: NUMBER OF ATOMS
10
ITEM: BOX BOUNDS pp pp pp
0.0000000000000000e+00 1.5000000000000000e+01
0.0000000000000000e+00 1.5000000000000000e+01
0.0000000000000000e+00 1.5000000000000000e+01
ITEM: ATOMS id type x y z
1 1 7.9465 6.98774 8.93918
3 1 7.60516 7.90384 6.68994
2 1 8.07571 7.97803 8.07857
6 2 7.28149 6.09769 8.78059
4 1 6.50902 7.1967 6.23352
7 2 8.67956 8.81035 8.36609
8 2 8.15579 8.5822 6.02685
9 2 5.75582 6.65615 6.7805
5 2 8.24123 7.1531 10.0529
10 2 6.19182 7.52261 5.23474
ITEM: TIMESTEP
3100
ITEM: NUMBER OF ATOMS
10
ITEM: BOX BOUNDS pp pp pp
0.0000000000000000e+00 1.5000000000000000e+01
0.0000000000000000e+00 1.5000000000000000e+01
0.0000000000000000e+00 1.5000000000000000e+01
ITEM: ATOMS id type x y z
1 1 8.13992 6.9773 8.9193
3 1 7.49684 7.89233 6.70096
2 1 8.01903 7.99447 8.01941
6 2 7.53037 6.07957 8.87246
4 1 6.42703 7.24669 6.31331
7 2 8.67445 8.85682 8.2586
8 2 8.0144 8.3225 5.84987
9 2 5.70698 6.94918 7.08258
5 2 8.66628 7.17098 9.82004
10 2 6.03456 7.17621 5.28763
ITEM: TIMESTEP
3200
ITEM: NUMBER OF ATOMS
10
ITEM: BOX BOUNDS pp pp pp
0.0000000000000000e+00 1.5000000000000000e+01
0.0000000000000000e+00 1.5000000000000000e+01
0.0000000000000000e+00 1.5000000000000000e+01
ITEM: ATOMS id type x y z
1 1 8.21414 7.00089 8.88294
3 1 7.47135 7.90737 6.59425
2 1 8.11794 7.96937 7.9203
6 2 7.84664 5.98526 8.7488
4 1 6.30836 7.21204 6.4864
7 2 8.52518 8.97118 8.17564
8 2 7.9673 8.47139 5.81499
9 2 5.79261 6.8537 7.40823
5 2 8.5629 7.24859 9.87193
10 2 5.75863 7.15186 5.56599
ITEM: TIMESTEP
3300
ITEM: NUMBER OF ATOMS
10
ITEM: BOX BOUNDS pp pp pp
0.0000000000000000e+00 1.5000000000000000e+01
0.0000000000000000e+00 1.5000000000000000e+01
0.0000000000000000e+00 1.5000000000000000e+01
ITEM: ATOMS id type x y z
1 1 8.28536 7.065 8.81421
3 1 7.35335 7.88937 6.72822
2 1 8.2253 8.03027 7.91456
6 2 7.71017 6.12716 8.61841
4 1 6.21893 7.15688 6.52373
7 2 8.74472 8.97082 7.95469
8 2 7.76728 8.39751 5.8304
9 2 5.68302 6.75097 7.35405
5 2 8.92156 7.10252 9.74938
10 2 5.79965 7.02193 5.49777
ITEM: TIMESTEP
3400
ITEM: NUMBER OF ATOMS
10
ITEM: BOX BOUNDS pp pp pp
0.0000000000000000e+00 1.5000000000000000e+01
0.0000000000000000e+00 1.5000000000000000e+01
0.0000000000000000e+00 1.5000000000000000e+01
ITEM: ATOMS id type x y z
1 1 8.37741 7.11528 8.84705
3 1 7.31378 7.84615 6.66926
2 1 8.24184 7.94078 7.79759
6 2 7.92219 6.1407 8.81278
4 1 6.17132 7.17391 6.59828
7 2 8.79674 8.88568 7.90237
8 2 7.45508 8.61326 5.90254
9 2 5.8068 6.45901 7.37597
5 2 8.99749 7.35414 9.67108
10 2 5.51956 7.31052 5.75116
ITEM: TIMESTEP
3500
ITEM: NUMBER OF ATOMS
10
ITEM: BOX BOUNDS pp pp pp
0.0000000000000000e+00 1.5000000000000000e+01
0.0000000000000000e+00 1.5000000000000000e+01
0.0000000000000000e+00 1.5000000000000000e+01
ITEM: ATOMS id type x y z
1 1 8.42921 7.1067 8.78768
3 1 7.22597 7.90988 6.66428
2 1 8.21882 7.99399 7.75488
6 2 7.92895 6.16014 9.07015
4 1 6.12435 7.14614 6.7503
7 2 8.98017 8.8026 7.58592
8 2 7.36268 8.58768 5.8365
9 2 5.90407 6.49868 7.58814
5 2 9.41037 7.22668 9.25894
10 2 5.54768 7.00397 5.8065
ITEM: TIMESTEP
3600
ITEM: NUMBER OF ATOMS
10
ITEM: BOX BOUNDS pp pp pp
0.0000000000000000e+00 1.5000000000000000e+01
0.0000000000000000e+00 1.5000000000000000e+01
0.0000000000000000e+00 1.5000000000000000e+01
ITEM: ATOMS id type x y z
1 1 8.55223 7.20886 8.68995
3 1 7.17135 7.83512 6.72572
2 1 8.29781 7.98935 7.65195
6 2 7.93148 6.28696 8.71872
4 1 6.04024 7.12494 6.87962
7 2 8.99731 8.75727 7.45448
8 2 7.17994 8.52442 5.83209
9 2 5.93922 6.40938 7.70061
5 2 9.4639 7.22922 9.35156
10 2 5.24233 7.06315 6.14811
ITEM: TIMESTEP
3700
ITEM: NUMBER OF ATOMS
10
ITEM: BOX BOUNDS pp pp pp
0.0000000000000000e+00 1.5000000000000000e+01
0.0000000000000000e+00 1.5000000000000000e+01
0.0000000000000000e+00 1.5000000000000000e+01
ITEM: ATOMS id type x y z
1 1 8.6487 7.22302 8.60941
3 1 7.10921 7.80845 6.75079
2 1 8.31972 7.98838 7.54327
6 2 8.18444 6.25995 8.66379
4 1 5.97015 7.10231 7.03306
7 2 8.92973 8.8787 7.25146
8 2 7.14095 8.38403 5.8346
9 2 5.99832 6.43183 7.90484
5 2 9.51056 7.36329 9.19218
10 2 5.0733 7.1693 6.42296
ITEM: TIMESTEP
3800
ITEM: NUMBER OF ATOMS
10
ITEM: BOX BOUNDS pp pp pp
0.0000000000000000e+00 1.5000000000000000e+01
0.0000000000000000e+00 1.5000000000000000e+01
0.0000000000000000e+00 1.5000000000000000e+01
ITEM: ATOMS id type x y z
1 1 8.75808 7.20598 8.49643
3 1 7.00448 7.83942 6.75036
2 1 8.2291 8.02991 7.55694
6 2 8.42629 6.1984 8.77695
4 1 5.98157 7.1072 7.18687
7 2 8.87623 8.83553 7.11986
8 2 7.14186 8.13045 5.70728
9 2 5.85405 6.66851 8.17584
5 2 9.83745 7.39137 8.68708
10 2 5.14874 6.9007 6.4784
ITEM: TIMESTEP
3900
ITEM: NUMBER OF ATOMS
10
ITEM: BOX BOUNDS pp pp pp
0.0000000000000000e+00 1.5000000000000000e+01
0.0000000000000000e+00 1.5000000000000000e+01
0.0000000000000000e+00 1.5000000000000000e+01
ITEM: ATOMS id type x y z
1 1 8.87445 7.24786 8.37423
3 1 6.98529 7.72799 6.76542
2 1 8.23558 8.00631 7.45792
6 2 8.61411 6.15383 8.52673
4 1 5.91806 7.13811 7.29404
7 2 8.78965 8.86927 7.22037
8 2 6.85272 8.11549 5.73273
9 2 6.0642 6.73889 8.29714
5 2 9.76281 7.59091 8.93276
10 2 4.96026 7.02997 6.82963
ITEM: TIMESTEP
4000
ITEM: NUMBER OF ATOMS
10
ITEM: BOX BOUNDS pp pp pp
0.0000000000000000e+00 1.5000000000000000e+01
0.0000000000000000e+00 1.5000000000000000e+01
0.0000000000000000e+00 1.5000000000000000e+01
ITEM: ATOMS id type x y z
1 1 8.87873 7.24352 8.25374
3 1 6.95975 7.72807 6.82754
2 1 8.29717 8.08685 7.41077
6 2 8.40539 6.29421 8.39449
4 1 5.91835 7.08974 7.451
7 2 8.82891 8.96842 6.95338
8 2 6.82782 7.99514 5.77946
9 2 5.91221 6.76832 8.49744
5 2 9.80046 7.47329 8.73934
10 2 5.02524 6.83154 6.86656
ITEM: TIMESTEP
4100
ITEM: NUMBER OF ATOMS
10
ITEM: BOX BOUNDS pp pp pp
0.0000000000000000e+00 1.5000000000000000e+01
0.0000000000000000e+00 1.5000000000000000e+01
0.0000000000000000e+00 1.5000000000000000e+01
ITEM: ATOMS id type x y z
10 2 4.91737 6.94753 7.10775
1 1 8.94214 7.27579 8.21641
3 1 6.89382 7.72363 6.82852
2 1 8.24821 8.00702 7.30527
6 2 8.59899 6.29527 8.56916
4 1 5.94081 7.0938 7.5485
7 2 8.67353 8.91313 6.81028
8 2 6.72889 8.10869 5.82213
9 2 6.13969 6.73544 8.57386
5 2 9.91566 7.61853 8.61359
ITEM: TIMESTEP
4200
ITEM: NUMBER OF ATOMS
10
ITEM: BOX BOUNDS pp pp pp
0.0000000000000000e+00 1.5000000000000000e+01
0.0000000000000000e+00 1.5000000000000000e+01
0.0000000000000000e+00 1.5000000000000000e+01
ITEM: ATOMS id type x y z
10 2 4.9717 6.88679 7.40235
1 1 9.03395 7.34587 8.10693
3 1 6.8303 7.71412 6.89518
2 1 8.17227 7.93119 7.26385
6 2 8.78811 6.4756 8.75598
4 1 5.94739 7.10957 7.62767
7 2 8.64599 8.68861 6.70789
8 2 6.49799 8.08086 5.92864
9 2 6.24414 6.83112 8.6301
5 2 10.0726 7.65249 8.10219
ITEM: TIMESTEP
4300
ITEM: NUMBER OF ATOMS
10
ITEM: BOX BOUNDS pp pp pp
0.0000000000000000e+00 1.5000000000000000e+01
0.0000000000000000e+00 1.5000000000000000e+01
0.0000000000000000e+00 1.5000000000000000e+01
ITEM: ATOMS id type x y z
10 2 4.8746 6.88397 7.5644
1 1 9.03356 7.37182 7.9746
3 1 6.81057 7.66246 6.93434
2 1 8.22925 7.99276 7.10011
6 2 8.70125 6.63958 8.68963
4 1 5.96618 7.05969 7.88302
7 2 8.63447 8.77142 6.36649
8 2 6.35313 8.03834 5.99872
9 2 6.2128 6.81179 8.92468
5 2 10.1105 7.55452 7.99268
ITEM: TIMESTEP
4400
ITEM: NUMBER OF ATOMS
10
ITEM: BOX BOUNDS pp pp pp
0.0000000000000000e+00 1.5000000000000000e+01
0.0000000000000000e+00 1.5000000000000000e+01
0.0000000000000000e+00 1.5000000000000000e+01
ITEM: ATOMS id type x y z
10 2 4.94029 7.03549 7.92168
1 1 9.0741 7.41488 7.85588
3 1 6.73334 7.56919 6.97834
2 1 8.21191 7.94532 6.97139
6 2 8.68302 6.63859 8.53748
4 1 6.02339 7.0953 8.01011
7 2 8.5209 8.80305 6.3922
8 2 6.12784 7.93749 6.15386
9 2 6.49335 6.91268 9.01855
5 2 10.1021 7.74458 7.97085
ITEM: TIMESTEP
4500
ITEM: NUMBER OF ATOMS
10
ITEM: BOX BOUNDS pp pp pp
0.0000000000000000e+00 1.5000000000000000e+01
0.0000000000000000e+00 1.5000000000000000e+01
0.0000000000000000e+00 1.5000000000000000e+01
ITEM: ATOMS id type x y z
10 2 5.03856 6.74729 8.09587
1 1 9.15361 7.40826 7.72951
3 1 6.68115 7.60654 7.04845
2 1 8.11459 7.95541 7.00073
6 2 8.90983 6.69398 8.55815
4 1 6.04509 7.12012 8.09558
7 2 8.38152 8.7279 6.29699
8 2 6.1278 7.69529 6.10351
9 2 6.48267 7.18254 9.06617
5 2 10.217 7.63107 7.52267
ITEM: TIMESTEP
4600
ITEM: NUMBER OF ATOMS
10
ITEM: BOX BOUNDS pp pp pp
0.0000000000000000e+00 1.5000000000000000e+01
0.0000000000000000e+00 1.5000000000000000e+01
0.0000000000000000e+00 1.5000000000000000e+01
ITEM: ATOMS id type x y z
10 2 5.01173 6.94103 8.1847
1 1 9.11324 7.41154 7.6336
3 1 6.68045 7.54229 7.06268
2 1 8.08296 7.91372 6.9759
6 2 9.13318 6.67055 8.38338
4 1 6.10927 7.1408 8.21983
7 2 8.24093 8.78475 6.26317
8 2 6.11095 7.67222 6.12433
9 2 6.6449 7.2366 9.17466
5 2 10.0668 7.86471 7.40673
ITEM: TIMESTEP
4700
ITEM: NUMBER OF ATOMS
10
ITEM: BOX BOUNDS pp pp pp
0.0000000000000000e+00 1.5000000000000000e+01
0.0000000000000000e+00 1.5000000000000000e+01
0.0000000000000000e+00 1.5000000000000000e+01
ITEM: ATOMS id type x y z
10 2 5.08052 6.86071 8.39471
1 1 9.12719 7.43261 7.51157
3 1 6.70635 7.5191 7.13055
2 1 8.05869 7.9538 6.87672
6 2 8.94592 6.70852 8.33274
4 1 6.12689 7.14679 8.31257
7 2 8.21027 8.67867 6.10188
8 2 6.02771 7.56934 6.29405
9 2 6.61682 7.20618 9.3101
5 2 10.128 7.88275 7.46704
ITEM: TIMESTEP
4800
ITEM: NUMBER OF ATOMS
10
ITEM: BOX BOUNDS pp pp pp
0.0000000000000000e+00 1.5000000000000000e+01
0.0000000000000000e+00 1.5000000000000000e+01
0.0000000000000000e+00 1.5000000000000000e+01
ITEM: ATOMS id type x y z
10 2 5.2023 6.87662 8.55537
1 1 9.11097 7.46477 7.41915
3 1 6.64809 7.5154 7.23218
2 1 8.00257 7.92125 6.80262
6 2 8.97886 6.86431 8.35117
4 1 6.21835 7.15644 8.40105
7 2 8.16599 8.47934 5.86884
8 2 5.87632 7.54849 6.41408
9 2 6.87096 7.2114 9.23472
5 2 10.1497 7.89268 7.33488
ITEM: TIMESTEP
4900
ITEM: NUMBER OF ATOMS
10
ITEM: BOX BOUNDS pp pp pp
0.0000000000000000e+00 1.5000000000000000e+01
0.0000000000000000e+00 1.5000000000000000e+01
0.0000000000000000e+00 1.5000000000000000e+01
ITEM: ATOMS id type x y z
10 2 5.24602 6.99939 8.90364
1 1 9.15268 7.51351 7.35263
3 1 6.55225 7.51733 7.2016
2 1 7.93737 7.82158 6.81209
6 2 9.39206 7.02351 8.26708
4 1 6.31228 7.17516 8.53513
7 2 7.91566 8.34839 5.82729
8 2 5.79842 7.47298 6.40164
9 2 7.11509 7.23285 9.30223
5 2 9.92925 7.97735 6.77843
ITEM: TIMESTEP
5000
ITEM: NUMBER OF ATOMS
10
ITEM: BOX BOUNDS pp pp pp
0.0000000000000000e+00 1.5000000000000000e+01
0.0000000000000000e+00 1.5000000000000000e+01
0.0000000000000000e+00 1.5000000000000000e+01
ITEM: ATOMS id type x y z
10 2 5.37732 6.92225 8.97224
1 1 9.08762 7.60432 7.15921
3 1 6.62395 7.46965 7.38791
2 1 7.88393 7.8039 6.70129
6 2 9.34737 7.13369 8.11815
4 1 6.3535 7.21693 8.65184
7 2 7.8086 8.24475 5.73237
8 2 5.8501 7.21455 6.68528
9 2 7.09644 7.33602 9.44639
5 2 9.9502 7.79998 6.53304
ITEM: TIMESTEP
5100
ITEM: NUMBER OF ATOMS
10
ITEM: BOX BOUNDS pp pp pp
0.0000000000000000e+00 1.5000000000000000e+01
0.0000000000000000e+00 1.5000000000000000e+01
0.0000000000000000e+00 1.5000000000000000e+01
ITEM: ATOMS id type x y z
10 2 5.50441 7.08107 9.18257
1 1 9.06997 7.62189 7.05854
3 1 6.63191 7.35612 7.43029
2 1 7.77789 7.7611 6.61823
6 2 9.15815 7.02869 7.98363
4 1 6.50018 7.2961 8.76116
7 2 7.61385 8.33289 5.67047
8 2 5.67764 7.15315 6.86305
9 2 7.31051 7.36106 9.44944
5 2 9.97978 8.05191 6.53053
ITEM: TIMESTEP
5200
ITEM: NUMBER OF ATOMS
10
ITEM: BOX BOUNDS pp pp pp
0.0000000000000000e+00 1.5000000000000000e+01
0.0000000000000000e+00 1.5000000000000000e+01
0.0000000000000000e+00 1.5000000000000000e+01
ITEM: ATOMS id type x y z
10 2 5.80528 6.8251 9.37826
1 1 9.03036 7.61728 6.99292
3 1 6.55607 7.32673 7.4424
2 1 7.74494 7.80262 6.63276
6 2 9.35358 7.10811 7.89836
4 1 6.58588 7.34935 8.81078
7 2 7.43876 8.21718 5.66731
8 2 5.67252 7.01369 6.91664
9 2 7.52314 7.59362 9.39258
5 2 9.8272 7.88638 6.36271
ITEM: TIMESTEP
5300
ITEM: NUMBER OF ATOMS
10
ITEM: BOX BOUNDS pp pp pp
0.0000000000000000e+00 1.5000000000000000e+01
0.0000000000000000e+00 1.5000000000000000e+01
0.0000000000000000e+00 1.5000000000000000e+01
ITEM: ATOMS id type x y z
10 2 5.87314 6.88008 9.5101
1 1 9.00032 7.66582 6.8594
3 1 6.60535 7.31803 7.51449
2 1 7.68972 7.71705 6.70111
6 2 9.45619 7.17902 7.74874
4 1 6.60671 7.37512 8.85874
7 2 7.44913 8.15618 5.73301
8 2 5.6803 7.00351 6.99792
9 2 7.57988 7.61304 9.27373
5 2 9.67269 7.93203 6.02303
ITEM: TIMESTEP
5400
ITEM: NUMBER OF ATOMS
10
ITEM: BOX BOUNDS pp pp pp
0.0000000000000000e+00 1.5000000000000000e+01
0.0000000000000000e+00 1.5000000000000000e+01
0.0000000000000000e+00 1.5000000000000000e+01
ITEM: ATOMS id type x y z
10 2 5.94195 7.05971 9.5991
1 1 8.93438 7.69998 6.75481
3 1 6.6661 7.30595 7.6386
2 1 7.60422 7.65509 6.56464
6 2 9.46527 7.30652 7.60119
4 1 6.7597 7.39951 8.93937
7 2 7.07861 7.98009 5.6749
8 2 5.69066 6.96694 7.17152
9 2 7.59477 7.52924 9.55425
5 2 9.56631 8.01439 5.90354
ITEM: TIMESTEP
5500
ITEM: NUMBER OF ATOMS
10
ITEM: BOX BOUNDS pp pp pp
0.0000000000000000e+00 1.5000000000000000e+01
0.0000000000000000e+00 1.5000000000000000e+01
0.0000000000000000e+00 1.5000000000000000e+01
ITEM: ATOMS id type x y z
10 2 6.15677 6.98309 9.67513
1 1 8.85949 7.73581 6.62758
3 1 6.62427 7.29736 7.69243
2 1 7.4802 7.59985 6.54075
6 2 9.2836 7.49491 7.61374
4 1 6.96089 7.43084 9.03654
7 2 6.96623 7.73002 5.55906
8 2 5.69319 6.86772 7.45686
9 2 8.00032 7.75274 9.41354
5 2 9.47479 8.00834 5.78686
ITEM: TIMESTEP
5600
ITEM: NUMBER OF ATOMS
10
ITEM: BOX BOUNDS pp pp pp
0.0000000000000000e+00 1.5000000000000000e+01
0.0000000000000000e+00 1.5000000000000000e+01
0.0000000000000000e+00 1.5000000000000000e+01
ITEM: ATOMS id type x y z
10 2 6.58643 7.17895 9.99982
1 1 8.75859 7.74805 6.49849
3 1 6.61221 7.23884 7.78941
2 1 7.48383 7.58576 6.60122
6 2 9.49968 7.65024 7.29583
4 1 7.00699 7.44095 9.03556
7 2 6.97635 7.65871 5.63837
8 2 5.63209 6.70504 7.71296
9 2 8.00471 7.86987 9.13155
5 2 9.25502 8.0756 5.56241
ITEM: TIMESTEP
5700
ITEM: NUMBER OF ATOMS
10
ITEM: BOX BOUNDS pp pp pp
0.0000000000000000e+00 1.5000000000000000e+01
0.0000000000000000e+00 1.5000000000000000e+01
0.0000000000000000e+00 1.5000000000000000e+01
ITEM: ATOMS id type x y z
10 2 6.5343 7.16444 9.91803
1 1 8.70601 7.73465 6.40923
3 1 6.71391 7.20158 7.8409
2 1 7.34684 7.57106 6.59629
6 2 9.47679 7.65744 7.17163
4 1 7.15818 7.50261 9.10688
7 2 6.76246 7.66021 5.67515
8 2 5.82277 6.55092 7.67475
9 2 8.0118 8.10996 9.3492
5 2 8.9662 8.01768 5.38045
ITEM: TIMESTEP
5800
ITEM: NUMBER OF ATOMS
10
ITEM: BOX BOUNDS pp pp pp
0.0000000000000000e+00 1.5000000000000000e+01
0.0000000000000000e+00 1.5000000000000000e+01
0.0000000000000000e+00 1.5000000000000000e+01
ITEM: ATOMS id type x y z
10 2 6.62325 7.23269 9.93888