10
 Atoms. Timestep: 0
C 6.42306 7.80186 6.22937
C 6.65358 7.31466 7.4479
C 7.90616 7.05533 8.18747
C 9.00993 7.78193 8.18907
H 5.3871 7.9219 5.78305
H 7.21335 8.11635 5.57048
H 5.77789 6.99761 7.99414
H 7.84172 6.23611 8.93931
H 9.05612 8.63614 7.51703
H 9.89148 7.58921 8.7621
10
 Atoms. Timestep: 20
C 6.46933 7.79249 6.28557
C 6.68743 7.32283 7.50169
C 7.87873 7.04066 8.24572
C 8.94815 7.80855 8.04221
H 5.47647 7.88016 5.91313
H 7.27094 8.08166 5.54388
H 5.71971 7.03382 7.9963
H 7.91687 6.17752 8.86537
H 8.98691 8.75975 7.45902
H 9.85124 7.49986 8.66019
10
 Atoms. Timestep: 40
C 6.48409 7.79892 6.25067
C 6.59719 7.29013 7.57192
C 7.8859 7.06472 8.23511
C 8.99866 7.82629 8.01099
H 5.43749 7.88966 5.98697
H 7.34 8.01909 5.6078
H 5.69037 7.02731 8.12748
H 7.96854 6.13418 8.85225
H 8.90636 8.72518 7.4462
H 9.98627 7.54425 8.45623
10
 Atoms. Timestep: 60
C 6.41067 7.73988 6.33703
C 6.54371 7.30824 7.53714
C 7.93997 7.09043 8.18295
C 9.05613 7.81137 8.04825
H 5.46233 8.009 5.79168
H 7.26172 7.92987 5.74324
H 5.71823 7.04986 8.15208
H 7.99643 6.21016 8.8584
H 8.92159 8.69355 7.42043
H 10.0608 7.62802 8.29097
10
 Atoms. Timestep: 80
C 6.39885 7.74714 6.34723
C 6.61859 7.29674 7.64505
C 7.91845 7.05461 8.15354
C 8.99637 7.84855 7.94866
H 5.49181 8.00041 5.78495
H 7.35736 7.8799 5.75532
H 5.68225 7.0501 8.26725
H 7.97846 6.24258 8.83105
H 9.01231 8.80735 7.3308
H 10.0083 7.55738 8.35281
10
 Atoms. Timestep: 100
C 6.38752 7.73387 6.36089
C 6.57251 7.3281 7.61003
C 7.94749 7.06374 8.15709
C 9.03317 7.86729 7.89631
H 5.42586 7.91165 6.00269
H 7.28556 7.84234 5.74466
H 5.81482 7.07156 8.35521
H 8.07313 6.18036 8.84782
H 8.98628 8.76096 7.32685
H 9.89416 7.49519 8.46586
10
 Atoms. Timestep: 120
C 6.31916 7.70878 6.35639
C 6.60856 7.31848 7.62498
C 7.97104 7.12366 8.13179
C 9.07184 7.80418 7.94925
H 5.23613 7.88759 6.05908
H 7.08564 7.86021 5.61972
H 5.78856 7.16503 8.28665
H 8.12726 6.25006 8.78412
H 9.03149 8.6936 7.34791
H 10.0313 7.63297 8.41704
10
 Atoms. Timestep: 140
C 6.34704 7.70287 6.41739
C 6.65672 7.33071 7.61998
C 7.95344 7.07586 8.16169
C 9.04206 7.8335 7.89391
H 5.297 7.82442 6.14848
H 6.92481 7.87477 5.50225
H 5.76711 7.19843 8.28612
H 8.01553 6.24053 8.82023
H 9.08469 8.78774 7.25187
H 10.0393 7.63646 8.32221
10
 Atoms. Timestep: 160
C 6.29845 7.72482 6.35981
C 6.65519 7.34277 7.64814
C 8.01433 7.06456 8.19061
C 9.04065 7.86534 7.85166
H 5.23016 7.8125 6.25787
H 7.06931 7.84073 5.53806
H 5.83987 7.13874 8.38617
H 8.01955 6.21592 8.92993
H 8.91529 8.71072 7.20644
H 9.99809 7.51649 8.26925
10
 Atoms. Timestep: 180
C 6.2958 7.70418 6.43386
C 6.65108 7.33819 7.6417
C 7.97769 7.10172 8.16789
C 9.04457 7.81663 7.83959
H 5.26375 7.89295 6.114
H 7.03212 7.82672 5.68267
H 5.90301 7.13684 8.35255
H 8.20957 6.32364 8.92482
H 8.83554 8.62605 7.18361
H 10.0652 7.64949 8.13311
10
 Atoms. Timestep: 200
C 6.29337 7.70219 6.44359
C 6.61051 7.2936 7.71679
C 7.99585 7.10123 8.17096
C 9.07161 7.8217 7.78007
H 5.28008 7.94777 6.03486
H 7.07882 7.85096 5.69945
H 5.75963 7.12615 8.43322
H 8.12122 6.33659 8.8985
H 8.92719 8.70254 7.05696
H 10.129 7.74367 8.09753
10
 Atoms. Timestep: 220
C 6.28039 7.69482 6.46322
C 6.55255 7.2947 7.70957
C 8.03994 7.11179 8.1767
C 9.0911 7.86419 7.71484
H 5.28311 7.89769 6.16592
H 7.14714 7.84246 5.76804
H 5.76647 7.08453 8.48225
H 8.08603 6.29551 8.93676
H 9.00168 8.672 6.99319
H 10.0557 7.6348 8.15685
10
 Atoms. Timestep: 240
C 6.23561 7.68137 6.48852
C 6.63789 7.30161 7.72543
C 7.98088 7.16909 8.12611
C 9.08148 7.82803 7.73791
H 5.21161 7.8386 6.18696
H 7.04021 7.85397 5.78032
H 5.87696 7.0663 8.41093
H 8.28958 6.42481 8.90883
H 9.03025 8.58449 6.99938
H 10.0602 7.57125 8.1348
10
 Atoms. Timestep: 260
C 6.23347 7.68004 6.50417
C 6.63508 7.31687 7.71217
C 8.0266 7.17231 8.15054
C 9.08451 7.81552 7.71977
H 5.14736 7.73769 6.24484
H 6.8523 7.90888 5.64697
H 5.90796 7.01291 8.49407
H 8.18658 6.47595 8.93875
H 9.08219 8.6372 6.93676
H 10.0697 7.53896 8.10776
10
 Atoms. Timestep: 280
C 6.21404 7.69026 6.49289
C 6.63495 7.3194 7.72012
C 8.04483 7.1503 8.19917
C 9.12353 7.83521 7.65364
H 5.11487 7.63484 6.38916
H 6.80343 7.95397 5.59356
H 5.87509 7.01503 8.49801
H 8.05667 6.41664 9.03214
H 9.06569 8.64114 6.90221
H 10.1041 7.58738 8.07902
10
 Atoms. Timestep: 300
C 6.19834 7.68115 6.53774
C 6.69379 7.31614 7.73365
C 8.02973 7.19245 8.17048
C 9.07212 7.78243 7.6522
H 5.15756 7.66613 6.3791
H 6.83602 7.95177 5.69679
H 5.89425 7.06892 8.36649
H 8.23677 6.48046 9.01752
H 8.94025 8.50089 6.90589
H 10.0953 7.71876 7.95879
10
 Atoms. Timestep: 320
C 6.18609 7.68033 6.53585
C 6.64446 7.30858 7.7396
C 8.05568 7.16691 8.20171
C 9.10204 7.81087 7.61663
H 5.10611 7.76617 6.31599
H 6.88675 7.94254 5.75051
H 5.92131 7.00853 8.5335
H 8.31096 6.54821 9.03055
H 8.7988 8.46184 6.7291
H 10.1704 7.6926 7.96665
10
 Atoms. Timestep: 340
C 6.19772 7.68505 6.5455
C 6.61173 7.2668 7.79674
C 8.10529 7.16987 8.1912
C 9.07424 7.83613 7.56466
H 5.1234 7.84726 6.2888
H 6.90713 7.92684 5.73801
H 5.91758 6.98118 8.6482
H 8.21844 6.56728 9.10252
H 8.94954 8.44607 6.64506
H 10.0741 7.70426 7.87778
10
 Atoms. Timestep: 360
C 6.15501 7.65784 6.62637
C 6.65072 7.25452 7.78645
C 8.02039 7.20858 8.13754
C 9.12466 7.82582 7.54044
H 5.14633 7.84186 6.34166
H 6.88088 7.8651 5.84709
H 5.92692 7.03344 8.50825
H 8.29538 6.64039 9.09777
H 9.01138 8.42969 6.68678
H 10.1584 7.72896 7.86267
10
 Atoms. Timestep: 380
C 6.13748 7.65573 6.61504
C 6.63665 7.2664 7.79863
C 8.09822 7.25868 8.11709
C 9.10755 7.78221 7.52575
H 5.06193 7.73131 6.5121
H 6.85176 7.87015 5.80015
H 5.92429 6.98897 8.60812
H 8.29665 6.71254 8.993
H 8.98602 8.47592 6.65739
H 10.1239 7.663 7.97918
10
 Atoms. Timestep: 400
C 6.15192 7.64765 6.61896
C 6.65319 7.31121 7.81409
C 8.06113 7.22378 8.17269
C 9.12497 7.81094 7.45764
H 5.02901 7.6033 6.53271
H 6.65823 7.93492 5.69471
H 6.04193 6.95408 8.68828
H 8.32376 6.64441 9.07158
H 9.05474 8.49895 6.56398
H 10.0691 7.62284 7.95746
10
 Atoms. Timestep: 420
C 6.0919 7.62577 6.6507
C 6.70885 7.33588 7.82901
C 8.10854 7.25022 8.1367
C 9.08957 7.7927 7.49356
H 5.02238 7.52828 6.48501
H 6.58538 7.95913 5.74946
H 5.99991 7.02783 8.56103
H 8.34299 6.64356 9.066
H 9.05476 8.35871 6.6287
H 10.1254 7.67506 7.73898
10
 Atoms. Timestep: 440
C 6.0915 7.62126 6.66902
C 6.67009 7.33511 7.80953
C 8.10985 7.244 8.16862
C 9.13259 7.81137 7.45415
H 5.02944 7.49738 6.61611
H 6.69084 7.9408 5.80796
H 5.9872 7.04813 8.61804
H 8.34501 6.66879 9.04032
H 8.79973 8.35602 6.51335
H 10.2476 7.63847 7.68527
10
 Atoms. Timestep: 460
C 6.14795 7.63427 6.65936
C 6.68323 7.29657 7.8859
C 8.12396 7.26025 8.17251
C 9.0693 7.79811 7.38359
H 5.04026 7.61117 6.61428
H 6.72976 7.8845 5.73763
H 6.02725 7.01461 8.76145
H 8.3528 6.6948 9.06756
H 8.7513 8.38625 6.49028
H 10.0759 7.6934 7.60962
10
 Atoms. Timestep: 480
C 6.0556 7.59857 6.71624
C 6.68785 7.29225 7.87877
C 8.12529 7.26776 8.15035
C 9.11175 7.79899 7.36371
H 4.98632 7.79468 6.46377
H 6.667 7.7622 5.86365
H 6.07367 7.03409 8.70772
H 8.49491 6.75882 9.11747
H 8.85145 8.36902 6.52782
H 10.1677 7.75575 7.5541
10
 Atoms. Timestep: 500
C 6.04268 7.58581 6.7477
C 6.66257 7.29685 7.88529
C 8.17003 7.26483 8.10726
C 9.08815 7.80523 7.34972
H 5.01024 7.77634 6.63971
H 6.68973 7.682 5.86314
H 6.06454 7.0784 8.77508
H 8.47012 6.84157 9.03286
H 8.89591 8.39206 6.40756
H 10.2129 7.73333 7.63083
10
 Atoms. Timestep: 520
C 6.0953 7.58583 6.747
C 6.70453 7.29963 7.94831
C 8.10696 7.25306 8.08061
C 9.09222 7.83687 7.28783
H 5.00303 7.6349 6.84614
H 6.62244 7.69103 5.75145
H 6.08107 7.17769 8.88813
H 8.44698 6.79837 9.00451
H 8.89811 8.36058 6.31984
H 10.0783 7.70511 7.69642
10
 Atoms. Timestep: 540
C 6.02673 7.54028 6.81071
C 6.69546 7.34986 7.90747
C 8.16311 7.28765 8.0535
C 9.11766 7.81319 7.30485
H 4.90096 7.53864 6.77603
H 6.44562 7.69957 5.86328
H 6.16512 7.25715 8.82399
H 8.53135 6.72203 8.97721
H 8.9381 8.31409 6.40323
H 10.1251 7.74265 7.58607
10
 Atoms. Timestep: 560
C 5.97227 7.51499 6.8053
C 6.74439 7.39611 7.93463
C 8.19142 7.28149 8.10334
C 9.08768 7.79918 7.26384
H 4.88493 7.48927 6.7979
H 6.43434 7.67691 5.82895
H 6.18656 7.24634 8.86568
H 8.52811 6.71732 8.94192
H 8.86419 8.42334 6.36417
H 10.2513 7.71618 7.44772
10
 Atoms. Timestep: 580
C 6.07236 7.51682 6.82801
C 6.73569 7.40905 7.97107
C 8.17955 7.27946 8.1185
C 9.04394 7.81546 7.17587
H 5.02971 7.4851 6.94901
H 6.48365 7.57275 5.76815
H 6.17036 7.22642 8.92578
H 8.51716 6.72089 8.99379
H 8.65136 8.48651 6.38505
H 10.0825 7.60358 7.30653
10
 Atoms. Timestep: 600
C 5.98772 7.49784 6.84638
C 6.74093 7.38577 8.01155
C 8.21422 7.32648 8.04834
C 9.10523 7.81991 7.19792
H 4.85604 7.55401 6.93057
H 6.53302 7.44745 5.91723
H 6.13207 7.29999 8.89903
H 8.60658 6.75604 8.95815
H 8.59749 8.40054 6.46333
H 10.1102 7.58195 7.09554
10
 Atoms. Timestep: 620
C 5.99209 7.46946 6.93459
C 6.72524 7.38901 7.99308
C 8.21699 7.30261 8.07787
C 9.0461 7.83375 7.15708
H 4.94817 7.61386 6.79423
H 6.43911 7.37718 5.98033
H 6.27412 7.40911 8.97883
H 8.6764 6.7604 8.87006
H 8.70494 8.45842 6.26466
H 10.1988 7.632 7.02518
10
 Atoms. Timestep: 640
C 5.97973 7.4385 6.9011
C 6.78551 7.40625 8.10359
C 8.23173 7.28353 8.03024
C 8.9985 7.84389 7.05353
H 4.88573 7.66185 6.94937
H 6.47981 7.31455 5.86774
H 6.34074 7.52823 9.15151
H 8.66047 6.72434 8.86679
H 8.71411 8.45104 6.22261
H 10.0703 7.707 7.30014
10
 Atoms. Timestep: 660
C 5.97005 7.40301 7.03044
C 6.73359 7.43848 8.02993
C 8.21317 7.29405 7.93544
C 9.07948 7.82735 7.05968
H 4.91524 7.62579 7.13406
H 6.38893 7.2512 6.05362
H 6.36025 7.57616 9.01468
H 8.75058 6.77804 8.80864
H 8.64491 8.41451 6.2617
H 10.0864 7.79697 7.28335
10
 Atoms. Timestep: 680
C 5.91193 7.39401 7.02295
C 6.84829 7.46513 8.07307
C 8.22115 7.28722 7.93561
C 9.03833 7.82333 7.06696
H 4.84536 7.51752 7.22588
H 6.22748 7.14723 6.03693
H 6.36466 7.62989 9.04586
H 8.67906 6.81625 8.75835
H 8.69962 8.46562 6.16349
H 10.1897 7.82536 7.06697
10
 Atoms. Timestep: 700
C 5.96907 7.39895 7.04991
C 6.78846 7.48607 8.0575
C 8.30214 7.2824 8.01548
C 8.97618 7.87369 6.95858
H 4.91778 7.42725 7.27713
H 6.10421 7.07035 5.98776
H 6.51051 7.66287 9.13231
H 8.71031 6.70881 8.86946
H 8.60261 8.48548 6.1645
H 10.0634 7.61856 6.96902
10
 Atoms. Timestep: 720
C 5.89835 7.3565 7.08449
C 6.85447 7.48074 8.08735
C 8.29733 7.371 7.97232
C 9.00878 7.8314 6.96451
H 4.79394 7.47998 7.33285
H 6.26949 7.09992 6.04618
H 6.41022 7.69354 9.0641
H 8.84464 6.72536 8.73549
H 8.43587 8.42092 6.28887
H 10.0162 7.56243 6.76955
10
 Atoms. Timestep: 740
C 5.96326 7.33072 7.15438
C 6.8237 7.49057 8.11107
C 8.27184 7.37495 7.97188
C 8.98486 7.79721 6.91522
H 4.94315 7.50377 7.26882
H 6.27638 7.1493 6.18292
H 6.40664 7.6865 9.07256
H 8.84975 6.81671 8.66941
H 8.3674 8.47109 6.16228
H 10.0187 7.63192 6.61769
10
 Atoms. Timestep: 760
C 5.9293 7.3142 7.14195
C 6.83097 7.51534 8.20976
C 8.31371 7.33806 7.95079
C 8.95001 7.83987 6.80986
H 4.84313 7.50263 7.28877
H 6.31102 7.08008 6.10575
H 6.50407 7.69008 9.27829
H 8.79258 6.83716 8.81021
H 8.4907 8.40172 6.02974
H 10.0385 7.66349 6.70204
10
 Atoms. Timestep: 780
C 5.9172 7.34478 7.23585
C 6.84007 7.48789 8.15775
C 8.29402 7.3745 7.8778
C 8.94904 7.82237 6.83054
H 4.81548 7.42389 7.30793
H 6.27831 7.01008 6.23891
H 6.60028 7.67638 9.20699
H 8.90604 6.93462 8.72649
H 8.49501 8.30779 6.00682
H 10.0269 7.69001 6.79017
10
 Atoms. Timestep: 800
C 5.89087 7.34189 7.24338
C 6.89747 7.46981 8.1464
C 8.26252 7.39879 7.88731
C 8.96272 7.80207 6.82429
H 4.84543 7.39429 7.5028
H 6.1638 7.0165 6.28683
H 6.62256 7.69615 9.16413
H 8.93842 7.03061 8.61017
H 8.4105 8.28658 5.90921
H 10.0618 7.72048 6.80751
10
 Atoms. Timestep: 820
C 5.90624 7.31118 7.23809
C 6.85624 7.48327 8.17674
C 8.35758 7.40223 7.90445
C 8.92447 7.80513 6.7529
H 4.92776 7.42208 7.66708
H 6.00193 7.0534 6.14642
H 6.59252 7.70392 9.23082
H 8.90268 7.03219 8.79115
H 8.45284 8.25261 5.89247
H 9.97912 7.74493 6.72796
10
 Atoms. Timestep: 840
C 5.9017 7.28852 7.29717
C 6.90675 7.48648 8.14547
C 8.33295 7.42801 7.92302
C 8.92896 7.79472 6.73828
H 4.83037 7.42732 7.63795
H 5.95434 7.13605 6.18164
H 6.54259 7.65227 9.1723
H 8.97452 7.07886 8.79936
H 8.36612 8.19393 5.93458
H 10.0339 7.74519 6.53949
10
 Atoms. Timestep: 860
C 5.89235 7.30947 7.30058
C 6.92171 7.47639 8.15093
C 8.35494 7.46752 7.8891
C 8.89637 7.76562 6.7702
H 4.8645 7.36722 7.62394
H 6.08278 7.12877 6.2933
H 6.65785 7.60659 9.19173
H 8.99315 7.1735 8.66945
H 8.17427 8.12697 5.95878
H 9.95924 7.70294 6.48696
10
 Atoms. Timestep: 880
C 5.89533 7.33187 7.29652
C 6.89362 7.471 8.22089
C 8.35868 7.46124 7.92605
C 8.88497 7.78647 6.648
H 4.87723 7.30447 7.64369
H 6.17727 7.08034 6.24579
H 6.75254 7.58506 9.29566
H 9.03065 7.19811 8.77266
H 8.1594 8.07501 5.87228
H 9.93133 7.6735 6.5102
10
 Atoms. Timestep: 900
C 5.90816 7.32001 7.37335
C 6.92139 7.46849 8.25414
C 8.34969 7.48282 7.8378
C 8.86789 7.76626 6.66694
H 4.83084 7.28867 7.56846
H 6.13442 7.11233 6.2693
H 6.60638 7.56927 9.32531
H 9.01541 7.26679 8.7135
H 8.33252 8.03908 5.79563
H 9.92165 7.71833 6.42337
10
 Atoms. Timestep: 920
C 5.90086 7.27911 7.41227
C 6.91317 7.47141 8.23302
C 8.30658 7.50359 7.84414
C 8.89479 7.75237 6.63197
H 4.83805 7.32583 7.68432
H 6.09862 7.19724 6.4037
H 6.6772 7.57196 9.28861
H 9.06692 7.30988 8.57578
H 8.29866 8.03488 5.70023
H 10.0521 7.74128 6.50799
10
 Atoms. Timestep: 940
C 5.89321 7.26878 7.38143
C 6.93393 7.47723 8.25266
C 8.35295 7.52667 7.81531
C 8.83841 7.74096 6.61663
H 4.91926 7.31586 7.87593
H 6.04554 7.18201 6.2864
H 6.84493 7.59509 9.3275
H 9.04083 7.32301 8.64249
H 8.29271 7.98712 5.71906
H 9.86977 7.73507 6.6415
10
 Atoms. Timestep: 960
C 5.89055 7.29524 7.45446
C 6.96742 7.46897 8.19808
C 8.33322 7.5221 7.85389
C 8.85949 7.75316 6.58693
H 4.87598 7.23026 7.84974
H 5.89607 7.1042 6.32409
H 6.78916 7.5872 9.28947
H 9.06187 7.37713 8.69707
H 8.25029 7.93592 5.71298
H 9.94657 7.74847 6.45554
10
 Atoms. Timestep: 980
C 5.86848 7.29756 7.45391
C 6.95965 7.47171 8.21238
C 8.40651 7.52984 7.80959
C 8.84883 7.74483 6.62869
H 4.88536 7.2187 7.90316
H 5.88846 7.07042 6.42492
H 6.69714 7.56741 9.27476
H 9.06306 7.44716 8.64357
H 8.16265 7.8821 5.7768
H 9.92647 7.7706 6.23833
10
 Atoms. Timestep: 1000
C 5.90174 7.27446 7.41543
C 6.96582 7.48222 8.24959
C 8.40149 7.53515 7.87708
C 8.79696 7.73423 6.53692
H 4.94188 7.28548 7.98155
H 5.9589 7.08856 6.35356
H 6.81185 7.58941 9.30782
H 9.17509 7.46032 8.67172
H 7.98237 7.86053 5.80326
H 9.85781 7.77935 6.29702
10
 Atoms. Timestep: 1020
C 5.90158 7.24641 7.49922
C 7.00222 7.47538 8.24544
C 8.38979 7.56361 7.80898
C 8.78489 7.72097 6.5618
H 4.8598 7.31989 7.83891
H 6.00272 7.13677 6.35855
H 6.83329 7.62725 9.33913
H 9.15315 7.46357 8.59789
H 8.03205 7.85185 5.79958
H 9.77209 7.78244 6.26228
10
 Atoms. Timestep: 1040
C 5.87192 7.24078 7.56123
C 6.97846 7.46809 8.26675
C 8.36834 7.56522 7.78657
C 8.82067 7.73811 6.5136
H 4.85461 7.28312 7.84258
H 6.01833 7.10454 6.51107
H 6.86884 7.65052 9.34752
H 9.11233 7.48172 8.56201
H 8.11102 7.85472 5.66251
H 9.92256 7.77216 6.1944
10
 Atoms. Timestep: 1060
C 5.93067 7.26068 7.51247
C 6.98865 7.49325 8.33497
C 8.35533 7.55271 7.75961
C 8.75072 7.73742 6.4768
H 4.94894 7.20922 8.04933
H 5.99817 6.99012 6.47508
H 6.91651 7.6498 9.38678
H 9.11675 7.50245 8.55093
H 8.16917 7.86083 5.56497
H 9.82232 7.74321 6.35879
10
 Atoms. Timestep: 1080
C 5.90585 7.25432 7.58085
C 7.01981 7.51763 8.28478
C 8.33161 7.56163 7.73945
C 8.77345 7.7341 6.46979
H 4.91247 7.11906 8.12697
H 5.9621 6.94419 6.50302
H 6.8861 7.6467 9.39065
H 9.19962 7.49984 8.43507
H 8.13854 7.86447 5.61314
H 9.84089 7.7397 6.37093
10
 Atoms. Timestep: 1100
C 5.87586 7.20356 7.6529
C 7.00227 7.53332 8.23652
C 8.39473 7.59011 7.72301
C 8.77312 7.72277 6.48441
H 4.94189 7.13121 8.07555
H 5.86008 6.9961 6.59336
H 6.95074 7.69791 9.34151
H 9.15951 7.46369 8.4689
H 8.0763 7.8851 5.64387
H 9.85957 7.74743 6.18473
10
 Atoms. Timestep: 1120
C 5.91427 7.16142 7.58546
C 7.06352 7.55697 8.28757
C 8.41669 7.59569 7.78162
C 8.70145 7.71637 6.43728
H 4.96244 7.20607 8.19474
H 5.80432 6.97376 6.51919
H 7.01042 7.79341 9.31368
H 9.13551 7.45176 8.5922
H 7.91904 7.89277 5.6691
H 9.71666 7.71943 6.04851
10
 Atoms. Timestep: 1140
C 5.94857 7.18065 7.63217
C 7.03337 7.53244 8.27109
C 8.42328 7.58791 7.74819
C 8.69909 7.73644 6.42241
H 4.97353 7.2533 8.23991
H 5.90249 6.86333 6.57794
H 6.89912 7.84496 9.33799
H 9.26298 7.51227 8.48214
H 7.80677 7.84921 5.83992
H 9.65322 7.67233 5.96798
10
 Atoms. Timestep: 1160
C 5.87645 7.18528 7.70128
C 7.07112 7.53644 8.28472
C 8.43994 7.57476 7.69982
C 8.69808 7.75774 6.42354
H 4.93014 7.23514 8.13657
H 5.98483 6.7181 6.7252
H 6.8823 7.87097 9.35875
H 9.31517 7.55549 8.33723
H 7.80359 7.83713 5.77242
H 9.69443 7.67778 5.90267
10
 Atoms. Timestep: 1180
C 5.9499 7.16648 7.71069
C 7.07265 7.5706 8.34238
C 8.41738 7.56479 7.7235
C 8.61149 7.73782 6.34718
H 4.95959 7.24515 8.11984
H 5.92738 6.6111 6.75338
H 7.13956 7.93698 9.31562
H 9.27144 7.50644 8.4045
H 7.87422 7.9045 5.52161
H 9.64326 7.77772 6.03158
10
 Atoms. Timestep: 1200
C 5.95672 7.10357 7.78621
C 7.09309 7.5906 8.34391
C 8.34452 7.57392 7.60744
C 8.64909 7.72697 6.33103
H 4.91245 7.31782 8.32192
H 6.00545 6.65566 6.78084
H 7.16358 8.05094 9.37863
H 9.16964 7.45448 8.336
H 7.93293 7.93265 5.58397
H 9.67948 7.8381 6.07611
10
 Atoms. Timestep: 1220
C 5.99014 7.10582 7.87421
C 7.07696 7.60435 8.29305
C 8.31997 7.56858 7.59527
C 8.64649 7.73832 6.32481
H 5.075 7.17296 8.38312
H 5.97332 6.70048 6.91199
H 7.03015 8.08786 9.31038
H 9.22632 7.43158 8.19081
H 7.87488 7.95417 5.56242
H 9.74297 7.77048 6.00626
10
 Atoms. Timestep: 1240
C 5.94768 7.07853 7.83015
C 7.14007 7.68784 8.33074
C 8.43059 7.57338 7.63512
C 8.54784 7.75584 6.2983
H 5.11108 7.02095 8.5005
H 5.83897 6.52453 6.84509
H 7.09398 8.12672 9.28551
H 9.29651 7.39765 8.26917
H 7.82482 7.97677 5.48791
H 9.56155 7.59984 5.93496
10
 Atoms. Timestep: 1260
C 5.97951 7.09473 7.8633
C 7.09273 7.65785 8.29157
C 8.46091 7.63117 7.62969
C 8.55564 7.74409 6.27442
H 5.08761 6.99605 8.56053
H 5.89092 6.45766 6.9588
H 7.16532 8.13169 9.30466
H 9.34094 7.38453 8.26403
H 7.67031 7.98655 5.6993
H 9.43616 7.49647 5.74777
10
 Atoms. Timestep: 1280
C 5.99223 7.06158 7.92259
C 7.16312 7.64479 8.27318
C 8.39976 7.65924 7.58166
C 8.55578 7.71553 6.28559
H 5.08194 7.14872 8.51794
H 6.02324 6.5104 7.03767
H 7.09698 8.12538 9.32008
H 9.27482 7.45862 8.19849
H 7.57539 7.96861 5.88258
H 9.40632 7.52151 5.55417
10
 Atoms. Timestep: 1300
C 6.04077 7.0384 7.94515
C 7.1522 7.6703 8.36535
C 8.44019 7.61575 7.59017
C 8.45273 7.70676 6.21445
H 5.13614 7.24699 8.44645
H 5.99862 6.46692 6.97637
H 7.19811 8.17956 9.27255
H 9.31688 7.56602 8.2472
H 7.54655 7.91801 5.60155
H 9.41234 7.65522 5.65413
10
 Atoms. Timestep: 1320
C 6.0176 7.04018 8.01393
C 7.17305 7.65377 8.38892
C 8.41976 7.59223 7.53837
C 8.46208 7.73108 6.1797
H 5.01468 7.21462 8.48819
H 5.98366 6.43858 7.05548
H 7.24062 8.27321 9.30938
H 9.39942 7.6377 8.06022
H 7.63465 7.78464 5.49091
H 9.41606 7.76762 5.7593
10
 Atoms. Timestep: 1340
C 6.03667 7.08459 8.04115
C 7.20175 7.60821 8.34613
C 8.34786 7.61897 7.506
C 8.46852 7.72213 6.2057
H 5.11335 7.12394 8.61338
H 5.99626 6.4458 7.22105
H 7.23985 8.27262 9.28091
H 9.35456 7.65127 7.90972
H 7.61409 7.68621 5.51789
H 9.47707 7.83675 5.75215
10
 Atoms. Timestep: 1360
C 6.03034 7.06301 8.02168
C 7.20965 7.64576 8.35903
C 8.39264 7.65262 7.51188
C 8.41929 7.69243 6.15821
H 5.27494 7.12973 8.81422
H 5.92339 6.38232 7.15951
H 7.32494 8.18181 9.26099
H 9.29962 7.69142 8.14364
H 7.53558 7.69734 5.50493
H 9.45395 7.81445 5.70087
10
 Atoms. Timestep: 1380
C 6.04693 7.02951 8.06881
C 7.19573 7.67305 8.32315
C 8.43747 7.69143 7.50302
C 8.42152 7.67466 6.15934
H 5.26279 7.07254 8.82404
H 5.79583 6.4524 7.12689
H 7.32086 8.1024 9.33079
H 9.3265 7.75908 8.1375
H 7.51898 7.73342 5.58509
H 9.2891 7.68824 5.55881
10
 Atoms. Timestep: 1400
C 6.06017 7.0156 8.09874
C 7.21707 7.66805 8.2936
C 8.41848 7.73295 7.51184
C 8.42487 7.66763 6.16871
H 5.2305 6.99501 8.7812
H 5.80869 6.57904 7.16775
H 7.27698 8.07219 9.37022
H 9.42106 7.79473 7.93352
H 7.40285 7.71291 5.719
H 9.26036 7.5607 5.48
10
 Atoms. Timestep: 1420
C 6.06123 7.02413 8.06069
C 7.23529 7.65598 8.38824
C 8.44112 7.75665 7.46857
C 8.34649 7.66206 6.15089
H 5.2918 7.00151 8.8549
H 5.91515 6.55051 7.08249
H 7.35648 8.12536 9.32776
H 9.4263 7.8128 7.97923
H 7.35066 7.60962 5.68026
H 9.27883 7.52732 5.55398
10
 Atoms. Timestep: 1440
C 6.08391 7.0641 8.1119
C 7.25443 7.63216 8.40972
C 8.39531 7.74455 7.47638
C 8.34027 7.66402 6.08492
H 5.23985 6.98046 8.82939
H 5.99276 6.49619 7.14731
H 7.39693 8.13208 9.37077
H 9.35201 7.85247 7.99646
H 7.43574 7.51381 5.55013
H 9.26315 7.61601 5.49739
10
 Atoms. Timestep: 1460
C 6.09589 7.05664 8.17627
C 7.27394 7.6472 8.38821
C 8.3352 7.70876 7.41908
C 8.37233 7.65392 6.11035
H 5.23382 7.02641 8.78377
H 5.97365 6.5095 7.2668
H 7.43674 8.09199 9.44279
H 9.29545 7.92921 7.86019
H 7.47948 7.47885 5.46899
H 9.24073 7.78488 5.50302
10
 Atoms. Timestep: 1480
C 6.10508 7.01929 8.16786
C 7.25979 7.665 8.40763
C 8.36509 7.71037 7.43269
C 8.32333 7.61531 6.07353
H 5.30378 7.12985 8.9271
H 5.90356 6.50853 7.22964
H 7.53921 8.10397 9.32745
H 9.36186 8.02147 7.82407
H 7.39313 7.46488 5.44953
H 9.30268 7.93146 5.64089
10
 Atoms. Timestep: 1500
C 6.10876 7.02595 8.18136
C 7.29843 7.63543 8.37196
C 8.3904 7.74184 7.41942
C 8.28557 7.61456 6.09945
H 5.36611 7.08694 9.01179
H 5.81596 6.51265 7.2314
H 7.46269 8.16282 9.31459
H 9.34181 8.0422 7.85648
H 7.44463 7.44363 5.51139
H 9.19382 7.86507 5.53019
10
 Atoms. Timestep: 1520
C 6.1059 7.04531 8.22759
C 7.29996 7.59649 8.34329
C 8.39662 7.78204 7.42039
C 8.32876 7.65173 6.07
H 5.37993 6.98522 9.0078
H 5.78278 6.52359 7.35537
H 7.36776 8.16106 9.34691
H 9.35285 8.03507 7.86009
H 7.34295 7.3666 5.63274
H 9.11032 7.69502 5.31853
10
 Atoms. Timestep: 1540
C 6.10368 7.01254 8.18294
C 7.30182 7.6527 8.3848
C 8.43246 7.81187 7.38579
C 8.27141 7.64111 6.08045
H 5.4514 7.00757 9.05469
H 5.79518 6.45442 7.29276
H 7.53342 8.0598 9.33944
H 9.40007 8.05587 7.86874
H 7.2191 7.32711 5.77089
H 9.06862 7.60588 5.35861
10
 Atoms. Timestep: 1560
C 6.13993 6.99926 8.2112
C 7.32016 7.68618 8.36058
C 8.41172 7.82475 7.41097
C 8.21325 7.59936 6.07363
H 5.41762 6.98598 9.06131
H 5.87656 6.49155 7.25232
H 7.59791 7.99225 9.36669
H 9.42153 8.09332 7.76715
H 7.24015 7.39014 5.73552
H 9.05992 7.60945 5.3677
10
 Atoms. Timestep: 1580
C 6.17074 7.01777 8.3104
C 7.31406 7.65244 8.37564
C 8.35936 7.81052 7.34596
C 8.25459 7.59427 6.04747
H 5.38188 6.89765 9.03267
H 5.93117 6.5929 7.36428
H 7.53476 8.07438 9.4378
H 9.32705 8.10364 7.70252
H 7.28144 7.43928 5.57528
H 9.07516 7.66217 5.29972
10
 Atoms. Timestep: 1600
C 6.17689 7.01082 8.28751
C 7.36465 7.66506 8.46889
C 8.31798 7.78966 7.33532
C 8.21892 7.592 5.99287
H 5.48987 6.91084 9.13847
H 5.88417 6.53046 7.34403
H 7.60883 8.21594 9.34397
H 9.30357 8.10117 7.73694
H 7.25826 7.35972 5.39902
H 9.1087 7.75664 5.41901
10
 Atoms. Timestep: 1620
C 6.21491 7.02017 8.29622
C 7.36736 7.66962 8.434
C 8.29926 7.77256 7.35043
C 8.15444 7.60895 6.00066
H 5.58249 6.96636 9.17337
H 5.92118 6.45903 7.38166
H 7.6731 8.21766 9.31222
H 9.32269 8.07821 7.61729
H 7.33487 7.25615 5.42215
H 9.07387 7.81482 5.49444
10
 Atoms. Timestep: 1640
C 6.20048 7.00082 8.4007
C 7.35434 7.6757 8.35189
C 8.33873 7.77473 7.2992
C 8.16745 7.63258 6.00495
H 5.46413 6.97594 9.21602
H 5.97983 6.44998 7.5072
H 7.64272 8.12454 9.40233
H 9.31911 8.11139 7.57655
H 7.29768 7.23031 5.54634
H 9.05446 7.82489 5.30015
10
 Atoms. Timestep: 1660
C 6.23747 6.98082 8.35279
C 7.36457 7.68205 8.38941
C 8.3966 7.81806 7.30664
C 8.13101 7.59155 5.99882
H 5.54862 7.01089 9.20172
H 5.84778 6.35371 7.55434
H 7.65893 8.16342 9.28633
H 9.36673 8.20518 7.69712
H 7.07787 7.29655 5.66156
H 8.84616 7.75542 5.20195
10
 Atoms. Timestep: 1680
C 6.21855 6.94679 8.33948
C 7.43484 7.68022 8.38492
C 8.39171 7.85571 7.30886
C 8.10248 7.57036 6.00384
H 5.67091 7.04255 9.27626
H 5.83519 6.31019 7.49576
H 7.62718 8.27792 9.27033
H 9.37885 8.22307 7.63341
H 7.02908 7.40153 5.84171
H 8.69728 7.64635 5.14894
10
 Atoms. Timestep: 1700
C 6.27447 6.97324 8.4431
C 7.37434 7.63449 8.3433
C 8.39425 7.85642 7.26329
C 8.08371 7.61133 5.99367
H 5.61504 6.96675 9.2945
H 5.97722 6.39234 7.59626
H 7.56122 8.28496 9.3026
H 9.3881 8.1839 7.48316
H 7.05881 7.36686 5.8559
H 8.76303 7.57232 5.09636
10
 Atoms. Timestep: 1720
C 6.29363 6.93809 8.45622
C 7.43374 7.7458 8.37502
C 8.36563 7.8178 7.2457
C 8.00395 7.62325 5.97625
H 5.59194 6.92834 9.33823
H 5.9845 6.28426 7.63117
H 7.69722 8.25706 9.2702
H 9.40568 8.13068 7.51329
H 7.01981 7.24349 5.60244
H 8.84316 7.62653 5.21447
10
 Atoms. Timestep: 1740
C 6.36231 6.95048 8.4533
C 7.42146 7.77066 8.44025
C 8.27805 7.78914 7.25159
C 7.99182 7.5933 5.91844
H 5.76323 6.9532 9.34053
H 6.05249 6.23015 7.68109
H 7.83424 8.34445 9.2658
H 9.33142 8.04947 7.47376
H 7.03147 7.28523 5.46843
H 8.78931 7.73604 5.27796
10
 Atoms. Timestep: 1760
C 6.37382 6.95926 8.55858
C 7.43817 7.73529 8.41052
C 8.21413 7.78258 7.19723
C 8.01873 7.57589 5.90306
H 5.78929 6.9102 9.45415
H 6.2154 6.31167 7.69429
H 7.75488 8.44456 9.29185
H 9.22909 8.02512 7.38373
H 7.04492 7.42436 5.48967
H 8.82135 7.786 5.15899
10
 Atoms. Timestep: 1780
C 6.42197 6.94996 8.54436
C 7.45419 7.75818 8.38816
C 8.2876 7.80854 7.19599
C 7.91687 7.55811 5.93957
H 5.79968 6.85139 9.46893
H 6.12795 6.24411 7.76199
H 7.69389 8.4284 9.15874
H 9.34107 8.10659 7.40976
H 6.91856 7.45658 5.49308
H 8.75906 7.68415 5.18797
10
 Atoms. Timestep: 1800
C 6.41712 6.88205 8.54041
C 7.45411 7.79516 8.36948
C 8.35592 7.83468 7.1995
C 7.88055 7.59733 5.92083
H 5.84218 6.94518 9.51418
H 6.06564 6.14074 7.83559
H 7.73113 8.47684 9.17139
H 9.42655 8.12822 7.3595
H 6.81535 7.37117 5.69805
H 8.59694 7.50253 5.12895
10
 Atoms. Timestep: 1820
C 6.44552 6.90313 8.59517
C 7.43405 7.75004 8.33693
C 8.3325 7.85037 7.14779
C 7.91162 7.62735 5.92608
H 5.89349 7.00773 9.47414
H 6.17401 6.10898 7.88745
H 7.67651 8.46268 9.22685
H 9.35389 8.06907 7.29365
H 6.86915 7.33688 5.96508
H 8.41478 7.44936 5.00601
10
 Atoms. Timestep: 1840
C 6.46979 6.91247 8.59496
C 7.49503 7.7667 8.33469
C 8.33162 7.85982 7.17327
C 7.83498 7.57391 5.92853
H 5.88687 7.00254 9.50774
H 6.2518 6.05587 7.90831
H 7.655 8.47042 9.10966
H 9.40096 8.10105 7.37483
H 6.75267 7.33171 5.87805
H 8.38821 7.58096 4.92167
10
 Atoms. Timestep: 1860
C 6.49537 6.89046 8.61673
C 7.50277 7.79049 8.39054
C 8.32195 7.81606 7.11426
C 7.79393 7.54965 5.91556
H 5.87212 6.97833 9.55569
H 6.2713 6.07547 7.96512
H 7.75181 8.60389 9.07933
H 9.36601 8.18807 7.309
H 6.75353 7.3671 5.70006
H 8.42514 7.72724 5.0573
10
 Atoms. Timestep: 1880
C 6.54782 6.91263 8.68874
C 7.48862 7.77572 8.38202
C 8.24718 7.77795 7.1397
C 7.81636 7.58018 5.86762
H 5.90727 6.9416 9.56132
H 6.3169 6.12532 7.99119
H 7.78571 8.61991 9.0992
H 9.24399 8.16417 7.06812
H 6.77154 7.33963 5.64677
H 8.49869 7.75052 5.05394
10
 Atoms. Timestep: 1900
C 6.56992 6.91375 8.67236
C 7.52877 7.8125 8.37199
C 8.21503 7.79194 7.11278
C 7.76661 7.57864 5.90745
H 6.03951 6.9621 9.59653
H 6.3393 6.0681 7.94682
H 7.76504 8.5395 9.11254
H 9.25999 8.12318 7.17571
H 6.75861 7.26476 5.59081
H 8.47957 7.68138 5.07908
10
 Atoms. Timestep: 1920
C 6.57639 6.89561 8.66539
C 7.50811 7.80961 8.38872
C 8.26011 7.86564 7.10547
C 7.71979 7.55266 5.85546
H 6.12397 6.93175 9.68302
H 6.32145 6.08688 8.00221
H 7.81465 8.54095 9.12587
H 9.34108 8.09644 7.30677
H 6.68437 7.25142 5.67106
H 8.45206 7.57138 5.0098
10
 Atoms. Timestep: 1940
C 6.58549 6.88712 8.69295
C 7.50898 7.80643 8.34072
C 8.23923 7.89174 7.07181
C 7.77014 7.55105 5.90573
H 6.11727 6.83111 9.69457
H 6.27285 6.1106 8.0358
H 7.83237 8.54018 9.16568
H 9.28397 8.12206 7.12388
H 6.7217 7.33844 5.83772
H 8.27276 7.45956 4.96406
10
 Atoms. Timestep: 1960
C 6.60487 6.88665 8.70208
C 7.51195 7.81035 8.34038
C 8.27158 7.89638 7.10043
C 7.7269 7.52524 5.89412
H 6.16272 6.86442 9.67292
H 6.24914 6.09688 7.9707
H 7.82423 8.49891 9.09607
H 9.31206 8.26147 7.05338
H 6.61819 7.34073 5.93938
H 8.26592 7.44587 4.93449
10
 Atoms. Timestep: 1980
C 6.60533 6.87943 8.70689
C 7.55157 7.81262 8.37296
C 8.27764 7.86684 7.03945
C 7.67385 7.5291 5.89362
H 6.17093 6.9524 9.68757
H 6.31035 6.10192 7.97929
H 7.8357 8.54285 9.11772
H 9.27637 8.3527 7.18219
H 6.63166 7.21693 5.85494
H 8.24864 7.52522 4.98981
10
 Atoms. Timestep: 2000
C 6.64401 6.91956 8.73169
C 7.58203 7.76798 8.36424
C 8.20447 7.86046 7.08064
C 7.6816 7.54522 5.85967
H 6.08114 6.94607 9.70278
H 6.36427 6.11715 8.11614
H 7.87255 8.58023 9.11454
H 9.20438 8.27669 7.05976
H 6.7131 7.08918 5.77271
H 8.21586 7.65138 4.90567
10
 Atoms. Timestep: 2020
C 6.64715 6.91505 8.74493
C 7.60033 7.78354 8.39216
C 8.17738 7.86384 7.03908
C 7.67303 7.52546 5.88265
H 6.13054 7.00117 9.71478
H 6.35648 6.03732 8.11696
H 7.951 8.5658 9.05404
H 9.17043 8.26452 6.96017
H 6.69547 7.02452 5.72102
H 8.23277 7.79931 4.96906
10
 Atoms. Timestep: 2040
C 6.65611 6.89897 8.7643
C 7.60211 7.8031 8.38069
C 8.21157 7.87275 7.04146
C 7.62091 7.47958 5.85763
H 6.25031 7.00374 9.73173
H 6.32422 6.08355 8.07937
H 7.95757 8.52956 9.08061
H 9.19972 8.42917 7.00521
H 6.6153 7.05465 5.71208
H 8.23268 7.79287 5.01553
10
 Atoms. Timestep: 2060
C 6.69991 6.91554 8.76942
C 7.59363 7.78556 8.33769
C 8.19034 7.88087 7.03535
C 7.64332 7.49511 5.8787
H 6.30424 6.88962 9.79073
H 6.27914 6.19373 8.11741
H 7.93673 8.50218 9.1537
H 9.09386 8.4675 6.9941
H 6.64746 7.11631 5.80422
H 8.09934 7.58816 4.90187
10
 Atoms. Timestep: 2080
C 6.69069 6.89051 8.76522
C 7.5988 7.80015 8.36492
C 8.1815 7.94284 7.00917
C 7.63476 7.50024 5.86459
H 6.3902 6.83402 9.8773
H 6.22399 6.16018 8.09309
H 8.03974 8.50811 9.0765
H 9.14484 8.4212 6.96906
H 6.61298 7.06444 6.00651
H 8.07782 7.42951 4.84312
10
 Atoms. Timestep: 2100
C 6.69854 6.88699 8.76109
C 7.61727 7.81738 8.36214
C 8.18618 7.99994 6.98611
C 7.56347 7.46791 5.89131
H 6.46482 6.82625 9.7769
H 6.24303 6.12776 8.08565
H 8.0833 8.44618 9.07715
H 9.25332 8.38523 6.96669
H 6.59699 6.96995 6.02258
H 8.08978 7.4313 4.95613
10
 Atoms. Timestep: 2120
C 6.73845 6.90788 8.8236
C 7.6328 7.80704 8.3255