LAMMPS (2 Aug 2023 - Update 2)
#13 Butadiene
units           metal
boundary        p p p
atom_style      atomic

neighbor        2.0 bin
neigh_modify    delay 0 every 1 check yes

read_data       restart.lmp
Reading data file ...
  orthogonal box = (0 0 0) to (15 15 15)
  1 by 1 by 3 MPI processor grid
  reading atoms ...
  10 atoms
  reading velocities ...
  10 velocities
  read_data CPU = 0.001 seconds
mass            1 12.0
mass            2 2

variable        sysvol          equal vol
variable        sysmass         equal mass(all)/6.0221367e+23
variable        sysdensity      equal v_sysmass/v_sysvol/1.0e-24
variable	out_freq 	equal 100

pair_style      deepmd ../files/frozen_model_1_compressed.pb ../files/frozen_model_2_compressed.pb ../files/frozen_model_3_compressed.pb ../files/frozen_model_3_compressed.pb out_file md.out out_freq 10 atomic relative 1.0
Summary of lammps deepmd module ...
  >>> Info of deepmd-kit:
  installed to:       /rs1/researchers/w/wjpfaend/rahul/MLP/DeePMD-kit/deepmd_cpu
  source:             v2.2.8-dirty
  source branch:      master
  source commit:      b875ea8
  source commit at:   2024-01-22 22:28:58 -0500
  support model ver.: 1.1 
  build variant:      cpu
  build with tf inc:  /rs1/researchers/w/wjpfaend/rahul/MLP/DeePMD-kit/tensorflow/lib/python3.11/site-packages/tensorflow/include;/rs1/researchers/w/wjpfaend/rahul/MLP/DeePMD-kit/tensorflow/lib/python3.11/site-packages/tensorflow/include
  build with tf lib:  /rs1/researchers/w/wjpfaend/rahul/MLP/DeePMD-kit/tensorflow/lib/python3.11/site-packages/tensorflow/libtensorflow_cc.so.2
  set tf intra_op_parallelism_threads: 0
  set tf inter_op_parallelism_threads: 0
  >>> Info of lammps module:
  use deepmd-kit at:  /rs1/researchers/w/wjpfaend/rahul/MLP/DeePMD-kit/deepmd_cpu
  source:             v2.2.8-dirty
  source branch:      master
  source commit:      b875ea8
  source commit at:   2024-01-22 22:28:58 -0500
  build float prec:   double
  build with tf inc:  /rs1/researchers/w/wjpfaend/rahul/MLP/DeePMD-kit/tensorflow/lib/python3.11/site-packages/tensorflow/include;/rs1/researchers/w/wjpfaend/rahul/MLP/DeePMD-kit/tensorflow/lib/python3.11/site-packages/tensorflow/include
  build with tf lib:  /rs1/researchers/w/wjpfaend/rahul/MLP/DeePMD-kit/tensorflow/lib/python3.11/site-packages/tensorflow/libtensorflow_cc.so.2
pair_coeff	* *

#
velocity        all create 300.0 2345678 rot no dist gaussian
fix             1 all nvt temp 300.0 300.0 0.05
fix             2 all plumed plumedfile plumed.dat outfile PLUMED.log

timestep        0.0005
thermo_style    custom step pe ke etotal v_sysdensity temp press vol
thermo          10

dump            10 all custom 100 btd.dump id type x y z
dump		101 all xyz 20 btd.xyz
dump_modify	101 element C H

fix		extra all print 20 "$(step), $(ke), $(pe), $(etotal), $(temp), $(press), $(vol)" file logfile screen no

restart	        20000 dump.restart

run             50000

CITE-CITE-CITE-CITE-CITE-CITE-CITE-CITE-CITE-CITE-CITE-CITE-CITE

Your simulation uses code contributions which should be cited:

- USER-DEEPMD package:

@article{Wang_ComputPhysCommun_2018_v228_p178,
  author = {Wang, Han and Zhang, Linfeng and Han, Jiequn and E, Weinan},
  doi = {10.1016/j.cpc.2018.03.016},
  url = {https://doi.org/10.1016/j.cpc.2018.03.016},
  year = 2018,
  month = {jul},
  publisher = {Elsevier {BV}},
  volume = 228,
  journal = {Comput. Phys. Commun.},
  title = {{DeePMD-kit: A deep learning package for many-body potential energy representation and molecular dynamics}},
  pages = {178--184}
}
@misc{Zeng_JChemPhys_2023_v159_p054801,
  title  = {{DeePMD-kit v2: A software package for deep potential models}},
  author =   {Jinzhe Zeng and Duo Zhang and Denghui Lu and Pinghui Mo and Zeyu Li
         and Yixiao Chen and Mari{\'a}n Rynik and Li'ang Huang and Ziyao Li and 
         Shaochen Shi and Yingze Wang and Haotian Ye and Ping Tuo and Jiabin
         Yang and Ye Ding and Yifan Li and Davide Tisi and Qiyu Zeng and Han 
         Bao and Yu Xia and Jiameng Huang and Koki Muraoka and Yibo Wang and 
         Junhan Chang and Fengbo Yuan and Sigbj{\o}rn L{\o}land Bore and Chun
         Cai and Yinnian Lin and Bo Wang and Jiayan Xu and Jia-Xin Zhu and 
         Chenxing Luo and Yuzhi Zhang and Rhys E A Goodall and Wenshuo Liang
         and Anurag Kumar Singh and Sikai Yao and Jingchao Zhang and Renata
         Wentzcovitch and Jiequn Han and Jie Liu and Weile Jia and Darrin M
         York and Weinan E and Roberto Car and Linfeng Zhang and Han Wang},
  journal =  {J. Chem. Phys.},
  volume =   159,
  issue =    5,  
  year =    2023,
  pages  =   054801,
  doi =      {10.1063/5.0155600},
}

CITE-CITE-CITE-CITE-CITE-CITE-CITE-CITE-CITE-CITE-CITE-CITE-CITE

Generated 0 of 1 mixed pair_coeff terms from geometric mixing rule
Neighbor list info ...
  update: every = 1 steps, delay = 0 steps, check = yes
  max neighbors/atom: 2000, page size: 100000
  master list distance cutoff = 8
  ghost atom cutoff = 8
  binsize = 4, bins = 4 4 4
  1 neighbor lists, perpetual/occasional/extra = 1 0 0
  (1) pair deepmd, perpetual
      attributes: full, newton on
      pair build: full/bin/atomonly
      stencil: full/bin/3d
      bin: standard
Per MPI rank memory allocation (min/avg/max) = 2.958 | 2.999 | 3.082 Mbytes
   Step         PotEng         KinEng         TotEng      v_sysdensity       Temp          Press          Volume    
         0  -56.701056      0.34900239    -56.352054      0.029520714    300           -2533.56        3375         
        10  -56.477073      0.57810766    -55.898965      0.029520714    496.93727     -322.063        3375         
        20  -56.468799      0.50318258    -55.965616      0.029520714    432.53221      1688.8933      3375         
        30  -56.299671      0.35343185    -55.946239      0.029520714    303.80753      1650.5905      3375         
        40  -56.517102      0.55958326    -55.957518      0.029520714    481.01384     -400.17144      3375         
        50  -56.501556      0.51206397    -55.989492      0.029520714    440.16659     -1677.4914      3375         
        60  -56.300863      0.29897264    -56.00189       0.029520714    256.99477     -211.15427      3375         
        70  -56.541398      0.52443346    -56.016965      0.029520714    450.79932      172.57979      3375         
        80  -56.429931      0.37486816    -56.055063      0.029520714    322.23404     -30.279273      3375         
        90  -56.412556      0.34587669    -56.06668       0.029520714    297.31317      1013.1354      3375         
       100  -56.487112      0.40605637    -56.081056      0.029520714    349.0432       769.50178      3375         
       110  -56.567036      0.44350413    -56.123532      0.029520714    381.23303     -576.26761      3375         
       120  -56.522564      0.36823906    -56.154325      0.029520714    316.5357      -1068.9998      3375         
       130  -56.504005      0.351821      -56.152184      0.029520714    302.42286     -310.65573      3375         
       140  -56.494205      0.30230323    -56.191902      0.029520714    259.85773      996.3574       3375         
       150  -56.576784      0.37259217    -56.204192      0.029520714    320.2776       576.87213      3375         
       160  -56.482669      0.25825529    -56.224414      0.029520714    221.99443     -1420.5378      3375         
       170  -56.592536      0.36140699    -56.231129      0.029520714    310.66291     -660.39506      3375         
       180  -56.584204      0.3367691     -56.247435      0.029520714    289.48435      1753.3373      3375         
       190  -56.552638      0.29842727    -56.254211      0.029520714    256.52598      876.22635      3375         
       200  -56.620655      0.3588033     -56.261852      0.029520714    308.42479     -698.5706       3375         
       210  -56.511862      0.24492174    -56.266941      0.029520714    210.53301     -880.30837      3375         
       220  -56.521011      0.25070276    -56.270308      0.029520714    215.50232     -702.88775      3375         
       230  -56.623131      0.35464139    -56.26849       0.029520714    304.84724      263.98452      3375         
       240  -56.603158      0.33047783    -56.27268       0.029520714    284.07641      781.9119       3375         
       250  -56.528217      0.25771436    -56.270503      0.029520714    221.52945      692.04699      3375         
       260  -56.703517      0.43278615    -56.27073       0.029520714    372.01993      485.08015      3375         
       270  -56.479329      0.20556284    -56.273766      0.029520714    176.70037     -795.41207      3375         
       280  -56.534004      0.26866595    -56.265338      0.029520714    230.94336     -1978.2644      3375         
       290  -56.632535      0.36659034    -56.265945      0.029520714    315.11847     -172.22471      3375         
       300  -56.509434      0.24799014    -56.261444      0.029520714    213.17058      2153.8672      3375         
       310  -56.584606      0.32582183    -56.258784      0.029520714    280.07416      993.81806      3375         
       320  -56.636674      0.38125664    -56.255417      0.029520714    327.72552     -938.56562      3375         
       330  -56.501479      0.25283491    -56.248644      0.029520714    217.33511     -866.37603      3375         
       340  -56.517377      0.26417987    -56.253197      0.029520714    227.08716     -296.32816      3375         
       350  -56.623825      0.39076191    -56.233063      0.029520714    335.89618      247.29663      3375         
       360  -56.465467      0.23156722    -56.2339        0.029520714    199.05355      412.90891      3375         
       370  -56.59501       0.36891143    -56.226099      0.029520714    317.11367      80.36265       3375         
       380  -56.555088      0.33609192    -56.218996      0.029520714    288.90225      432.12222      3375         
       390  -56.548665      0.33925416    -56.209411      0.029520714    291.62049     -85.391291      3375         
       400  -56.494563      0.29189077    -56.202672      0.029520714    250.90725     -873.83575      3375         
       410  -56.573452      0.37958859    -56.193863      0.029520714    326.29168     -69.997617      3375         
       420  -56.478997      0.29389491    -56.185102      0.029520714    252.63         992.31809      3375         
       430  -56.543003      0.36300272    -56.18          0.029520714    312.03458     -319.38969      3375         
       440  -56.521481      0.36371562    -56.157766      0.029520714    312.64738     -1130.8803      3375         
       450  -56.525107      0.36642461    -56.158683      0.029520714    314.97601      256.72251      3375         
       460  -56.499569      0.3469542     -56.152615      0.029520714    298.23939      1147.9789      3375         
       470  -56.515633      0.4037131     -56.111919      0.029520714    347.02894      840.85135      3375         
       480  -56.509432      0.3860817     -56.123351      0.029520714    331.87311     -639.57339      3375         
       490  -56.393161      0.29143287    -56.101729      0.029520714    250.51365     -1633.1705      3375         
       500  -56.559119      0.47141611    -56.087703      0.029520714    405.22597     -35.284634      3375         
       510  -56.494803      0.41811461    -56.076689      0.029520714    359.40838      982.68527      3375         
       520  -56.433797      0.37285625    -56.060941      0.029520714    320.50461      186.15415      3375         
       530  -56.471765      0.42730321    -56.044461      0.029520714    367.30683      436.06234      3375         
       540  -56.532452      0.49587966    -56.036572      0.029520714    426.25466      655.42499      3375         
       550  -56.366222      0.34894711    -56.017275      0.029520714    299.95248     -1307.5664      3375         
       560  -56.511636      0.53607178    -55.975565      0.029520714    460.80353     -1656.8719      3375         
       570  -56.481283      0.50717392    -55.974109      0.029520714    435.96314      489.31639      3375         
       580  -56.394747      0.43487821    -55.959868      0.029520714    373.81825      1648.3866      3375         
       590  -56.421595      0.51859178    -55.903003      0.029520714    445.77785      1031.0324      3375         
       600  -56.365867      0.44891884    -55.916948      0.029520714    385.88747     -1107.8917      3375         
       610  -56.396959      0.53712248    -55.859837      0.029520714    461.7067      -1290.5417      3375         
       620  -56.361262      0.50667768    -55.854584      0.029520714    435.53657      781.13089      3375         
       630  -56.477519      0.65471979    -55.8228        0.029520714    562.79252      587.51525      3375         
       640  -56.228212      0.42670425    -55.801508      0.029520714    366.79197     -747.38051      3375         
       650  -56.431073      0.64610108    -55.784972      0.029520714    555.38394     -516.28126      3375         
       660  -56.317888      0.54184555    -55.776042      0.029520714    465.76663      1071.2401      3375         
       670  -56.39466       0.62225655    -55.772404      0.029520714    534.88735      537.67857      3375         
       680  -56.246888      0.48319428    -55.763694      0.029520714    415.3504      -774.42493      3375         
       690  -56.485066      0.70969211    -55.775373      0.029520714    610.04634     -285.15657      3375         
       700  -56.219208      0.4219302     -55.797278      0.029520714    362.68823      494.09659      3375         
       710  -56.401419      0.58859604    -55.812823      0.029520714    505.95302     -369.93408      3375         
       720  -56.446233      0.58720823    -55.859025      0.029520714    504.76006     -1162.6927      3375         
       730  -56.3458        0.46005629    -55.885744      0.029520714    395.46115      561.63218      3375         
       740  -56.345938      0.41362529    -55.932313      0.029520714    355.54939      2056.3339      3375         
       750  -56.558179      0.58107449    -55.977105      0.029520714    499.48754      243.93713      3375         
       760  -56.396682      0.38085811    -56.015824      0.029520714    327.38295     -1807.8404      3375         
       770  -56.35891       0.31235432    -56.046556      0.029520714    268.49757     -1250.4102      3375         
       780  -56.671281      0.58070578    -56.090575      0.029520714    499.1706       699.26129      3375         
       790  -56.463135      0.34306268    -56.120072      0.029520714    294.89427      1289.2092      3375         
       800  -56.448258      0.31556618    -56.132692      0.029520714    271.25847      315.19136      3375         
       810  -56.614575      0.45277995    -56.161795      0.029520714    389.20646     -273.22468      3375         
       820  -56.562359      0.38309007    -56.179269      0.029520714    329.30153     -251.50845      3375         
       830  -56.424995      0.23465502    -56.19034       0.029520714    201.70781     -470.48861      3375         
       840  -56.603032      0.39680205    -56.20623       0.029520714    341.08825     -999.58468      3375         
       850  -56.575734      0.36224022    -56.213494      0.029520714    311.37914      114.70311      3375         
       860  -56.519871      0.29428382    -56.225587      0.029520714    252.9643       1746.2453      3375         
       870  -56.583612      0.35263868    -56.230973      0.029520714    303.12573      371.56084      3375         
       880  -56.519351      0.27941659    -56.239934      0.029520714    240.18453     -1022.4718      3375         
       890  -56.563448      0.31480282    -56.248645      0.029520714    270.60229     -451.1403       3375         
       900  -56.575384      0.32754697    -56.247837      0.029520714    281.55707      329.76506      3375         
       910  -56.597187      0.33812129    -56.259066      0.029520714    290.64668      474.57465      3375         
       920  -56.496156      0.23704715    -56.259108      0.029520714    203.76406     -435.46808      3375         
       930  -56.641767      0.38030988    -56.261457      0.029520714    326.9117      -978.47973      3375         
       940  -56.493612      0.22432524    -56.269286      0.029520714    192.8284       888.753        3375         
       950  -56.564191      0.3030068     -56.261184      0.029520714    260.46252      1209.4186      3375         
       960  -56.624885      0.35184938    -56.273035      0.029520714    302.44725     -669.51841      3375         
       970  -56.589914      0.32608601    -56.263828      0.029520714    280.30124     -746.01168      3375         
       980  -56.489461      0.22809552    -56.261365      0.029520714    196.06931      293.18892      3375         
       990  -56.639769      0.37698756    -56.262782      0.029520714    324.05585     -298.05599      3375         
      1000  -56.535607      0.26799843    -56.267608      0.029520714    230.36956     -331.89727      3375         
      1010  -56.5102        0.25528612    -56.254913      0.029520714    219.44216      270.0117       3375         
      1020  -56.62594       0.37941586    -56.246524      0.029520714    326.1432       947.6628       3375         
      1030  -56.535077      0.28937948    -56.245697      0.029520714    248.74857      867.6731       3375         
      1040  -56.546584      0.3012568     -56.245327      0.029520714    258.95822     -1440.6329      3375         
      1050  -56.604541      0.39029872    -56.214243      0.029520714    335.49803     -1481.4785      3375         
      1060  -56.553732      0.32654878    -56.227183      0.029520714    280.69904      975.95368      3375         
      1070  -56.38265       0.18737911    -56.195271      0.029520714    161.06977      1393.8186      3375         
      1080  -56.621835      0.42918729    -56.192647      0.029520714    368.92638     -291.00412      3375         
      1090  -56.494044      0.31100798    -56.183036      0.029520714    267.34027     -661.08972      3375         
      1100  -56.486668      0.34184216    -56.144825      0.029520714    293.84512     -220.31125      3375         
      1110  -56.582799      0.4518297     -56.13097       0.029520714    388.38963      72.101839      3375         
      1120  -56.486096      0.3738652     -56.112231      0.029520714    321.37189     -88.728737      3375         
      1130  -56.368129      0.27398945    -56.094139      0.029520714    235.5194      -189.82846      3375         
      1140  -56.547951      0.48269883    -56.065252      0.029520714    414.92452      801.80609      3375         
      1150  -56.438468      0.39121908    -56.047249      0.029520714    336.28917      867.51967      3375         
      1160  -56.405371      0.38135937    -56.024012      0.029520714    327.81383     -1163.6974      3375         
      1170  -56.534217      0.53068222    -56.003535      0.029520714    456.1707      -836.54304      3375         
      1180  -56.446856      0.46425248    -55.982604      0.029520714    399.06817      613.55787      3375         
      1190  -56.473001      0.51122268    -55.961778      0.029520714    439.44342      478.85368      3375         
      1200  -56.43454       0.47786118    -55.956679      0.029520714    410.76611     -472.73165      3375         
      1210  -56.356204      0.40799406    -55.948209      0.029520714    350.70882     -544.15661      3375         
      1220  -56.312788      0.39216655    -55.920621      0.029520714    337.10361      1108.281       3375         
      1230  -56.618533      0.68961097    -55.928922      0.029520714    592.78474      928.21274      3375         
      1240  -56.378928      0.45030058    -55.928628      0.029520714    387.07521     -693.62266      3375         
      1250  -56.292208      0.35995267    -55.932255      0.029520714    309.41278     -1468.2069      3375         
      1260  -56.540507      0.60160319    -55.938904      0.029520714    517.13387     -383.95224      3375         
      1270  -56.393345      0.43944423    -55.953901      0.029520714    377.74317      900.25143      3375         
      1280  -56.265035      0.30020944    -55.964826      0.029520714    258.05792      535.12299      3375         
      1290  -56.557724      0.57108036    -55.986643      0.029520714    490.89666      272.52666      3375         
      1300  -56.518335      0.49169344    -56.026642      0.029520714    422.65622      632.54216      3375         
      1310  -56.364609      0.326935      -56.037674      0.029520714    281.03103     -281.7708       3375         
      1320  -56.57103       0.47515158    -56.095878      0.029520714    408.43696     -1519.9644      3375         
      1330  -56.465774      0.33848991    -56.127284      0.029520714    290.96354     -507.24735      3375         
      1340  -56.430499      0.26737232    -56.163127      0.029520714    229.83137      1062.2253      3375         
      1350  -56.574832      0.37819117    -56.196641      0.029520714    325.09047      1051.9953      3375         
      1360  -56.608427      0.37381876    -56.234608      0.029520714    321.33197     -144.97814      3375         
      1370  -56.510075      0.25161948    -56.258456      0.029520714    216.29034     -946.95351      3375         
      1380  -56.692895      0.41523845    -56.277656      0.029520714    356.93605     -234.56125      3375         
      1390  -56.571536      0.27533793    -56.296198      0.029520714    236.67854      397.75362      3375         
      1400  -56.492644      0.18744064    -56.305203      0.029520714    161.12266     -163.74924      3375         
      1410  -56.64983       0.33775513    -56.312074      0.029520714    290.33193      264.70784      3375         
      1420  -56.589636      0.27355048    -56.316086      0.029520714    235.14207      462.64225      3375         
      1430  -56.527491      0.21554186    -56.311949      0.029520714    185.27827     -321.62064      3375         
      1440  -56.682293      0.36476794    -56.317525      0.029520714    313.55196     -408.41938      3375         
      1450  -56.637696      0.31884276    -56.318853      0.029520714    274.07499     -65.420844      3375         
      1460  -56.513378      0.19608252    -56.317296      0.029520714    168.55116      338.83026      3375         
      1470  -56.648599      0.33417747    -56.314422      0.029520714    287.2566       387.51183      3375         
      1480  -56.552457      0.23919811    -56.313258      0.029520714    205.61301     -612.96451      3375         
      1490  -56.493221      0.18477555    -56.308446      0.029520714    158.83177     -427.61415      3375         
      1500  -56.664365      0.35934078    -56.305024      0.029520714    308.8868       940.89796      3375         
      1510  -56.66051       0.36439855    -56.296112      0.029520714    313.23443      433.86269      3375         
      1520  -56.500763      0.21189148    -56.288872      0.029520714    182.14042     -811.14573      3375         
      1530  -56.592431      0.31633327    -56.276098      0.029520714    271.91785     -424.15378      3375         
      1540  -56.604912      0.33385839    -56.271054      0.029520714    286.98232     -150.73567      3375         
      1550  -56.461719      0.19185219    -56.269867      0.029520714    164.9148       361.69227      3375         
      1560  -56.56341       0.32148748    -56.241923      0.029520714    276.34838      657.36784      3375         
      1570  -56.61128       0.3765789     -56.234701      0.029520714    323.70457      108.01775      3375         
      1580  -56.52421       0.30522678    -56.218983      0.029520714    262.37079      55.009481      3375         
      1590  -56.616189      0.41019043    -56.205999      0.029520714    352.59681     -334.75967      3375         
      1600  -56.553704      0.37084934    -56.182854      0.029520714    318.77948     -1193.284       3375         
      1610  -56.378719      0.20070483    -56.178015      0.029520714    172.52446     -151.17657      3375         
      1620  -56.542187      0.38434887    -56.157838      0.029520714    330.38359      1380.3729      3375         
      1630  -56.583803      0.43968717    -56.144116      0.029520714    377.952        965.36284      3375         
      1640  -56.403898      0.2678365     -56.136061      0.029520714    230.23037     -848.60749      3375         
      1650  -56.592861      0.49323896    -56.099622      0.029520714    423.98474     -1235.8535      3375         
      1660  -56.668796      0.5718428     -56.096953      0.029520714    491.55205      165.69889      3375         
      1670  -56.342747      0.26366529    -56.079082      0.029520714    226.64483      825.09213      3375         
      1680  -56.41236       0.35114937    -56.061211      0.029520714    301.84553     -12.299827      3375         
      1690  -56.518682      0.45859998    -56.060082      0.029520714    394.20931     -416.79739      3375         
      1700  -56.325971      0.2763865     -56.049585      0.029520714    237.57989      531.75601      3375         
      1710  -56.569465      0.52947303    -56.039992      0.029520714    455.13129      218.34951      3375         
      1720  -56.590847      0.5573883     -56.033458      0.029520714    479.12706     -673.07463      3375         
      1730  -56.397813      0.37080433    -56.027009      0.029520714    318.74079     -525.468        3375         
      1740  -56.520796      0.49251316    -56.028283      0.029520714    423.36085      559.72713      3375         
      1750  -56.451353      0.42362992    -56.027723      0.029520714    364.1493       821.98548      3375         
      1760  -56.327808      0.27211253    -56.055695      0.029520714    233.90601     -875.31787      3375         
      1770  -56.434045      0.42684808    -56.007197      0.029520714    366.9156      -657.53656      3375         
      1780  -56.605012      0.55706421    -56.047948      0.029520714    478.84847      1070.4845      3375         
      1790  -56.397243      0.35549789    -56.041745      0.029520714    305.58348      678.59933      3375         
      1800  -56.592765      0.53288572    -56.059879      0.029520714    458.06482     -918.70951      3375         
      1810  -56.503524      0.42452248    -56.079002      0.029520714    364.91654     -1226.2378      3375         
      1820  -56.374993      0.28025708    -56.094736      0.029520714    240.90702      322.29148      3375         
      1830  -56.475167      0.35675719    -56.11841       0.029520714    306.66597      1623.5745      3375         
      1840  -56.580427      0.44469985    -56.135727      0.029520714    382.26086      101.53396      3375         
      1850  -56.476088      0.30643494    -56.169653      0.029520714    263.40932     -831.24368      3375         
      1860  -56.606488      0.40184336    -56.204645      0.029520714    345.42172      12.740241      3375         
      1870  -56.60586       0.36256022    -56.2433        0.029520714    311.65421      61.947386      3375         
      1880  -56.525845      0.24590079    -56.279944      0.029520714    211.37459     -786.11287      3375         
      1890  -56.534583      0.24334711    -56.291236      0.029520714    209.17946     -60.36277       3375         
      1900  -56.638555      0.3153594     -56.323195      0.029520714    271.08072      1092.5757      3375         
      1910  -56.607225      0.26280715    -56.344418      0.029520714    225.90717      914.4776       3375         
      1920  -56.607718      0.24926852    -56.35845       0.029520714    214.26947     -938.03785      3375         
      1930  -56.681502      0.31288271    -56.368619      0.029520714    268.95178     -1650.823       3375         
      1940  -56.612735      0.23485114    -56.377884      0.029520714    201.87639      642.81823      3375         
      1950  -56.599158      0.21708384    -56.382075      0.029520714    186.60374      1412.2951      3375         
      1960  -56.622999      0.23906947    -56.383929      0.029520714    205.50244     -257.34864      3375         
      1970  -56.585516      0.20048482    -56.385032      0.029520714    172.33534     -704.04821      3375         
      1980  -56.647366      0.26435977    -56.383006      0.029520714    227.2418      -40.607842      3375         
      1990  -56.709138      0.32893485    -56.380204      0.029520714    282.75009      475.11276      3375         
      2000  -56.642814      0.26373936    -56.379075      0.029520714    226.7085       67.259807      3375         
      2010  -56.55813       0.1854537     -56.372676      0.029520714    159.4147      -581.7637       3375         
      2020  -56.656369      0.28855086    -56.367818      0.029520714    248.03629      367.32686      3375         
      2030  -56.550012      0.18936384    -56.360648      0.029520714    162.77583      528.83223      3375         
      2040  -56.603547      0.24820562    -56.355341      0.029520714    213.3558      -929.17057      3375         
      2050  -56.647698      0.30237205    -56.345326      0.029520714    259.91689     -576.94455      3375         
      2060  -56.66153       0.3290695     -56.33246       0.029520714    282.86582      1039.4883      3375         
      2070  -56.564084      0.24213247    -56.321952      0.029520714    208.13537      793.03118      3375         
      2080  -56.64628       0.33817268    -56.308107      0.029520714    290.69085     -828.24081      3375         
      2090  -56.540207      0.24349084    -56.296717      0.029520714    209.30301     -1011.4338      3375         
      2100  -56.540966      0.24363103    -56.297335      0.029520714    209.42352      425.20488      3375         
      2110  -56.502988      0.23960891    -56.263379      0.029520714    205.96614      1255.2539      3375         
      2120  -56.632759      0.37272305    -56.260036      0.029520714    320.39011      74.665728      3375         
      2130  -56.592894      0.35900581    -56.233888      0.029520714    308.59887     -1026.4226      3375         
      2140  -56.595501      0.37726365    -56.218237      0.029520714    324.29317     -331.62684      3375         
      2150  -56.514942      0.31130526    -56.203637      0.029520714    267.59581      303.42699      3375         
      2160  -56.467832      0.27191385    -56.195918      0.029520714    233.73523      67.747981      3375         
      2170  -56.530663      0.35207364    -56.178589      0.029520714    302.64002     -64.394636      3375         
      2180  -56.497285      0.32781506    -56.16947       0.029520714    281.78752      639.37986      3375         
      2190  -56.483867      0.33182975    -56.152038      0.029520714    285.23852      523.84609      3375         
      2200  -56.574127      0.43093319    -56.143194      0.029520714    370.42714     -1260.5638      3375         
      2210  -56.567478      0.43967296    -56.127805      0.029520714    377.93978     -891.34292      3375         
      2220  -56.398364      0.2577092     -56.140655      0.029520714    221.52501      745.77         3375         
      2230  -56.532634      0.438629      -56.094005      0.029520714    377.0424       926.13403      3375         
      2240  -56.512478      0.40061015    -56.111868      0.029520714    344.36166      43.559322      3375         
      2250  -56.352316      0.24958016    -56.102736      0.029520714    214.53735     -652.10317      3375         
      2260  -56.533991      0.44006425    -56.093927      0.029520714    378.27613     -302.35678      3375         
      2270  -56.619473      0.52004476    -56.099428      0.029520714    447.02682      898.60406      3375         
      2280  -56.415701      0.33160032    -56.0841        0.029520714    285.0413       277.27228      3375         
      2290  -56.45017       0.35412385    -56.096046      0.029520714    304.40237     -1260.337       3375         
      2300  -56.541623      0.4518404     -56.089782      0.029520714    388.39883     -319.12609      3375         
      2310  -56.364691      0.27165282    -56.093038      0.029520714    233.51086      806.82905      3375         
      2320  -56.547685      0.46186734    -56.085817      0.029520714    397.01792     -218.86266      3375         
      2330  -56.556312      0.45382141    -56.10249       0.029520714    390.10169      302.54397      3375         
      2340  -56.485007      0.38764936    -56.097357      0.029520714    333.22066      516.154        3375         
      2350  -56.479957      0.37793217    -56.102025      0.029520714    324.86783     -82.097789      3375         
      2360  -56.531624      0.41735496    -56.114269      0.029520714    358.75539     -596.99099      3375         
      2370  -56.355913      0.23692372    -56.118989      0.029520714    203.65796     -1049.9853      3375         
      2380  -56.574837      0.44534637    -56.12949       0.029520714    382.81661      456.00475      3375         
      2390  -56.487931      0.35793675    -56.129995      0.029520714    307.67991      1582.4212      3375         
      2400  -56.522279      0.38642137    -56.135858      0.029520714    332.16509     -204.57579      3375         
      2410  -56.579411      0.42677691    -56.152634      0.029520714    366.85443     -1202.4775      3375         
      2420  -56.595711      0.4252045     -56.170506      0.029520714    365.5028       101.04458      3375         
      2430  -56.435914      0.25907514    -56.176839      0.029520714    222.69917      501.00208      3375         
      2440  -56.476116      0.28922438    -56.186891      0.029520714    248.61524      173.21395      3375         
      2450  -56.57263       0.36733997    -56.20529       0.029520714    315.76285     -119.84975      3375         
      2460  -56.458771      0.24003002    -56.218741      0.029520714    206.32811     -227.50368      3375         
      2470  -56.598021      0.3639204     -56.2341        0.029520714    312.82342     -46.01553       3375         
      2480  -56.681135      0.41340015    -56.267735      0.029520714    355.35586     -428.96682      3375         
      2490  -56.553553      0.27073919    -56.282814      0.029520714    232.7255      -127.60946      3375         
      2500  -56.533921      0.221961      -56.31196       0.029520714    190.79611      1066.8817      3375         
      2510  -56.678133      0.33671136    -56.341422      0.029520714    289.43472      467.54533      3375         
      2520  -56.515549      0.14588199    -56.369667      0.029520714    125.39913     -668.82848      3375         
      2530  -56.621136      0.23975495    -56.381381      0.029520714    206.09167     -863.03007      3375         
      2540  -56.67736       0.26784411    -56.409515      0.029520714    230.23691      243.28581      3375         
      2550  -56.628382      0.20034293    -56.428039      0.029520714    172.21337      988.08806      3375         
      2560  -56.675421      0.23036976    -56.445051      0.029520714    198.02423     -111.49724      3375         
      2570  -56.697783      0.2506993     -56.447084      0.029520714    215.49935     -779.816        3375         
      2580  -56.589787      0.12922554    -56.460561      0.029520714    111.08136     -14.096025      3375         
      2590  -56.666784      0.20693377    -56.45985       0.029520714    177.87881      429.62923      3375         
      2600  -56.731566      0.26748689    -56.464079      0.029520714    229.92984      56.039795      3375         
      2610  -56.62485       0.16167626    -56.463173      0.029520714    138.97577     -120.47262      3375         
      2620  -56.678082      0.21652438    -56.461558      0.029520714    186.12283      211.45125      3375         
      2630  -56.661742      0.20025236    -56.461489      0.029520714    172.13552      87.362029      3375         
      2640  -56.640138      0.18638509    -56.453753      0.029520714    160.21531     -739.19126      3375         
      2650  -56.631602      0.18210809    -56.449494      0.029520714    156.53883     -426.69812      3375         
      2660  -56.732193      0.28862583    -56.443568      0.029520714    248.10073      908.09743      3375         
      2670  -56.625299      0.19233888    -56.43296       0.029520714    165.33315      984.20936      3375         
      2680  -56.691712      0.26381714    -56.427895      0.029520714    226.77536     -574.83374      3375         
      2690  -56.612935      0.2025593     -56.410375      0.029520714    174.11855     -988.60731      3375         
      2700  -56.644884      0.23884921    -56.406034      0.029520714    205.3131      -43.938447      3375         
      2710  -56.600148      0.20410708    -56.396041      0.029520714    175.44901      832.69531      3375         
      2720  -56.594583      0.21147221    -56.383111      0.029520714    181.78002      121.72976      3375         
      2730  -56.618438      0.24077591    -56.377662      0.029520714    206.96928     -712.11839      3375         
      2740  -56.667108      0.31709926    -56.350009      0.029520714    272.57629      165.81532      3375         
      2750  -56.691896      0.35131417    -56.340582      0.029520714    301.98719      252.52762      3375         
      2760  -56.532012      0.20601643    -56.325995      0.029520714    177.09028     -396.1831       3375         
      2770  -56.564052      0.24412084    -56.319931      0.029520714    209.84455      100.85986      3375         
      2780  -56.583136      0.28649768    -56.296638      0.029520714    246.27139      638.27154      3375         
      2790  -56.532378      0.2401507     -56.292227      0.029520714    206.43185      121.60243      3375         
      2800  -56.507846      0.23005856    -56.277787      0.029520714    197.75672     -580.09903      3375         
      2810  -56.661707      0.39774968    -56.263958      0.029520714    341.90283     -852.9678       3375         
      2820  -56.521133      0.2658757     -56.255257      0.029520714    228.54488      460.3209       3375         
      2830  -56.57092       0.33841045    -56.23251       0.029520714    290.89525      1359.1368      3375         
      2840  -56.660627      0.42641921    -56.234208      0.029520714    366.54695     -247.1585       3375         
      2850  -56.467643      0.25547956    -56.212164      0.029520714    219.60844     -1338.6364      3375         
      2860  -56.435316      0.23453814    -56.200778      0.029520714    201.60734      11.126512      3375         
      2870  -56.548573      0.35208628    -56.196487      0.029520714    302.65089      479.41994      3375         
      2880  -56.505936      0.31299692    -56.192939      0.029520714    269.04995      378.93955      3375         
      2890  -56.528112      0.36145626    -56.166656      0.029520714    310.70525      37.716223      3375         
      2900  -56.634061      0.4698709     -56.16419       0.029520714    403.89772     -481.89336      3375         
      2910  -56.414775      0.26156787    -56.153207      0.029520714    224.8419       295.11133      3375         
      2920  -56.57336       0.42527598    -56.148084      0.029520714    365.56424     -45.205726      3375         
      2930  -56.585544      0.44910943    -56.136435      0.029520714    386.05131     -533.97551      3375         
      2940  -56.446468      0.30846951    -56.137998      0.029520714    265.15822      389.45898      3375         
      2950  -56.433259      0.31648824    -56.116771      0.029520714    272.05107      621.18166      3375         
      2960  -56.557121      0.4346432     -56.122478      0.029520714    373.61624     -337.76395      3375         
      2970  -56.372425      0.25640857    -56.116016      0.029520714    220.40701     -589.85101      3375         
      2980  -56.59496       0.48937585    -56.105584      0.029520714    420.66404     -129.08724      3375         
      2990  -56.6415        0.54105259    -56.100448      0.029520714    465.085        955.93925      3375         
      3000  -56.41434       0.3191447     -56.095195      0.029520714    274.33454      255.2114       3375         
      3010  -56.382344      0.28416361    -56.098181      0.029520714    244.26504     -1094.4587      3375         
      3020  -56.60596       0.508931      -56.097029      0.029520714    437.4735      -458.52815      3375         
      3030  -56.515293      0.42269204    -56.092601      0.029520714    363.3431       685.51225      3375         
      3040  -56.354477      0.25756875    -56.096908      0.029520714    221.40429      485.92051      3375         
      3050  -56.468023      0.36719197    -56.100831      0.029520714    315.63563      183.05832      3375         
      3060  -56.488758      0.39138439    -56.097374      0.029520714    336.43127     -281.53017      3375         
      3070  -56.555801      0.45261966    -56.103182      0.029520714    389.06868     -333.08626      3375         
      3080  -56.557472      0.44922688    -56.108245      0.029520714    386.15226     -49.569656      3375         
      3090  -56.499596      0.37597734    -56.123618      0.029520714    323.18748     -348.6345       3375         
      3100  -56.451982      0.32580866    -56.126174      0.029520714    280.06283      313.7034       3375         
      3110  -56.557385      0.41639994    -56.140985      0.029520714    357.93446      863.51367      3375         
      3120  -56.525138      0.36117229    -56.163966      0.029520714    310.46116     -415.87422      3375         
      3130  -56.470225      0.29445705    -56.175768      0.029520714    253.11321     -725.02081      3375         
      3140  -56.498247      0.30435349    -56.193893      0.029520714    261.62012     -8.8447371      3375         
      3150  -56.52383       0.30933427    -56.214495      0.029520714    265.90156      428.51425      3375         
      3160  -56.640101      0.39504329    -56.245058      0.029520714    339.57643      542.64136      3375         
      3170  -56.645747      0.37321468    -56.272532      0.029520714    320.81271     -283.77261      3375         
      3180  -56.566196      0.2684323     -56.297764      0.029520714    230.74252     -540.35897      3375         
      3190  -56.552107      0.22577968    -56.326327      0.029520714    194.07862      219.97974      3375         
      3200  -56.641838      0.3086272     -56.333211      0.029520714    265.29377      175.35639      3375         
      3210  -56.598218      0.2423147     -56.355903      0.029520714    208.29201     -135.46068      3375         
      3220  -56.579597      0.20832431    -56.371272      0.029520714    179.07411      104.63605      3375         
      3230  -56.589337      0.2107337     -56.378603      0.029520714    181.14521      176.52856      3375         
      3240  -56.648059      0.26531798    -56.382741      0.029520714    228.06547     -82.666922      3375         
      3250  -56.652254      0.26015019    -56.392104      0.029520714    223.62327     -367.95433      3375         
      3260  -56.666547      0.26971844    -56.396829      0.029520714    231.84807      15.069194      3375         
      3270  -56.652197      0.25182446    -56.400373      0.029520714    216.46653      579.12322      3375         
      3280  -56.627782      0.22151681    -56.406265      0.029520714    190.41429      49.242566      3375         
      3290  -56.600819      0.20273273    -56.398086      0.029520714    174.26763     -896.41454      3375         
      3300  -56.620881      0.21830515    -56.402576      0.029520714    187.65357     -79.081605      3375         
      3310  -56.63792       0.2417804     -56.396139      0.029520714    207.83273      742.75018      3375         
      3320  -56.631102      0.23938052    -56.391721      0.029520714    205.76981      362.24645      3375         
      3330  -56.610201      0.22919965    -56.381001      0.029520714    197.01841     -412.68923      3375         
      3340  -56.65333       0.27467842    -56.378651      0.029520714    236.11163     -441.16889      3375         
      3350  -56.675193      0.31187817    -56.363315      0.029520714    268.08828      364.53251      3375         
      3360  -56.648975      0.29650564    -56.352469      0.029520714    254.87416      94.722032      3375         
      3370  -56.532202      0.19137492    -56.340827      0.029520714    164.50453     -490.1547       3375         
      3380  -56.567667      0.23378396    -56.333883      0.029520714    200.95905      321.55611      3375         
      3390  -56.619157      0.30556028    -56.313597      0.029520714    262.65747      729.90484      3375         
      3400  -56.641699      0.33814239    -56.303557      0.029520714    290.66482     -452.2451       3375         
      3410  -56.489489      0.21555413    -56.273935      0.029520714    185.28881     -884.62342      3375         
      3420  -56.566791      0.30010118    -56.26669       0.029520714    257.96487      56.970208      3375         
      3430  -56.588436      0.33515646    -56.25328       0.029520714    288.09813      906.26243      3375         
      3440  -56.603848      0.37760449    -56.226243      0.029520714    324.58616      166.20276      3375         
      3450  -56.544798      0.32929622    -56.215502      0.029520714    283.06071     -1020.1947      3375         
      3460  -56.545241      0.34456865    -56.200673      0.029520714    296.18879     -21.508431      3375         
      3470  -56.444987      0.25075212    -56.194235      0.029520714    215.54475      1106.4064      3375         
      3480  -56.516881      0.33212416    -56.184757      0.029520714    285.49159     -118.04216      3375         
      3490  -56.54984       0.3739251     -56.175915      0.029520714    321.42339     -582.6073       3375         
      3500  -56.512848      0.34463762    -56.16821       0.029520714    296.24807     -105.18237      3375         
      3510  -56.443329      0.2805323     -56.162796      0.029520714    241.14359      339.31686      3375         
      3520  -56.551754      0.39210521    -56.159649      0.029520714    337.05088      91.070054      3375         
      3530  -56.567342      0.40913609    -56.158206      0.029520714    351.6905      -912.95647      3375         
      3540  -56.537756      0.39798488    -56.139771      0.029520714    342.105        207.5794       3375         
      3550  -56.476824      0.32392078    -56.152903      0.029520714    278.44002      1481.2131      3375         
      3560  -56.490859      0.3479697     -56.142889      0.029520714    299.1123      -365.82263      3375         
      3570  -56.407244      0.2619637     -56.14528       0.029520714    225.18215     -1392.4805      3375         
      3580  -56.490801      0.34812287    -56.142679      0.029520714    299.24397      190.01785      3375         
      3590  -56.513376      0.37424022    -56.139136      0.029520714    321.69426      898.49259      3375         
      3600  -56.592375      0.45490192    -56.137473      0.029520714    391.03049      220.48875      3375         
      3610  -56.544331      0.40807388    -56.136257      0.029520714    350.77744     -526.99311      3375         
      3620  -56.518403      0.38106389    -56.137339      0.029520714    327.55984     -575.77494      3375         
      3630  -56.486581      0.34518229    -56.141399      0.029520714    296.71627      793.41534      3375         
      3640  -56.555567      0.41322184    -56.142345      0.029520714    355.20259      500.66523      3375         
      3650  -56.348377      0.20519569    -56.143181      0.029520714    176.38477     -1162.4141      3375         
      3660  -56.389885      0.25191228    -56.137972      0.029520714    216.54203      27.067245      3375         
      3670  -56.58514       0.44378424    -56.141356      0.029520714    381.47381      960.70094      3375         
      3680  -56.657473      0.51559767    -56.141875      0.029520714    443.20413     -339.23918      3375         
      3690  -56.529584      0.38642549    -56.143159      0.029520714    332.16863     -896.21602      3375         
      3700  -56.573899      0.42301388    -56.150885      0.029520714    363.61976     -75.786198      3375         
      3710  -56.422652      0.26497062    -56.157682      0.029520714    227.76688      1072.6736      3375         
      3720  -56.422525      0.26658102    -56.155944      0.029520714    229.15117      604.62025      3375         
      3730  -56.527077      0.36486973    -56.162207      0.029520714    313.63945     -884.86417      3375         
      3740  -56.520874      0.34572498    -56.175149      0.029520714    297.18276     -680.6241       3375         
      3750  -56.445013      0.28048269    -56.16453       0.029520714    241.10095      553.08292      3375         
      3760  -56.646487      0.46927724    -56.17721       0.029520714    403.38742      504.21777      3375         
      3770  -56.612994      0.42290131    -56.190093      0.029520714    363.52299     -593.25569      3375         
      3780  -56.52923       0.33256169    -56.196668      0.029520714    285.86769     -247.655        3375         
      3790  -56.533832      0.32740293    -56.206429      0.029520714    281.43326      877.60521      3375         
      3800  -56.472991      0.25043661    -56.222554      0.029520714    215.27355      181.72802      3375         
      3810  -56.416261      0.18759736    -56.228663      0.029520714    161.25737     -989.14236      3375         
      3820  -56.674371      0.43288752    -56.241484      0.029520714    372.10706     -418.44803      3375         
      3830  -56.645136      0.38343808    -56.261698      0.029520714    329.60068      777.62697      3375         
      3840  -56.518988      0.23836378    -56.280625      0.029520714    204.89583      339.0089       3375         
      3850  -56.586451      0.29490656    -56.291544      0.029520714    253.4996      -364.6287       3375         
      3860  -56.642122      0.3271414     -56.314981      0.029520714    281.20844     -322.54757      3375         
      3870  -56.511808      0.18589902    -56.325909      0.029520714    159.79749      551.57477      3375         
      3880  -56.634252      0.29796385    -56.336288      0.029520714    256.12763      588.31502      3375         
      3890  -56.658371      0.29448191    -56.363889      0.029520714    253.13458     -929.55022      3375         
      3900  -56.529728      0.16955249    -56.360176      0.029520714    145.74613     -726.73605      3375         
      3910  -56.652117      0.27362165    -56.378495      0.029520714    235.20325      887.71785      3375         
      3920  -56.681338      0.2936318     -56.387706      0.029520714    252.40383      436.76068      3375         
      3930  -56.555599      0.15958021    -56.396019      0.029520714    137.17403     -502.82083      3375         
      3940  -56.611059      0.209903      -56.401156      0.029520714    180.43114     -271.00505      3375         
      3950  -56.675405      0.26817286    -56.407232      0.029520714    230.51951      349.24618      3375         
      3960  -56.651471      0.24370677    -56.407764      0.029520714    209.48862      412.81441      3375         
      3970  -56.711169      0.30037257    -56.410796      0.029520714    258.19814     -456.86092      3375         
      3980  -56.638714      0.222349      -56.416365      0.029520714    191.12964     -464.05677      3375         
      3990  -56.498433      0.080638517   -56.417795      0.029520714    69.316302      650.21447      3375         
      4000  -56.619684      0.21858405    -56.4011        0.029520714    187.89331      333.3462       3375         
      4010  -56.69939       0.29094543    -56.408445      0.029520714    250.09465     -966.90766      3375         
      4020  -56.622461      0.23092645    -56.391535      0.029520714    198.50275     -116.59583      3375         
      4030  -56.693773      0.31053808    -56.383235      0.029520714    266.93635      925.24308      3375         
      4040  -56.680415      0.31027603    -56.370139      0.029520714    266.7111       377.88748      3375         
      4050  -56.522895      0.16990476    -56.352991      0.029520714    146.04894     -566.06505      3375         
      4060  -56.619352      0.28071363    -56.338638      0.029520714    241.29946     -731.92867      3375         
      4070  -56.578214      0.2640358     -56.314178      0.029520714    226.96332      510.27837      3375         
      4080  -56.485299      0.18644576    -56.298853      0.029520714    160.26747      549.28606      3375         
      4090  -56.576461      0.30976557    -56.266695      0.029520714    266.27231     -855.42467      3375         
      4100  -56.7406        0.50268538    -56.237915      0.029520714    432.10481     -184.72248      3375         
      4110  -56.497005      0.29953221    -56.197473      0.029520714    257.47578      972.64085      3375         
      4120  -56.553557      0.37750933    -56.176047      0.029520714    324.50437     -3.812101       3375         
      4130  -56.443253      0.28385704    -56.159396      0.029520714    244.00151     -678.34016      3375         
      4140  -56.43082       0.28282399    -56.147996      0.029520714    243.11351      30.743105      3375         
      4150  -56.513422      0.37676773    -56.136654      0.029520714    323.86689      855.81138      3375         
      4160  -56.609432      0.49322384    -56.116208      0.029520714    423.97174      11.489106      3375         
      4170  -56.436316      0.32067211    -56.115644      0.029520714    275.64749     -1414.8906      3375         
      4180  -56.508902      0.40689136    -56.102011      0.029520714    349.76095     -706.06057      3375         
      4190  -56.501927      0.40145639    -56.10047       0.029520714    345.08908      1697.9581      3375         
      4200  -56.451922      0.34825743    -56.103665      0.029520714    299.35964      1387.5318      3375         
      4210  -56.500466      0.40899833    -56.091467      0.029520714    351.57208     -814.77638      3375         
      4220  -56.495565      0.40177529    -56.09379       0.029520714    345.36321     -1288.5388      3375         
      4230  -56.409919      0.31535373    -56.094565      0.029520714    271.07584     -35.317587      3375         
      4240  -56.52854       0.43257426    -56.095966      0.029520714    371.83779      263.34007      3375         
      4250  -56.630172      0.53428919    -56.095883      0.029520714    459.27123     -558.96312      3375         
      4260  -56.360031      0.26122234    -56.098808      0.029520714    224.54489      390.40909      3375         
      4270  -56.403905      0.29658969    -56.107316      0.029520714    254.94641      1505.7953      3375         
      4280  -56.508499      0.40361593    -56.104883      0.029520714    346.94541      26.724234      3375         
      4290  -56.54173       0.43183573    -56.109894      0.029520714    371.20295     -1244.7135      3375         
      4300  -56.570101      0.45315673    -56.116944      0.029520714    389.53034     -815.99048      3375         
      4310  -56.546368      0.4212806     -56.125088      0.029520714    362.12984      688.87749      3375         
      4320  -56.441009      0.30565369    -56.135355      0.029520714    262.73776      1108.0092      3375         
      4330  -56.492588      0.34384949    -56.148738      0.029520714    295.5706      -944.55669      3375         
      4340  -56.545137      0.40429638    -56.140841      0.029520714    347.53032     -859.21709      3375         
      4350  -56.411024      0.24434069    -56.166683      0.029520714    210.03354      1199.4542      3375         
      4360  -56.536841      0.37507432    -56.161767      0.029520714    322.41125      440.13552      3375         
      4370  -56.604292      0.42466421    -56.179628      0.029520714    365.03837     -882.87253      3375         
      4380  -56.602928      0.41153681    -56.191391      0.029520714    353.75415     -192.99106      3375         
      4390  -56.483664      0.27703663    -56.206627      0.029520714    238.13874      465.62271      3375         
      4400  -56.606212      0.382208      -56.224004      0.029520714    328.54331      196.01618      3375         
      4410  -56.389841      0.16250617    -56.227335      0.029520714    139.68916     -337.8255       3375         
      4420  -56.50566       0.26749611    -56.238164      0.029520714    229.93777     -595.16652      3375         
      4430  -56.655507      0.40249637    -56.25301       0.029520714    345.98304      709.59287      3375         
      4440  -56.639581      0.36869226    -56.270888      0.029520714    316.92527      766.81746      3375         
      4450  -56.523556      0.2416793     -56.281876      0.029520714    207.74583     -1082.204       3375         
      4460  -56.634378      0.34680414    -56.287574      0.029520714    298.1104      -467.48339      3375         
      4470  -56.601899      0.29115237    -56.310747      0.029520714    250.27253      1010.2557      3375         
      4480  -56.52596       0.20768141    -56.318278      0.029520714    178.52148      533.02553      3375         
      4490  -56.60864       0.27779586    -56.330844      0.029520714    238.79137     -621.69614      3375         
      4500  -56.594442      0.24816602    -56.346276      0.029520714    213.32177     -907.13838      3375         
      4510  -56.608491      0.26174641    -56.346745      0.029520714    224.99537      35.97052       3375         
      4520  -56.658575      0.29447003    -56.364105      0.029520714    253.12437      660.26324      3375         
      4530  -56.675691      0.300611      -56.37508       0.029520714    258.4031       44.508625      3375         
      4540  -56.553333      0.16550847    -56.387825      0.029520714    142.26991      42.953235      3375         
      4550  -56.646522      0.25997083    -56.386551      0.029520714    223.46909      573.95683      3375         
      4560  -56.6169        0.21496266    -56.401937      0.029520714    184.78039      40.341072      3375         
      4570  -56.63133       0.22614039    -56.40519       0.029520714    194.38869     -976.98309      3375         
      4580  -56.655401      0.24429271    -56.411109      0.029520714    209.99229     -588.97692      3375         
      4590  -56.664221      0.24482158    -56.4194        0.029520714    210.44691      531.31617      3375         
      4600  -56.61071       0.18854916    -56.422161      0.029520714    162.07553      730.1521       3375         
      4610  -56.65603       0.22526208    -56.430768      0.029520714    193.6337      -200.02727      3375         
      4620  -56.642894      0.21516239    -56.427732      0.029520714    184.95208     -489.08156      3375         
      4630  -56.61053       0.18089576    -56.429634      0.029520714    155.49673      431.51134      3375         
      4640  -56.694224      0.2635681     -56.430656      0.029520714    226.56129      347.72732      3375         
      4650  -56.667337      0.23759075    -56.429746      0.029520714    204.23134     -487.47188      3375         
      4660  -56.650766      0.22681049    -56.423955      0.029520714    194.9647      -601.21629      3375         
      4670  -56.619706      0.20128721    -56.418419      0.029520714    173.02507      306.12151      3375         
      4680  -56.641041      0.23212438    -56.408917      0.029520714    199.53249      725.58994      3375         
      4690  -56.569263      0.16842942    -56.400834      0.029520714    144.78074     -132.88837      3375         
      4700  -56.682085      0.30133751    -56.380747      0.029520714    259.02761     -421.14801      3375         
      4710  -56.61693       0.2547389     -56.362191      0.029520714    218.97177      269.18964      3375         
      4720  -56.642081      0.30711011    -56.334971      0.029520714    263.98969      66.155078      3375         
      4730  -56.645448      0.33751501    -56.307933      0.029520714    290.12553     -575.9329       3375         
      4740  -56.538964      0.25394777    -56.285017      0.029520714    218.29172     -204.87593      3375         
      4750  -56.436673      0.17390882    -56.262764      0.029520714    149.4908       819.95772      3375         
      4760  -56.605062      0.36024114    -56.244821      0.029520714    309.66075      788.42556      3375         
      4770  -56.574379      0.35689234    -56.217486      0.029520714    306.78215     -858.43188      3375         
      4780  -56.504948      0.30981728    -56.19513       0.029520714    266.31676     -1270.3753      3375         
      4790  -56.628373      0.44859002    -56.179783      0.029520714    385.60483      423.87996      3375         
      4800  -56.509839      0.35830411    -56.151535      0.029520714    307.99569      1024.4044      3375         
      4810  -56.485002      0.34146765    -56.143535      0.029520714    293.52319      49.852756      3375         
      4820  -56.426125      0.29436833    -56.131757      0.029520714    253.03694      14.563212      3375         
      4830  -56.527994      0.40835387    -56.11964       0.029520714    351.01811     -282.11351      3375         
      4840  -56.386852      0.27599583    -56.110857      0.029520714    237.24407     -7.3954129      3375         
      4850  -56.592017      0.49541247    -56.096604      0.029520714    425.85307     -257.47851      3375         
      4860  -56.561968      0.46668351    -56.095285      0.029520714    401.15786     -959.5049       3375         
      4870  -56.521109      0.44762013    -56.073489      0.029520714    384.77111      651.36504      3375         
      4880  -56.392205      0.31468301    -56.077522      0.029520714    270.4993       1526.3282      3375         
      4890  -56.457261      0.3823528     -56.074909      0.029520714    328.66778     -564.15808      3375         
      4900  -56.43381       0.36291446    -56.070896      0.029520714    311.95872     -873.80712      3375         
      4910  -56.572344      0.50533117    -56.067013      0.029520714    434.37911      116.5699       3375         
      4920  -56.460725      0.39466464    -56.066061      0.029520714    339.25095      233.91491      3375         
      4930  -56.429783      0.36189001    -56.067892      0.029520714    311.0781      -152.686        3375         
      4940  -56.544988      0.47619264    -56.068795      0.029520714    409.33184     -555.19909      3375         
      4950  -56.507378      0.42719739    -56.08018       0.029520714    367.21587      230.80216      3375         
      4960  -56.413316      0.33105675    -56.082259      0.029520714    284.57405      1307.7017      3375         
      4970  -56.473176      0.39694914    -56.076227      0.029520714    341.21469      60.716625      3375         
      4980  -56.486727      0.39054067    -56.096187      0.029520714    335.70602     -1405.6473      3375         
      4990  -56.44453       0.34559453    -56.098936      0.029520714    297.07063      138.96215      3375         
      5000  -56.625402      0.51262277    -56.112779      0.029520714    440.64692      591.93868      3375         
      5010  -56.522652      0.39700098    -56.125651      0.029520714    341.25925     -627.75326      3375         
      5020  -56.40328       0.26053536    -56.142744      0.029520714    223.95436     -263.52676      3375         
      5030  -56.462727      0.30799682    -56.154731      0.029520714    264.7519       947.86787      3375         
      5040  -56.588384      0.42329284    -56.165091      0.029520714    363.85955      644.91851      3375         
      5050  -56.522727      0.32309081    -56.199636      0.029520714    277.72658     -902.57976      3375         
      5060  -56.556474      0.36483521    -56.191639      0.029520714    313.60978     -1118.7137      3375         
      5070  -56.599096      0.35989081    -56.239205      0.029520714    309.35961      536.90288      3375         
      5080  -56.481001      0.24420849    -56.236792      0.029520714    209.9199       1131.4584      3375         
      5090  -56.615102      0.35913018    -56.255972      0.029520714    308.70578     -142.8011       3375         
      5100  -56.595711      0.31799881    -56.277713      0.029520714    273.34954     -646.77011      3375         
      5110  -56.525933      0.2273534     -56.298579      0.029520714    195.43138      270.4094       3375         
      5120  -56.537336      0.23309845    -56.304237      0.029520714    200.36979      263.1771       3375         
      5130  -56.671354      0.3518882     -56.319465      0.029520714    302.48062     -753.64022      3375         
      5140  -56.604472      0.27273905    -56.331733      0.029520714    234.44457     -329.94495      3375         
      5150  -56.662723      0.31479415    -56.347928      0.029520714    270.59484      841.32236      3375         
      5160  -56.590501      0.23681292    -56.353688      0.029520714    203.56272      663.13652      3375         
      5170  -56.560529      0.19542435    -56.365105      0.029520714    167.9854      -669.48807      3375         
      5180  -56.611524      0.24856746    -56.362957      0.029520714    213.66684     -526.13951      3375         
      5190  -56.683432      0.30906692    -56.374365      0.029520714    265.67175      275.38685      3375         
      5200  -56.586113      0.20912886    -56.376984      0.029520714    179.7657       288.56547      3375         
      5210  -56.602272      0.22955919    -56.372713      0.029520714    197.32746     -514.44393      3375         
      5220  -56.670565      0.29270741    -56.377858      0.029520714    251.60923     -454.95517      3375         
      5230  -56.597954      0.22167345    -56.37628       0.029520714    190.54894      1142.0452      3375         
      5240  -56.643395      0.26973962    -56.373656      0.029520714    231.86628      954.77062      3375         
      5250  -56.608862      0.23831537    -56.370547      0.029520714    204.85422     -743.33656      3375         
      5260  -56.548458      0.18544551    -56.363012      0.029520714    159.40766     -946.13288      3375         
      5270  -56.61636       0.26133572    -56.355025      0.029520714    224.64235     -150.51568      3375         
      5280  -56.753986      0.41396037    -56.340026      0.029520714    355.83742      242.32571      3375         
      5290  -56.525609      0.20979879    -56.31581       0.029520714    180.34156     -17.151333      3375         
      5300  -56.540334      0.24290759    -56.297426      0.029520714    208.80165      21.520179      3375         
      5310  -56.600723      0.33018292    -56.27054       0.029520714    283.82292      1076.779       3375         
      5320  -56.529453      0.30197756    -56.227475      0.029520714    259.57779      553.3066       3375         
      5330  -56.533296      0.35305478    -56.180241      0.029520714    303.4834      -1457.991       3375         
      5340  -56.561434      0.41717242    -56.144262      0.029520714    358.59848     -1196.647       3375         
      5350  -56.441872      0.34058639    -56.101286      0.029520714    292.76566      852.33628      3375         
      5360  -56.46173       0.38561845    -56.076111      0.029520714    331.4749       993.37898      3375         
      5370  -56.606437      0.5568955     -56.049541      0.029520714    478.70345     -79.741762      3375         
      5380  -56.367046      0.3358092     -56.031237      0.029520714    288.65922     -545.12354      3375         
      5390  -56.378107      0.35646221    -56.021645      0.029520714    306.41241      48.200907      3375         
      5400  -56.474591      0.46253182    -56.012059      0.029520714    397.5891       773.31907      3375         
      5410  -56.506532      0.48346963    -56.023063      0.029520714    415.58709     -756.29919      3375         
      5420  -56.44241       0.45578826    -55.986622      0.029520714    391.79238     -1145.4749      3375         
      5430  -56.510678      0.5036995     -56.006979      0.029520714    432.97655      1241.862       3375         
      5440  -56.319059      0.31230856    -56.006751      0.029520714    268.45824      819.96858      3375         
      5450  -56.376402      0.36691155    -56.00949       0.029520714    315.39458     -865.64568      3375         
      5460  -56.525227      0.51213494    -56.013092      0.029520714    440.22759     -571.19026      3375         
      5470  -56.44608       0.42059924    -56.02548       0.029520714    361.54414      166.30887      3375         
      5480  -56.397317      0.36563554    -56.031681      0.029520714    314.29774      645.59981      3375         
      5490  -56.555607      0.51198158    -56.043625      0.029520714    440.09577      169.97395      3375         
      5500  -56.467184      0.40516198    -56.062022      0.029520714    348.27439     -789.50014      3375         
      5510  -56.414322      0.33553862    -56.078784      0.029520714    288.42664      77.230005      3375         
      5520  -56.505345      0.42638822    -56.078957      0.029520714    366.52032      1374.1446      3375         
      5530  -56.475888      0.35995157    -56.115936      0.029520714    309.41184     -292.19479      3375         
      5540  -56.38893       0.26638671    -56.122543      0.029520714    228.98414     -1865.1991      3375         
      5550  -56.61324       0.49307038    -56.12017       0.029520714    423.83983      44.012473      3375         
      5560  -56.540853      0.38210836    -56.158745      0.029520714    328.45766      1224.5904      3375         
      5570  -56.500636      0.32949651    -56.171139      0.029520714    283.23288      226.24947      3375         
      5580  -56.513639      0.32732743    -56.186311      0.029520714    281.36836     -322.35585      3375         
      5590  -56.575314      0.37029417    -56.205019      0.029520714    318.30226      10.791714      3375         
      5600  -56.442469      0.22471658    -56.217752      0.029520714    193.16479      564.12298      3375         
      5610  -56.588622      0.35941567    -56.229207      0.029520714    308.95118     -423.0496       3375         
      5620  -56.531689      0.28820957    -56.24348       0.029520714    247.74292     -1335.8808      3375         
      5630  -56.592164      0.3352739     -56.25689       0.029520714    288.19909     -190.84578      3375         
      5640  -56.572693      0.31459627    -56.258097      0.029520714    270.42474      1614.9298      3375         
      5650  -56.625137      0.35279521    -56.272342      0.029520714    303.26028      787.59518      3375         
      5660  -56.527607      0.23722669    -56.290381      0.029520714    203.9184      -774.48662      3375         
      5670  -56.601716      0.32233388    -56.279382      0.029520714    277.07594     -198.08812      3375         
      5680  -56.540283      0.24396259    -56.29632       0.029520714    209.70853      174.8484       3375         
      5690  -56.547903      0.24981447    -56.298088      0.029520714    214.73876     -658.21718      3375         
      5700  -56.648642      0.3464084     -56.302233      0.029520714    297.77022     -800.51312      3375         
      5710  -56.647739      0.34252081    -56.305218      0.029520714    294.42848      396.18552      3375         
      5720  -56.56359       0.25409155    -56.309499      0.029520714    218.41531      1410.4882      3375         
      5730  -56.584758      0.27499986    -56.309759      0.029520714    236.38795      311.25259      3375         
      5740  -56.587731      0.27628595    -56.311445      0.029520714    237.49345     -1033.1424      3375         
      5750  -56.541638      0.22815036    -56.313488      0.029520714    196.11644     -324.43606      3375         
      5760  -56.612523      0.30681215    -56.305711      0.029520714    263.73357      615.01858      3375         
      5770  -56.636284      0.33728621    -56.298998      0.029520714    289.92885     -315.48684      3375         
      5780  -56.555977      0.25559731    -56.300379      0.029520714    219.70965     -816.68875      3375         
      5790  -56.613462      0.32767176    -56.28579       0.029520714    281.66434      741.96865      3375         
      5800  -56.581963      0.30254338    -56.27942       0.029520714    260.06416      993.96122      3375         
      5810  -56.523333      0.25892786    -56.264405      0.029520714    222.57257     -127.91125      3375         
      5820  -56.505614      0.24989938    -56.255715      0.029520714    214.81175     -848.3264       3375         
      5830  -56.626273      0.39960151    -56.226671      0.029520714    343.49465     -636.26258      3375         
      5840  -56.53907       0.34207926    -56.196991      0.029520714    294.04892      591.39639      3375         
      5850  -56.575038      0.41505835    -56.15998       0.029520714    356.78124      222.91824      3375         
      5860  -56.479207      0.35073095    -56.128476      0.029520714    301.48586     -339.62873      3375         
      5870  -56.493748      0.39988493    -56.093863      0.029520714    343.73827      729.89794      3375         
      5880  -56.410327      0.36041698    -56.049911      0.029520714    309.8119       618.30371      3375         
      5890  -56.469678      0.44269102    -56.026987      0.029520714    380.53409     -1343.9452      3375         
      5900  -56.400524      0.40497873    -55.995545      0.029520714    348.11686     -1081.0062      3375         
      5910  -56.554651      0.58605149    -55.9686        0.029520714    503.76573      875.27743      3375         
      5920  -56.453607      0.49576356    -55.957844      0.029520714    426.15487      1225.7165      3375         
      5930  -56.308075      0.37585315    -55.932222      0.029520714    323.08072      300.20778      3375         
      5940  -56.417679      0.48197402    -55.935705      0.029520714    414.30148     -667.52787      3375         
      5950  -56.433708      0.50424417    -55.929464      0.029520714    433.44474     -481.16118      3375         
      5960  -56.437356      0.49454435    -55.942811      0.029520714    425.10685      32.533104      3375         
      5970  -56.333286      0.41165884    -55.921627      0.029520714    353.85905     -548.15906      3375         
      5980  -56.554789      0.61861121    -55.936177      0.029520714    531.75384     -274.13637      3375         
      5990  -56.442459      0.48807874    -55.95438       0.029520714    419.54905      1049.2573      3375         
      6000  -56.403702      0.44026572    -55.963437      0.029520714    378.44932      546.54462      3375         
      6010  -56.320033      0.3454081     -55.974625      0.029520714    296.91037     -499.02417      3375         
      6020  -56.524062      0.52688897    -55.997173      0.029520714    452.91006     -187.2585       3375         
      6030  -56.367894      0.35998816    -56.007906      0.029520714    309.44329      261.9806       3375         
      6040  -56.461568      0.43507515    -56.026493      0.029520714    373.98753     -287.17587      3375         
      6050  -56.57167       0.52207459    -56.049596      0.029520714    448.77164     -500.14687      3375         
      6060  -56.423872      0.35602157    -56.067851      0.029520714    306.03364     -335.17967      3375         
      6070  -56.50739       0.41922789    -56.088162      0.029520714    360.36535      619.20201      3375         
      6080  -56.49834       0.38783139    -56.110509      0.029520714    333.37714      1515.7242      3375         
      6090  -56.502482      0.37376437    -56.128718      0.029520714    321.28523      17.262713      3375         
      6100  -56.422917      0.28495307    -56.137964      0.029520714    244.94365     -1450.9365      3375         
      6110  -56.578416      0.42334179    -56.155074      0.029520714    363.90162     -850.05271      3375         
      6120  -56.526356      0.35493734    -56.171419      0.029520714    305.10164      18.069932      3375         
      6130  -56.608677      0.42339269    -56.185284      0.029520714    363.94538      292.38918      3375         
      6140  -56.464873      0.26627989    -56.198593      0.029520714    228.89232      1108.1386      3375         
      6150  -56.561719      0.35488786    -56.206831      0.029520714    305.05911      863.65048      3375         
      6160  -56.51434       0.29890019    -56.21544       0.029520714    256.9325      -420.00898      3375         
      6170  -56.568211      0.34442621    -56.223785      0.029520714    296.06635     -1149.1514      3375         
      6180  -56.49965       0.26931165    -56.230338      0.029520714    231.4984      -895.74599      3375         
      6190  -56.600449      0.36901282    -56.231436      0.029520714    317.20083      73.610881      3375         
      6200  -56.613748      0.37628067    -56.237468      0.029520714    323.44821      1329.0605      3375         
      6210  -56.484023      0.23989755    -56.244126      0.029520714    206.21424      863.54105      3375         
      6220  -56.59182       0.34966185    -56.242158      0.029520714    300.56687     -483.08758      3375         
      6230  -56.581117      0.33726893    -56.243849      0.029520714    289.914       -608.02317      3375         
      6240  -56.516326      0.26848484    -56.247841      0.029520714    230.78768     -290.40159      3375         
      6250  -56.48785       0.24316821    -56.244682      0.029520714    209.02569     -185.41548      3375         
      6260  -56.74037       0.49201562    -56.248355      0.029520714    422.93317      19.858203      3375         
      6270  -56.521112      0.27833033    -56.242782      0.029520714    239.25079      192.51634      3375         
      6280  -56.548377      0.30428765    -56.24409       0.029520714    261.56352      230.52562      3375         
      6290  -56.525956      0.27984249    -56.246114      0.029520714    240.55064      534.22494      3375         
      6300  -56.556818      0.31599034    -56.240827      0.029520714    271.62307      63.259148      3375         
      6310  -56.535126      0.30387692    -56.231249      0.029520714    261.21046     -494.94418      3375         
      6320  -56.640708      0.40400106    -56.236707      0.029520714    347.27647     -246.88259      3375         
      6330  -56.546178      0.31788469    -56.228294      0.029520714    273.25144     -396.90868      3375         
      6340  -56.501402      0.27854526    -56.222857      0.029520714    239.43554     -336.19776      3375         
      6350  -56.589228      0.36542077    -56.223807      0.029520714    314.11312      861.81745      3375         
      6360  -56.518631      0.30028973    -56.218342      0.029520714    258.12694      1240.211       3375         
[...]
     48420  -56.53861       0.32857346    -56.210037      0.029520714    282.43944      963.83351      3375         
     48430  -56.460901      0.28435788    -56.176543      0.029520714    244.43203     -119.88085      3375         
     48440  -56.462975      0.31699298    -56.145982      0.029520714    272.48494     -1059.4329      3375         
     48450  -56.458336      0.33562245    -56.122713      0.029520714    288.4987      -221.71942      3375         
     48460  -56.532026      0.43778342    -56.094243      0.029520714    376.31555      550.49149      3375         
     48470  -56.556654      0.49720292    -56.059451      0.029520714    427.39213      62.65072       3375         
     48480  -56.522896      0.47630218    -56.046594      0.029520714    409.426       -170.48454      3375         
     48490  -56.407559      0.37474795    -56.032811      0.029520714    322.1307       382.71313      3375         
     48500  -56.381969      0.3581247     -56.023844      0.029520714    307.84147      299.08469      3375         
     48510  -56.479598      0.4608543     -56.018743      0.029520714    396.14712     -655.53451      3375         
     48520  -56.461992      0.45316775    -56.008825      0.029520714    389.53981     -948.89498      3375         
     48530  -56.462605      0.45565108    -56.006954      0.029520714    391.67446      129.60017      3375         
     48540  -56.398584      0.38997033    -56.008614      0.029520714    335.21575      1340.2196      3375         
     48550  -56.443787      0.43569531    -56.008092      0.029520714    374.52062      294.61372      3375         
     48560  -56.466698      0.45717987    -56.009518      0.029520714    392.9886      -746.09489      3375         
     48570  -56.612053      0.59183118    -56.020222      0.029520714    508.73391      6.7529169      3375         
     48580  -56.41961       0.39043558    -56.029174      0.029520714    335.61568      265.80724      3375         
     48590  -56.361271      0.32320359    -56.038067      0.029520714    277.82353     -785.66794      3375         
     48600  -56.428041      0.38026624    -56.047775      0.029520714    326.87418     -649.04477      3375         
     48610  -56.571087      0.50642856    -56.064658      0.029520714    435.32243      848.43477      3375         
     48620  -56.433881      0.35961649    -56.074265      0.029520714    309.1238       1443.7194      3375         
     48630  -56.471466      0.37905265    -56.092413      0.029520714    325.83099      11.168164      3375         
     48640  -56.551778      0.4408335     -56.110945      0.029520714    378.93737     -1439.4129      3375         
     48650  -56.570389      0.44366689    -56.126722      0.029520714    381.37294     -646.95837      3375         
     48660  -56.48508       0.33511682    -56.149963      0.029520714    288.06406      668.33817      3375         
     48670  -56.495635      0.32565366    -56.169981      0.029520714    279.92959     -95.940057      3375         
     48680  -56.493667      0.31074416    -56.182923      0.029520714    267.11349     -350.38596      3375         
     48690  -56.475441      0.27861992    -56.196821      0.029520714    239.49972      1025.0824      3375         
     48700  -56.588489      0.37531882    -56.213171      0.029520714    322.62141      733.767        3375         
     48710  -56.627689      0.39689517    -56.230794      0.029520714    341.1683      -531.46437      3375         
     48720  -56.50907       0.26552796    -56.243542      0.029520714    228.24596     -784.96205      3375         
     48730  -56.470583      0.21593017    -56.254653      0.029520714    185.61206     -329.27669      3375         
     48740  -56.642436      0.37900588    -56.26343       0.029520714    325.79079      321.29827      3375         
     48750  -56.664876      0.38927436    -56.275601      0.029520714    334.6175       10.793657      3375         
     48760  -56.548336      0.26362306    -56.284713      0.029520714    226.60853     -249.00063      3375         
     48770  -56.533909      0.23917785    -56.294731      0.029520714    205.59559      647.18842      3375         
     48780  -56.540748      0.2452008     -56.295547      0.029520714    210.77288      884.049        3375         
     48790  -56.576644      0.2745863     -56.302057      0.029520714    236.03245     -479.83471      3375         
     48800  -56.611692      0.3078917     -56.3038        0.029520714    264.66154     -1248.7475      3375         
     48810  -56.680057      0.37801383    -56.302043      0.029520714    324.93803     -169.79037      3375         
     48820  -56.544204      0.23627586    -56.307928      0.029520714    203.10106      979.29262      3375         
     48830  -56.562774      0.25746897    -56.305305      0.029520714    221.31851      396.29113      3375         
     48840  -56.620526      0.31489767    -56.305628      0.029520714    270.68382     -465.0253       3375         
     48850  -56.629377      0.32570458    -56.303673      0.029520714    279.97337     -214.84541      3375         
     48860  -56.46146       0.16126199    -56.300198      0.029520714    138.61967      309.69446      3375         
     48870  -56.61088       0.31303529    -56.297845      0.029520714    269.08293     -389.88644      3375         
     48880  -56.648282      0.36099636    -56.287286      0.029520714    310.30993     -573.33106      3375         
     48890  -56.610674      0.32851971    -56.282154      0.029520714    282.39323      636.0141       3375         
     48900  -56.483233      0.21478937    -56.268443      0.029520714    184.63143      1241.7422      3375         
     48910  -56.604503      0.34785856    -56.256644      0.029520714    299.01677     -230.10388      3375         
     48920  -56.565259      0.322154      -56.243105      0.029520714    276.92131     -1234.0551      3375         
     48930  -56.523677      0.3070382     -56.216639      0.029520714    263.92787     -414.00368      3375         
     48940  -56.586819      0.40035738    -56.186461      0.029520714    344.14439      580.05059      3375         
     48950  -56.559037      0.41103842    -56.147998      0.029520714    353.32574      192.36361      3375         
     48960  -56.344203      0.23055582    -56.113647      0.029520714    198.18416     -232.5873       3375         
     48970  -56.482329      0.40655754    -56.075772      0.029520714    349.474        625.94385      3375         
     48980  -56.655954      0.64440198    -56.011552      0.029520714    553.92341      826.96902      3375         
     48990  -56.388366      0.42134804    -55.967018      0.029520714    362.18781     -785.45616      3375         
     49000  -56.27446       0.33914618    -55.935314      0.029520714    291.52767     -1557.9278      3375         
     49010  -56.519521      0.60702202    -55.912499      0.029520714    521.79186     -392.18004      3375         
     49020  -56.394017      0.49869099    -55.895326      0.029520714    428.67126      1198.4677      3375         
     49030  -56.226305      0.35281089    -55.873495      0.029520714    303.27376      1081.5775      3375         
     49040  -56.45024       0.57356816    -55.876671      0.029520714    493.03515     -95.565214      3375         
     49050  -56.504202      0.63134178    -55.87286       0.029520714    542.69695     -91.597724      3375         
     49060  -56.278624      0.4025091     -55.876115      0.029520714    345.99399      253.83247      3375         
     49070  -56.449758      0.56203374    -55.887724      0.029520714    483.12025     -797.59208      3375         
     49080  -56.368607      0.47087121    -55.897735      0.029520714    404.75758     -1291.5745      3375         
     49090  -56.32173       0.41269484    -55.909035      0.029520714    354.74958     -18.767578      3375         
     49100  -56.484775      0.55427751    -55.930498      0.029520714    476.45305      1281.6229      3375         
     49110  -56.578555      0.6247927     -55.953763      0.029520714    537.06741      370.51277      3375         
     49120  -56.269927      0.29626475    -55.973662      0.029520714    254.66709     -396.58106      3375         
     49130  -56.388283      0.38960523    -55.998678      0.029520714    334.90191      298.5791       3375         
     49140  -56.478431      0.46371139    -56.01472       0.029520714    398.60305      432.49361      3375         
     49150  -56.4586        0.426706      -56.031894      0.029520714    366.79348     -581.30993      3375         
     49160  -56.4697        0.41040065    -56.0593        0.029520714    352.77751     -942.62368      3375         
     49170  -56.546368      0.46377888    -56.082589      0.029520714    398.66106     -21.398         3375         
     49180  -56.547458      0.4413352     -56.106123      0.029520714    379.36863      1123.3381      3375         
     49190  -56.461816      0.33538       -56.126436      0.029520714    288.29029      732.73452      3375         
     49200  -56.492379      0.34573518    -56.146644      0.029520714    297.19153     -672.79308      3375         
     49210  -56.460112      0.30092695    -56.159185      0.029520714    258.67468     -690.21621      3375         
     49220  -56.527619      0.35682055    -56.170799      0.029520714    306.72043     -16.950221      3375         
     49230  -56.569441      0.38412459    -56.185316      0.029520714    330.19079     -371.98947      3375         
     49240  -56.611587      0.41164913    -56.199937      0.029520714    353.85069      23.815038      3375         
     49250  -56.555767      0.33704132    -56.218726      0.029520714    289.71835      1132.025       3375         
     49260  -56.501091      0.28399793    -56.217093      0.029520714    244.12262      624.22656      3375         
     49270  -56.507132      0.2767407     -56.230391      0.029520714    237.88436     -613.83801      3375         
     49280  -56.550953      0.31169122    -56.239262      0.029520714    267.92758     -1213.0069      3375         
     49290  -56.621163      0.38044196    -56.240721      0.029520714    327.02523     -392.37847      3375         
     49300  -56.573285      0.32031973    -56.252965      0.029520714    275.34459      1261.3792      3375         
     49310  -56.540263      0.28486897    -56.255394      0.029520714    244.87136      829.66345      3375         
     49320  -56.476322      0.21706692    -56.259255      0.029520714    186.5892      -595.12514      3375         
     49330  -56.643165      0.38183963    -56.261326      0.029520714    328.22666     -371.89245      3375         
     49340  -56.633519      0.36807777    -56.265442      0.029520714    316.39706      72.699493      3375         
     49350  -56.587461      0.31934784    -56.268114      0.029520714    274.50916     -623.07209      3375         
     49360  -56.470162      0.20362644    -56.266535      0.029520714    175.03586     -258.97779      3375         
     49370  -56.617594      0.34612603    -56.271468      0.029520714    297.5275       674.63817      3375         
     49380  -56.55107       0.28273124    -56.268338      0.029520714    243.03378      656.95416      3375         
     49390  -56.569978      0.30438933    -56.265589      0.029520714    261.65092     -30.51395       3375         
     49400  -56.564398      0.30034754    -56.264051      0.029520714    258.17663     -300.20355      3375         
     49410  -56.582911      0.3211526     -56.261759      0.029520714    276.06051     -41.253885      3375         
     49420  -56.60078       0.34423476    -56.256545      0.029520714    295.90177      285.15736      3375         
     49430  -56.563486      0.31232223    -56.251163      0.029520714    268.46999     -637.52439      3375         
     49440  -56.528812      0.28497065    -56.243841      0.029520714    244.95876     -1115.7949      3375         
     49450  -56.561144      0.32297272    -56.238171      0.029520714    277.62508      618.6271       3375         
     49460  -56.558634      0.33404458    -56.224589      0.029520714    287.14237      1652.1925      3375         
     49470  -56.510574      0.30019787    -56.210376      0.029520714    258.04797      263.1493       3375         
     49480  -56.609851      0.41481013    -56.195041      0.029520714    356.56787     -948.20666      3375         
     49490  -56.47464       0.30571872    -56.168921      0.029520714    262.79366     -766.69735      3375         
     49500  -56.447986      0.30019424    -56.147792      0.029520714    258.04486     -286.33526      3375         
     49510  -56.590612      0.4745597     -56.116053      0.029520714    407.92818      185.34062      3375         
     49520  -56.601359      0.52611149    -56.075247      0.029520714    452.24173      345.22033      3375         
     49530  -56.382118      0.34766311    -56.034455      0.029520714    298.84876      816.41133      3375         
     49540  -56.38584       0.37903807    -56.006802      0.029520714    325.81846      843.21208      3375         
     49550  -56.442836      0.46510331    -55.977733      0.029520714    399.79953     -952.08333      3375         
     49560  -56.326766      0.37937058    -55.947395      0.029520714    326.10429     -1716.8761      3375         
     49570  -56.527036      0.60725995    -55.919776      0.029520714    521.99638      127.50192      3375         
     49580  -56.514972      0.62342952    -55.891542      0.029520714    535.89563      1528.4635      3375         
     49590  -56.395779      0.51294039    -55.882838      0.029520714    440.91995      292.75755      3375         
     49600  -56.222805      0.35021782    -55.872588      0.029520714    301.04477     -863.88059      3375         
     49610  -56.512229      0.64572189    -55.866507      0.029520714    555.05799     -37.022439      3375         
     49620  -56.278157      0.40655914    -55.871598      0.029520714    349.47538      631.9337       3375         
     49630  -56.35002       0.47673447    -55.873285      0.029520714    409.7976       27.368231      3375         
     49640  -56.454796      0.56675297    -55.888043      0.029520714    487.17686     -977.781        3375         
     49650  -56.494708      0.59652196    -55.898187      0.029520714    512.76608     -380.77208      3375         
     49660  -56.258074      0.34105349    -55.91702       0.029520714    293.16718      1172.2787      3375         
     49670  -56.4449        0.5059058     -55.938995      0.029520714    434.87306      295.42211      3375         
     49680  -56.413767      0.45668228    -55.957085      0.029520714    392.56087     -554.63047      3375         
     49690  -56.473853      0.49777052    -55.976083      0.029520714    427.88004      244.90291      3375         
     49700  -56.484597      0.4745535     -56.010043      0.029520714    407.92285     -171.5084       3375         
     49710  -56.384581      0.35330279    -56.031278      0.029520714    303.69659     -1045.959       3375         
     49720  -56.480085      0.4386647     -56.041421      0.029520714    377.07309     -133.55318      3375         
     49730  -56.41365       0.33882275    -56.074827      0.029520714    291.24965      1084.6496      3375         
     49740  -56.481879      0.40032973    -56.081549      0.029520714    344.12062      1367.6252      3375         
     49750  -56.574568      0.47735824    -56.09721       0.029520714    410.33379      347.23618      3375         
     49760  -56.527966      0.39542916    -56.132537      0.029520714    339.90812     -1867.6542      3375         
     49770  -56.381008      0.26040667    -56.120601      0.029520714    223.84374     -1320.4971      3375         
     49780  -56.623102      0.48226719    -56.140835      0.029520714    414.55348      703.13051      3375         
     49790  -56.504505      0.34614535    -56.15836       0.029520714    297.54411      773.29235      3375         
     49800  -56.426319      0.26629071    -56.160028      0.029520714    228.90162      298.68067      3375         
     49810  -56.559231      0.3926734     -56.166558      0.029520714    337.53929      244.33545      3375         
     49820  -56.556721      0.38046911    -56.176252      0.029520714    327.04857     -242.95306      3375         
     49830  -56.537496      0.35624117    -56.181255      0.029520714    306.2224      -496.28581      3375         
     49840  -56.534636      0.34769349    -56.186943      0.029520714    298.87487     -268.71062      3375         
     49850  -56.559043      0.3613246     -56.197718      0.029520714    310.59208      181.10394      3375         
     49860  -56.427408      0.23515686    -56.192252      0.029520714    202.13918      698.12101      3375         
     49870  -56.624274      0.42292793    -56.201346      0.029520714    363.54587      27.58055       3375         
     49880  -56.616469      0.41260365    -56.203865      0.029520714    354.67119     -787.69573      3375         
     49890  -56.485324      0.27925365    -56.206071      0.029520714    240.04447      57.1179        3375         
     49900  -56.376058      0.1668454     -56.209212      0.029520714    143.41913      920.15118      3375         
     49910  -56.663053      0.45154185    -56.211511      0.029520714    388.14219     -53.024129      3375         
     49920  -56.581536      0.36935466    -56.212181      0.029520714    317.49467     -1188.9622      3375         
     49930  -56.546583      0.33367059    -56.212912      0.029520714    286.82089     -625.91913      3375         
     49940  -56.577731      0.35726817    -56.220463      0.029520714    307.10521      860.0333       3375         
     49950  -56.480218      0.26498303    -56.215235      0.029520714    227.77754      1075.2304      3375         
     49960  -56.481807      0.26392473    -56.217882      0.029520714    226.86784      319.40229      3375         
     49970  -56.600468      0.38206098    -56.218407      0.029520714    328.41693     -517.39242      3375         
     49980  -56.554358      0.33768122    -56.216677      0.029520714    290.2684      -754.02979      3375         
     49990  -56.481392      0.26469848    -56.216693      0.029520714    227.53295     -366.06053      3375         
     50000  -56.644         0.43002406    -56.213976      0.029520714    369.64566     -335.21889      3375         
Loop time of 86.0254 on 3 procs for 50000 steps with 10 atoms

Performance: 25.109 ns/day, 0.956 hours/ns, 581.224 timesteps/s, 5.812 katom-step/s
169.5% CPU use with 3 MPI tasks x no OpenMP threads

MPI task timing breakdown:
Section |  min time  |  avg time  |  max time  |%varavg| %total
---------------------------------------------------------------
Pair    | 35.672     | 51.08      | 81.202     | 298.0 | 59.38
Neigh   | 0.00077301 | 0.00095657 | 0.0013083  |   0.0 |  0.00
Comm    | 2.1238     | 32.169     | 47.555     | 374.6 | 37.39
Output  | 0.48203    | 0.51296    | 0.57316    |   5.9 |  0.60
Modify  | 1.938      | 2.0123     | 2.0774     |   4.0 |  2.34
Other   |            | 0.2503     |            |       |  0.29

Nlocal:        3.33333 ave          10 max           0 min
Histogram: 2 0 0 0 0 0 0 0 0 1
Nghost:        75.3333 ave          92 max          42 min
Histogram: 1 0 0 0 0 0 0 0 0 2
Neighs:              0 ave           0 max           0 min
Histogram: 3 0 0 0 0 0 0 0 0 0
FullNghs:           30 ave          90 max           0 min
Histogram: 2 0 0 0 0 0 0 0 0 1

Total # of neighbors = 90
Ave neighs/atom = 9
Neighbor list builds = 143
Dangerous builds = 0

write_data	restart.data
System init for write_data ...
Generated 0 of 1 mixed pair_coeff terms from geometric mixing rule
#
Total wall time: 0:01:28
