LAMMPS data file via write_data, version 2 Aug 2023, timestep = 50000, units = metal

10 atoms
2 atom types

0 15 xlo xhi
0 15 ylo yhi
0 15 zlo zhi

Masses

1 12
2 2

Atoms # atomic

3 1 7.906157201164758 7.055331069199795 8.187474460119395 0 0 0
2 1 6.653576295869625 7.314660544659105 7.447898084668286 0 0 0
6 2 7.213351103154792 8.116345142865223 5.570477994344657 0 0 0
4 1 9.009931481375629 7.781928581873364 8.189073494194513 0 0 0
7 2 5.777888265973972 6.997607065876473 7.994137422994423 0 0 0
8 2 7.841720740210342 6.2361115179456075 8.939314262548333 0 0 0
9 2 9.056118740646673 8.636142875995057 7.5170305850974835 0 0 0
1 1 6.4230581567765475 7.801861591118294 6.229368513168522 0 0 0
5 2 5.387103472646979 7.921895555916036 5.783048850286869 0 0 0
10 2 9.891478866987898 7.5892071217125645 8.762103570373418 0 0 0

Velocities

3 -0.971533009655904 2.4948198742585936 -1.8175285502004002
2 -6.315145281060094 5.1983406241877415 -0.06099260136355413
6 -3.316565392505939 1.7795237552880294 1.9766487216208706
4 3.7449213762352564 -1.2937407978443425 2.871189913611929
7 5.335821767120261 10.752188302288301 -3.6878032603891437
8 -10.18822163049654 -7.344602710515837 -11.863850438420565
9 0.8278979873735499 -7.696782178974136 -9.827643499402484
1 2.402175033645095 -4.646472634677095 3.3355009559531914
5 7.436617809266168 -7.266948520882867 -2.7557440001605817
10 6.741940744255665 -0.7410610427542961 0.1893741687449473
