10
 Atoms. Timestep: 0
C 8.28329 8.29219 7.79283
C 8.28339 7.05607 6.94127
C 6.92807 6.7577 7.07443
C 6.57832 7.79045 8.04829
H 8.23446 9.2584 7.31912
H 8.91062 8.20234 8.73947
H 9.05491 6.48555 6.41345
H 6.40982 5.98635 6.5476
H 5.8024 8.53845 7.73094
H 6.27336 7.37044 8.99752
10
 Atoms. Timestep: 20
C 8.21847 8.26198 7.85188
C 8.26357 7.06175 6.92049
C 7.01283 6.72049 7.05472
C 6.58287 7.83777 8.01303
H 8.3244 9.22829 7.35767
H 8.71597 8.21266 8.79512
H 9.0873 6.70684 6.32384
H 6.43831 5.86411 6.68281
H 5.83306 8.53147 7.72901
H 6.25853 7.38473 8.95985
10
 Atoms. Timestep: 40
C 8.20625 8.26986 7.8918
C 8.31065 7.11156 6.90938
C 7.00993 6.66134 7.02897
C 6.49844 7.78316 7.98556
H 8.50172 9.27576 7.44727
H 8.67958 8.23065 8.88609
H 9.16318 6.84903 6.23437
H 6.41718 5.7454 6.75646
H 5.86684 8.62801 7.58453
H 6.34388 7.53563 9.08604
10
 Atoms. Timestep: 60
C 8.16846 8.2894 7.88767
C 8.28349 7.15221 6.92077
C 7.02443 6.65978 7.06377
C 6.5564 7.74529 7.96324
H 8.45264 9.27706 7.58377
H 8.66284 8.07128 8.8821
H 9.1221 6.87475 6.29049
H 6.57142 5.77398 6.68049
H 5.90811 8.50006 7.4692
H 6.21027 7.64275 8.9703
10
 Atoms. Timestep: 80
C 8.21766 8.30755 7.90532
C 8.27673 7.18067 6.90646
C 7.07458 6.64295 7.0996
C 6.52054 7.76434 7.96486
H 8.29293 9.37332 7.65334
H 8.64875 7.95727 8.82835
H 9.09683 6.81163 6.33115
H 6.64618 5.79071 6.57706
H 5.90371 8.37852 7.34054
H 5.99857 7.53551 8.90107
10
 Atoms. Timestep: 100
C 8.15301 8.28593 7.93992
C 8.33817 7.19216 6.88991
C 7.09993 6.63844 7.09855
C 6.50227 7.76662 7.94237
H 8.27977 9.38758 7.72023
H 8.70744 8.09045 8.87107
H 9.18177 6.80796 6.27093
H 6.59966 5.75333 6.62146
H 5.86317 8.44179 7.31049
H 5.93192 7.43997 8.87032
10
 Atoms. Timestep: 120
C 8.11347 8.29436 7.96637
C 8.33908 7.16615 6.93244
C 7.1261 6.67 7.03451
C 6.48261 7.699 7.88949
H 8.3119 9.3047 7.64772
H 8.64407 8.19701 8.95039
H 9.22273 6.98021 6.31156
H 6.62962 5.7672 6.75952
H 5.89065 8.51833 7.42732
H 6.05747 7.47546 8.85561
10
 Atoms. Timestep: 140
C 8.13693 8.31529 7.95836
C 8.37355 7.20606 7.01257
C 7.07598 6.64799 6.97104
C 6.48558 7.70176 7.89831
H 8.2562 9.30797 7.50883
H 8.46359 8.14984 8.97863
H 9.25726 7.02453 6.40609
H 6.7024 5.66326 6.63972
H 5.87302 8.45251 7.4356
H 6.13922 7.39531 8.87846
10
 Atoms. Timestep: 160
C 8.09174 8.32958 7.94571
C 8.33127 7.16547 7.0175
C 7.15631 6.65948 6.96532
C 6.50831 7.71981 7.91146
H 8.22322 9.38217 7.5667
H 8.44849 8.24081 8.9784
H 9.28116 6.91433 6.56574
H 6.78313 5.77855 6.4147
H 5.74327 8.36167 7.43559
H 6.11897 7.29645 8.8879
10
 Atoms. Timestep: 180
C 8.07938 8.36232 7.95977
C 8.43252 7.18875 7.02377
C 7.12738 6.6754 6.98728
C 6.43798 7.64658 7.87655
H 8.16569 9.38678 7.60863
H 8.58804 8.35523 8.95497
H 9.38675 6.70749 6.63415
H 6.74971 5.9243 6.2775
H 5.63677 8.31718 7.46808
H 6.13347 7.29072 8.8615
10
 Atoms. Timestep: 200
C 8.03446 8.34163 7.98026
C 8.40886 7.17255 7.07242
C 7.20303 6.71592 6.92755
C 6.46515 7.64705 7.87152
H 8.0312 9.31908 7.49668
H 8.5757 8.38192 8.91756
H 9.33476 6.77754 6.73344
H 6.67929 5.99082 6.33283
H 5.66895 8.24004 7.47343
H 6.16509 7.24769 8.82452
10
 Atoms. Timestep: 220
C 8.06923 8.34364 7.98664
C 8.4306 7.18171 7.13473
C 7.13903 6.72185 6.86735
C 6.47561 7.63625 7.87364
H 7.95151 9.28942 7.37721
H 8.46156 8.44915 9.01451
H 9.42543 6.92498 6.75841
H 6.74378 5.85268 6.28408
H 5.67987 8.28345 7.43957
H 6.175 7.11956 8.84102
10
 Atoms. Timestep: 240
C 8.03247 8.35449 7.99299
C 8.40416 7.15684 7.12143
C 7.18471 6.71695 6.87602
C 6.46635 7.61305 7.85515
H 8.06797 9.29937 7.46165
H 8.37717 8.56453 9.01749
H 9.43843 6.96069 6.75675
H 6.87374 5.89338 6.25624
H 5.68352 8.33397 7.5554
H 6.157 7.12002 8.76801
10
 Atoms. Timestep: 260
C 7.99047 8.36588 8.00025
C 8.45466 7.21614 7.12387
C 7.21898 6.68303 6.89957
C 6.42898 7.61124 7.83446
H 8.12107 9.32642 7.50548
H 8.38058 8.46363 9.01871
H 9.38949 6.82469 6.7109
H 6.87197 5.92123 6.20077
H 5.64885 8.30116 7.54467
H 6.15346 7.12514 8.75955
10
 Atoms. Timestep: 280
C 8.00281 8.36748 8.0121
C 8.44973 7.2275 7.11035
C 7.23627 6.69731 6.91682
C 6.42986 7.6089 7.81556
H 8.01275 9.39943 7.54218
H 8.38105 8.28916 9.04084
H 9.40443 6.88359 6.7715
H 6.87548 5.90667 6.23891
H 5.60044 8.19705 7.35732
H 6.13782 7.13702 8.80924
10
 Atoms. Timestep: 300
C 7.99463 8.34846 8.01583
C 8.43286 7.23697 7.09634
C 7.21742 6.69952 6.90789
C 6.46699 7.60528 7.80736
H 7.95471 9.38477 7.71923
H 8.36512 8.29807 9.04861
H 9.49057 7.04815 6.82685
H 6.91058 5.82158 6.34413
H 5.66318 8.10616 7.25328
H 6.06841 7.21993 8.73245
10
 Atoms. Timestep: 320
C 7.99417 8.36041 8.05136
C 8.45207 7.28889 7.09439
C 7.25158 6.64256 6.89442
C 6.41301 7.58302 7.7842
H 8.01877 9.40798 7.74482
H 8.34765 8.2971 9.09477
H 9.47996 7.07654 6.72663
H 6.91127 5.72593 6.40701
H 5.72272 8.25849 7.25993
H 5.97867 7.20462 8.7096
10
 Atoms. Timestep: 340
C 7.92204 8.3496 8.07561
C 8.43789 7.29882 7.07743
C 7.31249 6.63775 6.94318
C 6.43356 7.59302 7.76037
H 8.09897 9.39163 7.68964
H 8.28458 8.2197 9.09556
H 9.37104 7.10192 6.61701
H 7.0383 5.7253 6.4099
H 5.8015 8.37021 7.29808
H 5.89379 7.13601 8.63933
10
 Atoms. Timestep: 360
C 7.97338 8.34945 8.06088
C 8.45729 7.32152 7.09367
C 7.26963 6.64165 6.97692
C 6.40908 7.56761 7.75011
H 8.02867 9.40822 7.78025
H 8.20115 8.17816 9.12608
H 9.42937 7.19543 6.55979
H 7.15295 5.72896 6.37911
H 5.81113 8.28872 7.17983
H 5.84447 7.1392 8.5745
10
 Atoms. Timestep: 380
C 7.9508 8.34942 8.06664
C 8.44163 7.30893 7.09404
C 7.33155 6.6405 6.93925
C 6.42161 7.57896 7.76141
H 7.95988 9.41147 7.91753
H 8.2106 8.18426 9.11978
H 9.4436 7.28417 6.64241
H 7.03936 5.73451 6.41123
H 5.77989 8.1143 7.03943
H 5.81703 7.22446 8.59058
10
 Atoms. Timestep: 400
C 7.89243 8.36258 8.11308
C 8.4932 7.36203 7.09972
C 7.3165 6.61411 6.92554
C 6.43049 7.54747 7.71195
H 7.96208 9.47219 7.87691
H 8.27204 8.12964 9.1156
H 9.49617 7.2303 6.71079
H 6.97529 5.70417 6.39332
H 5.75719 8.10427 7.03403
H 5.86553 7.26233 8.65654
10
 Atoms. Timestep: 420
C 7.90194 8.3652 8.0991
C 8.44385 7.35388 7.10803
C 7.36344 6.65363 6.94258
C 6.40033 7.51737 7.6823
H 7.94085 9.42894 7.83798
H 8.19385 8.16844 9.14909
H 9.47346 7.18052 6.80937
H 7.16276 5.76339 6.3773
H 5.75953 8.21179 7.14973
H 5.93618 7.12645 8.5735
10
 Atoms. Timestep: 440
C 7.87887 8.3502 8.0641
C 8.48543 7.36436 7.16657
C 7.34106 6.65352 6.89303
C 6.40695 7.547 7.72826
H 7.90062 9.37707 7.81259
H 8.05896 8.28941 9.13596
H 9.54018 7.15804 6.83708
H 7.3422 5.71981 6.2985
H 5.70203 8.24063 7.21525
H 5.9061 6.94456 8.4779
10
 Atoms. Timestep: 460
C 7.86284 8.39846 8.11128
C 8.51477 7.29708 7.19562
C 7.40273 6.69316 6.8282
C 6.38188 7.50134 7.71138
H 7.84541 9.47315 7.67537
H 8.0652 8.35255 9.19936
H 9.54259 7.22766 6.90472
H 7.21586 5.76356 6.25726
H 5.63318 8.14098 7.21308
H 5.84848 6.92184 8.56035
10
 Atoms. Timestep: 480
C 7.79817 8.37172 8.12091
C 8.5274 7.33653 7.26867
C 7.37899 6.71351 6.82099
C 6.43734 7.45302 7.66371
H 7.80678 9.35775 7.6666
H 8.12627 8.46299 9.15667
H 9.57647 7.22477 6.97721
H 7.08934 5.91918 6.14995
H 5.64967 7.96907 7.14609
H 6.02406 7.03757 8.54684
10
 Atoms. Timestep: 500
C 7.83683 8.37661 8.12043
C 8.49137 7.35622 7.28148
C 7.41772 6.70369 6.83634
C 6.396 7.4409 7.64915
H 7.71621 9.3249 7.6443
H 8.07133 8.51628 9.18996
H 9.57145 7.19745 7.11828
H 7.20252 6.05665 5.99116
H 5.58055 7.93151 7.03861
H 6.13044 6.92865 8.58235
10
 Atoms. Timestep: 520
C 7.78156 8.38979 8.11441
C 8.529 7.34 7.28096
C 7.44285 6.70055 6.8094
C 6.39779 7.46982 7.67546
H 7.66961 9.415 7.59976
H 7.9777 8.4858 9.19399
H 9.59578 7.1622 7.20436
H 7.44838 6.0373 5.89822
H 5.52307 7.92276 7.20102
H 6.00227 6.79596 8.51032
10
 Atoms. Timestep: 540
C 7.74088 8.40455 8.10924
C 8.54849 7.36305 7.32567
C 7.47053 6.74778 6.76452
C 6.38938 7.39124 7.64543
H 7.71375 9.3887 7.65521
H 7.9073 8.48246 9.18029
H 9.61499 7.16489 7.18652
H 7.45511 5.93285 6.05401
H 5.56165 8.00948 7.30966
H 5.97555 6.80187 8.43412
10
 Atoms. Timestep: 560
C 7.73366 8.37289 8.1386
C 8.51361 7.40469 7.34353
C 7.49921 6.76937 6.76495
C 6.39937 7.36247 7.58715
H 7.70822 9.35535 7.69132
H 7.86298 8.47959 9.22839
H 9.59466 7.29202 7.18383
H 7.36018 5.86928 6.21215
H 5.62553 8.03397 7.12546
H 6.09729 6.73328 8.44248
10
 Atoms. Timestep: 580
C 7.69978 8.36023 8.19208
C 8.5372 7.43365 7.311
C 7.48686 6.7115 6.79964
C 6.43066 7.43342 7.56197
H 7.63075 9.41945 7.74816
H 7.83897 8.37863 9.28996
H 9.62695 7.44057 7.22354
H 7.43304 5.79946 6.11208
H 5.61372 7.81935 6.95609
H 6.05355 6.72972 8.37105
10
 Atoms. Timestep: 600
C 7.7132 8.40522 8.19905
C 8.53287 7.45281 7.28628
C 7.57121 6.66835 6.84824
C 6.37488 7.38552 7.5356
H 7.57657 9.45011 7.95416
H 7.81481 8.25171 9.27279
H 9.60925 7.45985 7.18112
H 7.55638 5.93072 6.05643
H 5.56954 7.78749 6.89234
H 5.84452 6.86868 8.31713
10
 Atoms. Timestep: 620
C 7.62443 8.35243 8.13957
C 8.55113 7.53484 7.33153
C 7.57837 6.67005 6.87245
C 6.3975 7.34621 7.53736
H 7.59692 9.42439 8.06691
H 7.79742 8.14244 9.21473
H 9.61977 7.44417 7.06327
H 7.67011 5.93353 6.10148
H 5.76783 7.94192 6.84094
H 5.7634 6.91238 8.31621
10
 Atoms. Timestep: 640
C 7.62524 8.35317 8.20546
C 8.53101 7.52112 7.29615
C 7.61255 6.70565 6.87779
C 6.38361 7.32184 7.48829
H 7.54676 9.50474 7.99749
H 7.69664 8.07223 9.27138
H 9.59522 7.6508 7.08652
H 7.69813 5.77471 6.25741
H 5.93336 8.0282 6.80286
H 5.73943 6.77871 8.26721
10
 Atoms. Timestep: 660
C 7.62414 8.33876 8.25445
C 8.53536 7.57957 7.30883
C 7.60509 6.64622 6.83956
C 6.43322 7.36228 7.47376
H 7.47475 9.36608 8.04655
H 7.63283 8.16638 9.31592
H 9.59357 7.81309 7.11598
H 7.68566 5.63042 6.38148
H 5.80677 7.95505 6.77858
H 5.74358 6.72799 7.99093
10
 Atoms. Timestep: 680
C 7.59579 8.33827 8.25162
C 8.51884 7.5776 7.3253
C 7.67245 6.67296 6.86528
C 6.41727 7.32936 7.42318
H 7.45163 9.41006 8.12056
H 7.68448 8.16425 9.36028
H 9.55495 7.77965 7.12397
H 7.70087 5.74715 6.37957
H 5.77882 7.91501 6.73279
H 5.72716 6.69472 7.97962
10
 Atoms. Timestep: 700
C 7.52383 8.34185 8.21554
C 8.56047 7.60633 7.37946
C 7.65881 6.70601 6.88889
C 6.3881 7.27859 7.4098
H 7.46011 9.50121 8.12518
H 7.709 8.01957 9.25158
H 9.64237 7.67324 7.16402
H 7.85829 5.84795 6.17656
H 5.90602 7.89265 6.66151
H 5.76094 6.68867 8.14803
10
 Atoms. Timestep: 720
C 7.51851 8.35016 8.19653
C 8.54055 7.5915 7.39034
C 7.71435 6.71835 6.86193
C 6.413 7.27884 7.4453
H 7.36437 9.3925 8.10928
H 7.51567 8.03158 9.22398
H 9.63633 7.66965 7.33664
H 7.92831 5.97147 6.07348
H 5.80818 7.7827 6.66341
H 5.75269 6.73903 8.11764
10
 Atoms. Timestep: 740
C 7.5402 8.35996 8.25095
C 8.55238 7.60373 7.43107
C 7.72614 6.70281 6.78547
C 6.42306 7.26092 7.393
H 7.28843 9.40306 8.01689
H 7.38196 8.20027 9.35515
H 9.62546 7.74561 7.48381
H 7.88946 5.94091 6.07306
H 5.65879 7.714 6.721
H 5.82918 6.65159 8.07617
10
 Atoms. Timestep: 760
C 7.43009 8.31484 8.25725
C 8.5537 7.58116 7.48465
C 7.73264 6.78091 6.77013
C 6.45264 7.26338 7.36416
H 7.34472 9.3934 7.8555
H 7.48396 8.3396 9.36218
H 9.62949 7.73927 7.50681
H 7.87663 5.90646 6.098
H 5.71145 7.73562 6.75051
H 6.06335 6.46392 8.0589
10
 Atoms. Timestep: 780
C 7.44567 8.35369 8.23593
C 8.5322 7.57202 7.5521
C 7.76059 6.85225 6.7638
C 6.42713 7.18457 7.35254
H 7.30794 9.32862 7.82461
H 7.47953 8.34649 9.31066
H 9.63909 7.65954 7.53646
H 7.96443 6.00601 6.05112
H 5.67097 7.72207 6.73417
H 6.06847 6.38201 8.00582
10
 Atoms. Timestep: 800
C 7.44347 8.3456 8.20491
C 8.56066 7.59413 7.56831
C 7.77459 6.82063 6.73782
C 6.43951 7.19048 7.38708
H 7.22416 9.35803 7.8514
H 7.31822 8.33728 9.31283
H 9.6436 7.63133 7.69205
H 8.09999 6.20683 5.93016
H 5.60292 7.54859 6.7478
H 5.92576 6.4329 7.96601
10
 Atoms. Timestep: 820
C 7.3916 8.33219 8.24232
C 8.56857 7.59104 7.5291
C 7.82525 6.80658 6.76518
C 6.43921 7.19146 7.34952
H 7.1994 9.38218 7.8103
H 7.22109 8.31459 9.34082
H 9.59492 7.67992 7.79528
H 8.09293 6.30175 5.83568
H 5.67462 7.55209 6.68045
H 5.99322 6.46191 8.10978
10
 Atoms. Timestep: 840
C 7.36519 8.31793 8.2519
C 8.53123 7.64417 7.59983
C 7.81465 6.81503 6.76487
C 6.4686 7.15576 7.29297
H 7.21209 9.28617 7.85388
H 7.26124 8.29194 9.31593
H 9.65565 7.74206 7.72903
H 8.03884 6.18316 5.84277
H 5.73355 7.62134 6.60954
H 6.14454 6.49797 8.08039
10
 Atoms. Timestep: 860
C 7.35458 8.31059 8.23935
C 8.51579 7.61448 7.60446
C 7.85565 6.86475 6.76354
C 6.49136 7.164 7.28374
H 7.14501 9.34262 7.92269
H 7.27317 8.25005 9.3596
H 9.57562 7.85295 7.66528
H 8.10783 6.10063 6.07619
H 5.6853 7.56537 6.62835
H 6.03278 6.38548 7.89039
10
 Atoms. Timestep: 880
C 7.34393 8.32409 8.26957
C 8.57112 7.67005 7.59677
C 7.85746 6.82692 6.74448
C 6.43842 7.16359 7.28557
H 7.09784 9.40769 7.97987
H 7.21471 8.15393 9.35575
H 9.60949 7.90614 7.70216
H 8.29599 6.01669 6.14374
H 5.71716 7.58063 6.58788
H 5.92325 6.24699 7.74129
10
 Atoms. Timestep: 900
C 7.30776 8.27464 8.25611
C 8.52274 7.72754 7.53919
C 7.90213 6.82119 6.83675
C 6.46134 7.15037 7.26177
H 7.10621 9.29434 8.08284
H 7.17571 8.07734 9.29296
H 9.60258 7.89256 7.73092
H 8.28928 6.05857 6.11236
H 5.84813 7.69281 6.53137
H 5.93824 6.36188 7.77558
10
 Atoms. Timestep: 920
C 7.29701 8.2674 8.26868
C 8.5015 7.78445 7.55916
C 7.90037 6.77409 6.86268
C 6.51244 7.11715 7.20015
H 7.01015 9.33284 8.1256
H 7.19337 7.93267 9.35352
H 9.59837 7.98694 7.69741
H 8.23105 6.0972 6.08863
H 5.93711 7.71688 6.44779
H 5.88602 6.49497 7.83202
10
 Atoms. Timestep: 940
C 7.2629 8.27556 8.28545
C 8.53282 7.74243 7.57529
C 7.94171 6.77869 6.842
C 6.50681 7.15921 7.21529
H 6.88779 9.33651 8.20709
H 7.21259 7.89364 9.30615
H 9.50334 8.16024 7.63187
H 8.29532 6.04842 6.13499
H 5.98299 7.59365 6.37061
H 5.77658 6.4522 7.73015
10
 Atoms. Timestep: 960
C 7.2676 8.2712 8.28851
C 8.52786 7.75086 7.6031
C 7.9477 6.80728 6.83845
C 6.47012 7.14301 7.20574
H 6.92385 9.27708 8.2483
H 7.15736 7.9308 9.29834
H 9.52002 8.22361 7.57552
H 8.40891 5.98811 6.22492
H 5.98707 7.61803 6.35007
H 5.84715 6.34829 7.57702
10
 Atoms. Timestep: 980
C 7.25324 8.23203 8.27888
C 8.49356 7.80944 7.59924
C 7.93502 6.82948 6.87317
C 6.51192 7.0954 7.15613
H 7.0257 9.32011 8.17317
H 7.09429 7.90893 9.36119
H 9.57214 8.12515 7.63565
H 8.40974 6.04649 6.28803
H 5.94492 7.75327 6.43486
H 5.91486 6.26796 7.55154
10
 Atoms. Timestep: 1000
C 7.19381 8.22601 8.28245
C 8.50438 7.81904 7.5875
C 7.98208 6.82871 6.85971
C 6.53875 7.10885 7.16336
H 6.97295 9.3108 8.12386
H 7.08051 7.89561 9.3121
H 9.51633 8.06933 7.80956
H 8.3961 6.07989 6.21925
H 5.93311 7.70222 6.48528
H 5.91086 6.26647 7.58086
10
 Atoms. Timestep: 1020
C 7.2112 8.27645 8.28603
C 8.5145 7.79314 7.64977
C 8.00632 6.82976 6.79676
C 6.50835 7.09429 7.16674
H 6.76113 9.2494 8.17043
H 7.05816 7.9315 9.29282
H 9.51845 8.1212 7.93548
H 8.46327 6.09115 6.08679
H 5.94501 7.55097 6.35992
H 5.93576 6.31396 7.6478
10
 Atoms. Timestep: 1040
C 7.1966 8.24579 8.24051
C 8.49087 7.73738 7.69068
C 7.99798 6.90639 6.81587
C 6.54681 7.09329 7.15886
H 6.74048 9.24788 8.12258
H 7.0447 7.96049 9.338
H 9.51757 8.11399 7.91812
H 8.48476 6.25662 6.09159
H 5.92563 7.41943 6.26728
H 6.01731 6.32446 7.7159
10
 Atoms. Timestep: 1060
C 7.1478 8.23168 8.2738
C 8.50122 7.78695 7.74724
C 7.99273 6.92141 6.81118
C 6.55264 7.05175 7.10009
H 6.95612 9.28456 7.9475
H 6.96408 7.99173 9.32221
H 9.55905 8.018 7.90685
H 8.5067 6.3531 6.0467
H 5.84661 7.41209 6.34192
H 6.12511 6.20976 7.72992
10
 Atoms. Timestep: 1080
C 7.12757 8.2203 8.27103
C 8.49546 7.7731 7.73138
C 8.06494 6.95178 6.79716
C 6.5359 7.04329 7.13688
H 6.99131 9.23303 7.92614
H 6.77731 8.12665 9.28238
H 9.48087 8.01238 8.0479
H 8.53412 6.3878 5.98932
H 5.8066 7.4143 6.45315
H 6.19055 6.11499 7.57142
10
 Atoms. Timestep: 1100
C 7.14995 8.22862 8.25463
C 8.48267 7.75449 7.77818
C 8.0405 6.96503 6.73788
C 6.58448 7.01663 7.15144
H 6.79262 9.21746 7.88644
H 6.70394 8.18193 9.31357
H 9.4617 8.09668 8.22833
H 8.61729 6.41042 5.9669
H 5.80794 7.45157 6.42504
H 6.19492 6.07335 7.5359
10
 Atoms. Timestep: 1120
C 7.09713 8.2287 8.25436
C 8.46085 7.74797 7.80663
C 8.06028 7.01584 6.77868
C 6.60967 7.00437 7.09495
H 6.71044 9.15564 7.78034
H 6.90376 8.05 9.31271
H 9.45133 8.04695 8.18141
H 8.5756 6.47742 6.00061
H 5.912 7.39327 6.34902
H 6.20322 6.11544 7.65716
10
 Atoms. Timestep: 1140
C 7.04589 8.17645 8.25012
C 8.46647 7.82623 7.83005
C 8.09929 6.99471 6.81276
C 6.5897 7.01844 7.05496
H 6.74562 9.15237 7.9144
H 6.8925 8.01255 9.28667
H 9.4724 7.99385 8.10789
H 8.62461 6.52206 5.98542
H 5.95045 7.25214 6.24912
H 6.23036 6.19202 7.65816
10
 Atoms. Timestep: 1160
C 7.06424 8.18588 8.27764
C 8.46865 7.84763 7.77618
C 8.10891 6.97267 6.82695
C 6.60519 6.99449 7.03312
H 6.73042 9.24793 8.13121
H 6.61305 7.95585 9.33848
H 9.45813 8.15921 8.21127
H 8.7584 6.52676 6.06297
H 5.88596 7.21222 6.127
H 6.19609 6.11403 7.53472
10
 Atoms. Timestep: 1180
C 7.02583 8.16828 8.25824
C 8.42568 7.8545 7.78614
C 8.13227 6.98458 6.81994
C 6.64417 7.00832 7.06073
H 6.72993 9.22022 8.13888
H 6.64763 7.75791 9.18231
H 9.33014 8.34655 8.20483
H 8.80065 6.39401 6.16699
H 6.03592 7.37394 6.24353
H 6.21207 6.03328 7.40216
10
 Atoms. Timestep: 1200
C 6.98656 8.14269 8.26548
C 8.40099 7.91233 7.84364
C 8.17526 6.99358 6.84344
C 6.66069 6.97303 6.98962
H 6.59431 9.13811 8.05185
H 6.80863 7.65038 9.19678
H 9.30595 8.40034 8.09001
H 8.73899 6.28101 6.24509
H 6.1283 7.57669 6.29378
H 6.20688 6.04367 7.35839
10
 Atoms. Timestep: 1220
C 6.96683 8.07758 8.25661
C 8.42865 7.94993 7.79632
C 8.1825 6.98623 6.92504
C 6.68773 6.98008 6.95409
H 6.35285 8.99846 8.14966
H 6.79088 7.72801 9.36596
H 9.3538 8.46167 8.10145
H 8.82922 6.36612 6.32993
H 6.10175 7.5923 6.14171
H 6.1012 6.11053 7.20795
10
 Atoms. Timestep: 1240
C 6.95647 8.06695 8.29805
C 8.40012 8.0062 7.78427
C 8.19961 6.94502 6.93669
C 6.66875 7.00135 6.94458
H 6.31045 8.94749 8.22518
H 6.75438 7.67597 9.27856
H 9.35049 8.49932 8.1649
H 9.00814 6.45697 6.33608
H 6.29108 7.44811 6.03418
H 6.05977 6.07496 7.06863
10
 Atoms. Timestep: 1260
C 6.92165 8.08692 8.28509
C 8.33172 7.98553 7.80953
C 8.24968 7.00095 6.95107
C 6.7005 6.96265 6.93047
H 6.43624 9.07561 8.23912
H 6.78034 7.46212 9.16862
H 9.17272 8.5108 8.14766
H 8.95523 6.4459 6.32917
H 6.41287 7.48904 6.03222
H 6.14529 6.02023 7.1153
10
 Atoms. Timestep: 1280
C 6.87292 8.05923 8.2026
C 8.33866 7.99911 7.89318
C 8.23153 7.01468 6.91529
C 6.78409 6.93851 6.92535
H 6.48508 9.08205 8.31815
H 6.65676 7.41237 9.15796
H 9.16139 8.65204 8.21263
H 8.93743 6.42878 6.35842
H 6.26044 7.53945 6.07314
H 6.25967 6.03616 7.15017
10
 Atoms. Timestep: 1300
C 6.87517 8.04218 8.25071
C 8.37563 7.97653 7.89261
C 8.28784 7.07867 6.94247
C 6.74555 6.93316 6.85347
H 6.30146 8.99462 8.22979
H 6.47491 7.57585 9.10645
H 9.16464 8.65665 8.31506
H 9.01572 6.47527 6.38547
H 6.14553 7.39808 6.09762
H 6.31664 5.93627 7.11901
10
 Atoms. Timestep: 1320
C 6.85761 8.01216 8.23592
C 8.33648 8.00967 7.94374
C 8.29624 7.09612 6.9129
C 6.73599 6.95897 6.89622
H 6.27354 8.88853 7.93845
H 6.49451 7.56224 9.17826
H 9.21938 8.46132 8.39084
H 9.16265 6.62763 6.36658
H 6.19699 7.30866 6.01356
H 6.41904 5.91005 7.06863
10
 Atoms. Timestep: 1340
C 6.80897 8.02651 8.21934
C 8.30616 7.97097 7.9496
C 8.2737 7.16407 6.92004
C 6.82823 6.88731 6.88471
H 6.3119 8.9304 7.85884
H 6.55306 7.58393 9.26701
H 9.14292 8.33106 8.5121
H 9.07199 6.83276 6.31305
H 6.30508 7.33338 5.93264
H 6.43668 5.91534 7.16319
10
 Atoms. Timestep: 1360
C 6.80032 8.0038 8.18796
C 8.28349 7.96284 8.02026
C 8.3091 7.18902 6.88659
C 6.84726 6.85952 6.86048
H 6.30512 8.97932 8.02155
H 6.40434 7.7369 9.12479
H 9.09006 8.40183 8.66794
H 9.05766 6.91161 6.13079
H 6.34865 7.20312 6.00099
H 6.47714 5.89613 7.2112
10
 Atoms. Timestep: 1380
C 6.78128 7.9946 8.18703
C 8.30215 7.93883 8.04264
C 8.35697 7.22051 6.90459
C 6.82343 6.88825 6.85163
H 6.36083 8.99037 7.93676
H 6.23466 7.61686 9.08009
H 8.99978 8.48359 8.67399
H 9.11352 6.97167 6.1195
H 6.21824 7.06873 5.95597
H 6.614 5.83563 7.20731
10
 Atoms. Timestep: 1400
C 6.76714 7.98691 8.19372
C 8.28109 7.93963 8.06159
C 8.31776 7.24334 6.90717
C 6.86832 6.89842 6.83665
H 6.39205 8.90659 7.77787
H 6.21503 7.46787 9.05731
H 9.0394 8.46652 8.60978
H 9.19244 7.03114 6.31581
H 6.14024 7.05396 5.93432
H 6.73895 5.8841 7.19914
10
 Atoms. Timestep: 1420
C 6.75557 7.93489 8.17198
C 8.24086 7.9709 8.06738
C 8.32758 7.28865 6.9193
C 6.89122 6.86466 6.81839
H 6.23505 8.85284 7.82645
H 6.26751 7.59727 9.04474
H 9.10194 8.38645 8.62072
H 9.21107 7.0002 6.36927
H 6.30784 7.16296 5.98656
H 6.70923 5.86573 7.17899
10
 Atoms. Timestep: 1440
C 6.70859 7.93355 8.18072
C 8.25005 8.01863 8.04916
C 8.38431 7.28777 6.93359
C 6.90686 6.83789 6.80268
H 6.10801 8.83512 7.91463
H 6.2984 7.59599 9.15505
H 8.98982 8.40816 8.77338
H 9.22004 6.9606 6.28125
H 6.40677 7.18891 5.90176
H 6.60215 5.76413 7.06606
10
 Atoms. Timestep: 1460
C 6.70852 7.91815 8.16709
C 8.22009 8.0528 8.04629
C 8.3792 7.22886 6.95296
C 6.93149 6.87985 6.83064
H 6.1321 8.78978 7.92458
H 6.38389 7.39735 9.13312
H 8.84095 8.54221 8.78744
H 9.24177 7.00783 6.30778
H 6.44406 7.15999 5.8148
H 6.64539 5.84487 6.93942
10
 Atoms. Timestep: 1480
C 6.73125 7.89532 8.1876
C 8.18169 8.04898 8.03968
C 8.37943 7.23825 7.02609
C 6.93838 6.87235 6.74934
H 6.10155 8.78304 7.98054
H 6.3747 7.27534 8.97318
H 8.8443 8.70692 8.60189
H 9.2439 7.00639 6.44521
H 6.46189 7.27875 5.87966
H 6.71313 5.84019 6.99224
10
 Atoms. Timestep: 1500
C 6.68224 7.83992 8.14324
C 8.19906 8.09341 8.08335
C 8.40219 7.24831 7.01908
C 6.94868 6.88096 6.74734
H 6.02434 8.7404 8.10263
H 6.29716 7.21754 8.96294
H 8.93178 8.83236 8.47008
H 9.36308 6.92141 6.56021
H 6.46115 7.33793 5.90126
H 6.6535 5.79478 6.93384
10
 Atoms. Timestep: 1520
C 6.64463 7.85016 8.17098
C 8.20217 8.10233 8.03223
C 8.42574 7.27699 7.0392
C 6.98687 6.86002 6.76709
H 5.93935 8.66519 8.07012
H 6.33169 7.15365 9.02072
H 8.83739 8.81305 8.54899
H 9.35619 6.8665 6.62902
H 6.49782 7.3425 5.83239
H 6.60511 5.8421 6.7307
10
 Atoms. Timestep: 1540
C 6.6843 7.84064 8.18043
C 8.11038 8.14903 8.03265
C 8.42283 7.23204 7.03333
C 6.99348 6.87084 6.75277
H 5.91369 8.59718 7.99617
H 6.46733 7.20823 9.01161
H 8.74029 8.74609 8.70795
H 9.35362 6.89196 6.59266
H 6.66646 7.39348 5.87518
H 6.71668 5.8278 6.71032
10
 Atoms. Timestep: 1560
C 6.67019 7.80169 8.13159
C 8.13111 8.13913 8.02707
C 8.41464 7.26527 7.10034
C 7.00608 6.87596 6.71756
H 5.88503 8.60224 8.02428
H 6.48398 7.22788 9.04884
H 8.68397 8.73651 8.74181
H 9.31906 6.98287 6.57581
H 6.64918 7.41645 5.85314
H 6.77064 5.7618 6.78576
10
 Atoms. Timestep: 1580
C 6.61754 7.80402 8.12252
C 8.13976 8.13968 8.11284
C 8.43852 7.29062 7.06471
C 7.0414 6.84819 6.70345
H 5.90198 8.60865 8.03791
H 6.33725 7.14338 9.01601
H 8.78311 8.83496 8.69105
H 9.43302 7.0553 6.59198
H 6.51899 7.27667 5.76513
H 6.72639 5.80603 6.76578
10
 Atoms. Timestep: 1600
C 6.63044 7.79562 8.12892
C 8.115 8.07619 8.12057
C 8.46084 7.36966 7.05516
C 7.0328 6.85716 6.73501
H 5.9348 8.61577 7.94852
H 6.19215 7.10563 8.81581
H 8.74099 8.80115 8.6231
H 9.41965 7.12744 6.64428
H 6.59571 7.16741 5.80956
H 6.80618 5.81078 6.80982
10
 Atoms. Timestep: 1620
C 6.62298 7.78802 8.13129
C 8.0914 8.06939 8.14136
C 8.43331 7.37774 7.02013
C 7.0713 6.85048 6.71955
H 5.98099 8.67161 7.81759
H 6.13361 7.11844 8.84629
H 8.6445 8.7397 8.80417
H 9.41409 7.22032 6.58814
H 6.65071 7.23223 5.79341
H 6.98614 5.72395 6.96545
10
 Atoms. Timestep: 1640
C 6.59031 7.75918 8.06715
C 8.08947 8.08588 8.16472
C 8.44137 7.40983 7.05325
C 7.11162 6.83009 6.71682
H 6.00646 8.61523 7.78913
H 6.14462 7.28749 9.00114
H 8.60064 8.60335 8.99408
H 9.37213 7.31441 6.44043
H 6.58176 7.12169 5.75488
H 7.02173 5.76787 6.89768
10
 Atoms. Timestep: 1660
C 6.59002 7.77122 8.0748
C 8.05589 8.06989 8.19065
C 8.48082 7.46819 7.07155
C 7.11163 6.79964 6.69069
H 5.93856 8.57212 7.71202
H 6.14433 7.35289 8.96752
H 8.62785 8.49497 9.01996
H 9.36667 7.43601 6.44726
H 6.60703 6.96856 5.74522
H 7.00942 5.74185 6.83084
10
 Atoms. Timestep: 1680
C 6.58897 7.75854 8.07438
C 8.05249 8.04771 8.21129
C 8.44344 7.47744 7.02278
C 7.123 6.81993 6.70953
H 5.9395 8.57434 7.62094
H 6.06272 7.22341 8.85563
H 8.62019 8.54073 8.99051
H 9.44709 7.55253 6.61263
H 6.70687 7.02094 5.72311
H 7.1003 5.68637 6.97831
10
 Atoms. Timestep: 1700
C 6.55523 7.726 8.05141
C 8.06103 8.03419 8.19448
C 8.43026 7.51219 7.06086
C 7.1653 6.82363 6.71381
H 6.01473 8.58053 7.6961
H 5.94433 7.07419 8.75974
H 8.57648 8.64024 8.93349
H 9.45565 7.50451 6.62471
H 6.70413 7.04156 5.71096
H 7.15773 5.80283 7.0406
10
 Atoms. Timestep: 1720
C 6.54396 7.70171 8.04605
C 7.98873 8.08107 8.24919
C 8.50269 7.50931 7.078
C 7.19612 6.82134 6.66898
H 5.9533 8.58756 7.7984
H 5.97065 7.08485 8.73446
H 8.55427 8.73152 8.97191
H 9.43709 7.41473 6.49906
H 6.66094 6.94988 5.72479
H 7.15879 5.77083 6.90706
10
 Atoms. Timestep: 1740
C 6.55363 7.68561 8.02375
C 8.01145 8.10408 8.1984
C 8.48567 7.50006 7.13681
C 7.19523 6.83226 6.66956
H 5.80677 8.51217 7.77123
H 6.12715 7.09195 8.81635
H 8.3569 8.69672 9.02088
H 9.41542 7.48422 6.63408
H 6.746 7.03523 5.70232
H 7.19591 5.66768 6.77311
10
 Atoms. Timestep: 1760
C 6.54659 7.68296 8.03176
C 7.95167 8.14977 8.19545
C 8.47095 7.46204 7.11709
C 7.20719 6.80481 6.65947
H 5.77479 8.34816 7.68368
H 6.27392 7.00589 8.90654
H 8.36584 8.72532 9.03218
H 9.55947 7.54346 6.82094
H 6.8939 7.26528 5.68493
H 7.19761 5.73442 6.73813
10
 Atoms. Timestep: 1780
C 6.53228 7.61554 8.02489
C 7.92135 8.17056 8.15651
C 8.50896 7.5184 7.20499
C 7.2439 6.82892 6.65521
H 5.7074 8.25102 7.7423
H 6.20676 6.9429 8.81734
H 8.43751 8.80631 8.88398
H 9.55034 7.38608 6.85297
H 6.88647 7.26764 5.70699
H 7.09661 5.76556 6.63574
10
 Atoms. Timestep: 1800
C 6.4955 7.56888 8.01811
C 7.91619 8.22651 8.19982
C 8.54051 7.47569 7.19559
C 7.29804 6.86195 6.63575
H 5.61804 8.29384 7.84179
H 6.15847 6.81198 8.7161
H 8.33358 9.02418 8.84792
H 9.55045 7.32487 6.89277
H 6.85154 7.25875 5.73901
H 7.11051 5.70827 6.55578
10
 Atoms. Timestep: 1820
C 6.51451 7.59829 7.99797
C 7.91251 8.19514 8.18444
C 8.50861 7.47619 7.23979
C 7.27164 6.8422 6.63372
H 5.66304 8.24591 7.86361
H 6.27533 6.70922 8.65366
H 8.10499 9.058 8.80113
H 9.56495 7.38248 6.95552
H 6.92682 7.37938 5.72201
H 7.34524 5.77417 6.55751
10
 Atoms. Timestep: 1840
C 6.53366 7.59671 7.9955
C 7.82717 8.18063 8.19284
C 8.5087 7.49261 7.25807
C 7.29771 6.83187 6.6144
H 5.6652 8.19323 7.82344
H 6.36031 6.7873 8.70888
H 8.11213 9.0266 8.84143
H 9.60096 7.46669 6.983
H 7.01729 7.3634 5.68044
H 7.36475 5.77179 6.48698
10
 Atoms. Timestep: 1860
C 6.47427 7.50748 7.96808
C 7.84584 8.23259 8.2062
C 8.52979 7.53485 7.26347
C 7.37061 6.85117 6.60504
H 5.54553 8.17599 7.74808
H 6.25263 6.85184 8.80611
H 8.20474 8.9423 8.96508
H 9.56081 7.52991 7.01157
H 7.02985 7.26331 5.66386
H 7.20738 5.70009 6.43755
10
 Atoms. Timestep: 1880
C 6.46697 7.49302 7.9339
C 7.84338 8.22585 8.21215
C 8.54054 7.5919 7.26268
C 7.36176 6.84011 6.62494
H 5.59444 8.04861 7.62754
H 6.11761 6.78676 8.73799
H 8.1867 8.82634 9.02882
H 9.59501 7.58964 7.00785
H 7.03942 7.30429 5.67484
H 7.31493 5.75914 6.60996
10
 Atoms. Timestep: 1900
C 6.4848 7.55352 7.95753
C 7.78039 8.15653 8.2497
C 8.51865 7.61681 7.23165
C 7.39255 6.82396 6.62839
H 5.67985 8.09724 7.50932
H 6.14362 6.69038 8.54132
H 8.07207 8.82469 9.08771
H 9.62267 7.68565 6.97904
H 7.0221 7.24527 5.66027
H 7.52532 5.77185 6.70769
10
 Atoms. Timestep: 1920
C 6.47962 7.50752 7.88922
C 7.81272 8.11161 8.29588
C 8.48764 7.67901 7.26267
C 7.42639 6.84983 6.62939
H 5.68963 8.30607 7.53383
H 6.09081 6.71831 8.52109
H 7.95217 8.83943 9.10338
H 9.49802 7.79908 6.94804
H 7.02458 6.97866 5.63454
H 7.63063 5.69062 6.68515
10
 Atoms. Timestep: 1940
C 6.44327 7.46897 7.8619
C 7.76366 8.11912 8.36411
C 8.52161 7.72481 7.24629
C 7.46763 6.80182 6.57704
H 5.76525 8.26103 7.61012
H 5.8927 6.82305 8.57263
H 8.01082 8.81216 9.17369
H 9.53476 7.95991 6.90764
H 7.10848 6.92564 5.54111
H 7.63496 5.74989 6.78776
10
 Atoms. Timestep: 1960
C 6.4661 7.45732 7.87877
C 7.75194 8.08614 8.28861
C 8.4855 7.76699 7.27779
C 7.48253 6.80822 6.62011
H 5.77532 8.16348 7.42147
H 5.83175 6.8139 8.52171
H 8.00581 8.61827 9.19103
H 9.48962 8.11196 6.95286
H 7.26818 7.00843 5.54366
H 7.63692 5.79192 6.86657
10
 Atoms. Timestep: 1980
C 6.44056 7.46047 7.87215
C 7.70991 8.09613 8.32373
C 8.48841 7.76394 7.22695
C 7.52285 6.85282 6.65994
H 5.769 8.09066 7.15083
H 5.96055 6.69235 8.48018
H 7.96594 8.53906 9.32681
H 9.47726 8.166 6.99001
H 7.29339 6.98683 5.59871
H 7.68745 5.70493 6.84584
10
 Atoms. Timestep: 2000
C 6.42461 7.4293 7.79806
C 7.72072 8.12043 8.35765
C 8.49479 7.83524 7.32483
C 7.54393 6.80984 6.6066
H 5.70384 8.02888 7.28455
H 5.96931 6.66672 8.42176
H 7.89373 8.58382 9.31023
H 9.47603 8.06834 6.94181
H 7.19441 6.92528 5.58937
H 7.78241 5.77812 6.81838
10
 Atoms. Timestep: 2020
C 6.46401 7.38616 7.7834
C 7.64344 8.12729 8.36535
C 8.49993 7.81793 7.32816
C 7.57963 6.82776 6.58334
H 5.66073 8.05761 7.48382
H 5.90499 6.62917 8.38863
H 7.79664 8.74535 9.25254
H 9.56055 8.06418 7.07253
H 7.20434 6.94114 5.52966
H 7.87465 5.82769 6.8003
10
 Atoms. Timestep: 2040
C 6.44462 7.35112 7.83547
C 7.63058 8.11132 8.28851
C 8.48393 7.79125 7.33821
C 7.60939 6.88406 6.59672
H 5.63853 8.1267 7.44738
H 6.03421 6.50069 8.39594
H 7.63999 8.84418 9.12817
H 9.50798 8.10709 7.30473
H 7.38764 7.0652 5.53125
H 7.90456 5.74967 6.72804
10
 Atoms. Timestep: 2060
C 6.42733 7.32072 7.79436
C 7.58501 8.15128 8.29528
C 8.5322 7.80469 7.39379
C 7.59525 6.86162 6.60391
H 5.61694 7.84983 7.38164
H 6.15769 6.48065 8.41203
H 7.61207 8.90394 9.07709
H 9.58654 8.11012 7.30123
H 7.48708 7.23001 5.60412
H 7.82487 5.81565 6.58879
10
 Atoms. Timestep: 2080
C 6.4358 7.29938 7.74988
C 7.55387 8.22827 8.3147
C 8.53356 7.78865 7.46778
C 7.66788 6.85497 6.5801
H 5.47278 7.61502 7.31676
H 6.18196 6.44913 8.45721
H 7.58522 8.93404 9.126
H 9.57875 8.04523 7.23234
H 7.35693 7.35884 5.60045
H 7.80169 5.79011 6.48156
10
 Atoms. Timestep: 2100
C 6.47551 7.27225 7.7473
C 7.52713 8.24276 8.26306
C 8.4882 7.75144 7.48908
C 7.69494 6.91554 6.59925
H 5.44976 7.59602 7.28891
H 6.29171 6.44219 8.41984
H 7.49166 8.93719 9.13277
H 9.52754 8.01834 7.3898
H 7.3248 7.33863 5.66605
H 7.92385 5.79569 6.3995
10
 Atoms. Timestep: 2120
C 6.44216 7.25482 7.77468
C 7.46414 8.2099 8.24318