ITEM: TIMESTEP
0
ITEM: NUMBER OF ATOMS
10
ITEM: BOX BOUNDS pp pp pp
0.0000000000000000e+00 1.5000000000000000e+01
0.0000000000000000e+00 1.5000000000000000e+01
0.0000000000000000e+00 1.5000000000000000e+01
ITEM: ATOMS id type x y z
10 2 6.27336 7.37044 8.99752
4 1 6.57832 7.79045 8.04829
7 2 9.05491 6.48555 6.41345
8 2 6.40982 5.98635 6.5476
9 2 5.8024 8.53845 7.73094
1 1 8.28329 8.29219 7.79283
3 1 6.92807 6.7577 7.07443
2 1 8.28339 7.05607 6.94127
6 2 8.91062 8.20234 8.73947
5 2 8.23446 9.2584 7.31912
ITEM: TIMESTEP
100
ITEM: NUMBER OF ATOMS
10
ITEM: BOX BOUNDS pp pp pp
0.0000000000000000e+00 1.5000000000000000e+01
0.0000000000000000e+00 1.5000000000000000e+01
0.0000000000000000e+00 1.5000000000000000e+01
ITEM: ATOMS id type x y z
10 2 5.93192 7.43997 8.87032
4 1 6.50227 7.76662 7.94237
7 2 9.18177 6.80796 6.27093
8 2 6.59966 5.75333 6.62146
9 2 5.86317 8.44179 7.31049
1 1 8.15301 8.28593 7.93992
3 1 7.09993 6.63844 7.09855
2 1 8.33817 7.19216 6.88991
6 2 8.70744 8.09045 8.87107
5 2 8.27977 9.38758 7.72023
ITEM: TIMESTEP
200
ITEM: NUMBER OF ATOMS
10
ITEM: BOX BOUNDS pp pp pp
0.0000000000000000e+00 1.5000000000000000e+01
0.0000000000000000e+00 1.5000000000000000e+01
0.0000000000000000e+00 1.5000000000000000e+01
ITEM: ATOMS id type x y z
10 2 6.16509 7.24769 8.82452
4 1 6.46515 7.64705 7.87152
7 2 9.33476 6.77754 6.73344
8 2 6.67929 5.99082 6.33283
9 2 5.66895 8.24004 7.47343
1 1 8.03446 8.34163 7.98026
3 1 7.20303 6.71592 6.92755
2 1 8.40886 7.17255 7.07242
6 2 8.5757 8.38192 8.91756
5 2 8.0312 9.31908 7.49668
ITEM: TIMESTEP
300
ITEM: NUMBER OF ATOMS
10
ITEM: BOX BOUNDS pp pp pp
0.0000000000000000e+00 1.5000000000000000e+01
0.0000000000000000e+00 1.5000000000000000e+01
0.0000000000000000e+00 1.5000000000000000e+01
ITEM: ATOMS id type x y z
10 2 6.06841 7.21993 8.73245
4 1 6.46699 7.60528 7.80736
7 2 9.49057 7.04815 6.82685
8 2 6.91058 5.82158 6.34413
9 2 5.66318 8.10616 7.25328
1 1 7.99463 8.34846 8.01583
3 1 7.21742 6.69952 6.90789
2 1 8.43286 7.23697 7.09634
6 2 8.36512 8.29807 9.04861
5 2 7.95471 9.38477 7.71923
ITEM: TIMESTEP
400
ITEM: NUMBER OF ATOMS
10
ITEM: BOX BOUNDS pp pp pp
0.0000000000000000e+00 1.5000000000000000e+01
0.0000000000000000e+00 1.5000000000000000e+01
0.0000000000000000e+00 1.5000000000000000e+01
ITEM: ATOMS id type x y z
10 2 5.86553 7.26233 8.65654
4 1 6.43049 7.54747 7.71195
7 2 9.49617 7.2303 6.71079
8 2 6.97529 5.70417 6.39332
9 2 5.75719 8.10427 7.03403
1 1 7.89243 8.36258 8.11308
3 1 7.3165 6.61411 6.92554
2 1 8.4932 7.36203 7.09972
6 2 8.27204 8.12964 9.1156
5 2 7.96208 9.47219 7.87691
ITEM: TIMESTEP
500
ITEM: NUMBER OF ATOMS
10
ITEM: BOX BOUNDS pp pp pp
0.0000000000000000e+00 1.5000000000000000e+01
0.0000000000000000e+00 1.5000000000000000e+01
0.0000000000000000e+00 1.5000000000000000e+01
ITEM: ATOMS id type x y z
10 2 6.13044 6.92865 8.58235
4 1 6.396 7.4409 7.64915
7 2 9.57145 7.19745 7.11828
8 2 7.20252 6.05665 5.99116
9 2 5.58055 7.93151 7.03861
1 1 7.83683 8.37661 8.12043
3 1 7.41772 6.70369 6.83634
2 1 8.49137 7.35622 7.28148
6 2 8.07133 8.51628 9.18996
5 2 7.71621 9.3249 7.6443
ITEM: TIMESTEP
600
ITEM: NUMBER OF ATOMS
10
ITEM: BOX BOUNDS pp pp pp
0.0000000000000000e+00 1.5000000000000000e+01
0.0000000000000000e+00 1.5000000000000000e+01
0.0000000000000000e+00 1.5000000000000000e+01
ITEM: ATOMS id type x y z
10 2 5.84452 6.86868 8.31713
4 1 6.37488 7.38552 7.5356
7 2 9.60925 7.45985 7.18112
8 2 7.55638 5.93072 6.05643
9 2 5.56954 7.78749 6.89234
1 1 7.7132 8.40522 8.19905
3 1 7.57121 6.66835 6.84824
2 1 8.53287 7.45281 7.28628
6 2 7.81481 8.25171 9.27279
5 2 7.57657 9.45011 7.95416
ITEM: TIMESTEP
700
ITEM: NUMBER OF ATOMS
10
ITEM: BOX BOUNDS pp pp pp
0.0000000000000000e+00 1.5000000000000000e+01
0.0000000000000000e+00 1.5000000000000000e+01
0.0000000000000000e+00 1.5000000000000000e+01
ITEM: ATOMS id type x y z
10 2 5.76094 6.68867 8.14803
4 1 6.3881 7.27859 7.4098
7 2 9.64237 7.67324 7.16402
8 2 7.85829 5.84795 6.17656
9 2 5.90602 7.89265 6.66151
1 1 7.52383 8.34185 8.21554
3 1 7.65881 6.70601 6.88889
2 1 8.56047 7.60633 7.37946
6 2 7.709 8.01957 9.25158
5 2 7.46011 9.50121 8.12518
ITEM: TIMESTEP
800
ITEM: NUMBER OF ATOMS
10
ITEM: BOX BOUNDS pp pp pp
0.0000000000000000e+00 1.5000000000000000e+01
0.0000000000000000e+00 1.5000000000000000e+01
0.0000000000000000e+00 1.5000000000000000e+01
ITEM: ATOMS id type x y z
10 2 5.92576 6.4329 7.96601
4 1 6.43951 7.19048 7.38708
7 2 9.6436 7.63133 7.69205
8 2 8.09999 6.20683 5.93016
9 2 5.60292 7.54859 6.7478
1 1 7.44347 8.3456 8.20491
3 1 7.77459 6.82063 6.73782
2 1 8.56066 7.59413 7.56831
6 2 7.31822 8.33728 9.31283
5 2 7.22416 9.35803 7.8514
ITEM: TIMESTEP
900
ITEM: NUMBER OF ATOMS
10
ITEM: BOX BOUNDS pp pp pp
0.0000000000000000e+00 1.5000000000000000e+01
0.0000000000000000e+00 1.5000000000000000e+01
0.0000000000000000e+00 1.5000000000000000e+01
ITEM: ATOMS id type x y z
10 2 5.93824 6.36188 7.77558
4 1 6.46134 7.15037 7.26177
7 2 9.60258 7.89256 7.73092
8 2 8.28928 6.05857 6.11236
9 2 5.84813 7.69281 6.53137
1 1 7.30776 8.27464 8.25611
3 1 7.90213 6.82119 6.83675
2 1 8.52274 7.72754 7.53919
6 2 7.17571 8.07734 9.29296
5 2 7.10621 9.29434 8.08284
ITEM: TIMESTEP
1000
ITEM: NUMBER OF ATOMS
10
ITEM: BOX BOUNDS pp pp pp
0.0000000000000000e+00 1.5000000000000000e+01
0.0000000000000000e+00 1.5000000000000000e+01
0.0000000000000000e+00 1.5000000000000000e+01
ITEM: ATOMS id type x y z
10 2 5.91086 6.26647 7.58086
4 1 6.53875 7.10885 7.16336
7 2 9.51633 8.06933 7.80956
8 2 8.3961 6.07989 6.21925
9 2 5.93311 7.70222 6.48528
1 1 7.19381 8.22601 8.28245
3 1 7.98208 6.82871 6.85971
2 1 8.50438 7.81904 7.5875
6 2 7.08051 7.89561 9.3121
5 2 6.97295 9.3108 8.12386
ITEM: TIMESTEP
1100
ITEM: NUMBER OF ATOMS
10
ITEM: BOX BOUNDS pp pp pp
0.0000000000000000e+00 1.5000000000000000e+01
0.0000000000000000e+00 1.5000000000000000e+01
0.0000000000000000e+00 1.5000000000000000e+01
ITEM: ATOMS id type x y z
10 2 6.19492 6.07335 7.5359
4 1 6.58448 7.01663 7.15144
7 2 9.4617 8.09668 8.22833
8 2 8.61729 6.41042 5.9669
9 2 5.80794 7.45157 6.42504
1 1 7.14995 8.22862 8.25463
3 1 8.0405 6.96503 6.73788
2 1 8.48267 7.75449 7.77818
6 2 6.70394 8.18193 9.31357
5 2 6.79262 9.21746 7.88644
ITEM: TIMESTEP
1200
ITEM: NUMBER OF ATOMS
10
ITEM: BOX BOUNDS pp pp pp
0.0000000000000000e+00 1.5000000000000000e+01
0.0000000000000000e+00 1.5000000000000000e+01
0.0000000000000000e+00 1.5000000000000000e+01
ITEM: ATOMS id type x y z
10 2 6.20688 6.04367 7.35839
4 1 6.66069 6.97303 6.98962
7 2 9.30595 8.40034 8.09001
8 2 8.73899 6.28101 6.24509
9 2 6.1283 7.57669 6.29378
1 1 6.98656 8.14269 8.26548
3 1 8.17526 6.99358 6.84344
2 1 8.40099 7.91233 7.84364
6 2 6.80863 7.65038 9.19678
5 2 6.59431 9.13811 8.05185
ITEM: TIMESTEP
1300
ITEM: NUMBER OF ATOMS
10
ITEM: BOX BOUNDS pp pp pp
0.0000000000000000e+00 1.5000000000000000e+01
0.0000000000000000e+00 1.5000000000000000e+01
0.0000000000000000e+00 1.5000000000000000e+01
ITEM: ATOMS id type x y z
10 2 6.31664 5.93627 7.11901
4 1 6.74555 6.93316 6.85347
7 2 9.16464 8.65665 8.31506
8 2 9.01572 6.47527 6.38547
9 2 6.14553 7.39808 6.09762
1 1 6.87517 8.04218 8.25071
3 1 8.28784 7.07867 6.94247
2 1 8.37563 7.97653 7.89261
6 2 6.47491 7.57585 9.10645
5 2 6.30146 8.99462 8.22979
ITEM: TIMESTEP
1400
ITEM: NUMBER OF ATOMS
10
ITEM: BOX BOUNDS pp pp pp
0.0000000000000000e+00 1.5000000000000000e+01
0.0000000000000000e+00 1.5000000000000000e+01
0.0000000000000000e+00 1.5000000000000000e+01
ITEM: ATOMS id type x y z
10 2 6.73895 5.8841 7.19914
4 1 6.86832 6.89842 6.83665
7 2 9.0394 8.46652 8.60978
8 2 9.19244 7.03114 6.31581
9 2 6.14024 7.05396 5.93432
1 1 6.76714 7.98691 8.19372
3 1 8.31776 7.24334 6.90717
2 1 8.28109 7.93963 8.06159
6 2 6.21503 7.46787 9.05731
5 2 6.39205 8.90659 7.77787
ITEM: TIMESTEP
1500
ITEM: NUMBER OF ATOMS
10
ITEM: BOX BOUNDS pp pp pp
0.0000000000000000e+00 1.5000000000000000e+01
0.0000000000000000e+00 1.5000000000000000e+01
0.0000000000000000e+00 1.5000000000000000e+01
ITEM: ATOMS id type x y z
10 2 6.6535 5.79478 6.93384
4 1 6.94868 6.88096 6.74734
7 2 8.93178 8.83236 8.47008
8 2 9.36308 6.92141 6.56021
9 2 6.46115 7.33793 5.90126
1 1 6.68224 7.83992 8.14324
3 1 8.40219 7.24831 7.01908
2 1 8.19906 8.09341 8.08335
6 2 6.29716 7.21754 8.96294
5 2 6.02434 8.7404 8.10263
ITEM: TIMESTEP
1600
ITEM: NUMBER OF ATOMS
10
ITEM: BOX BOUNDS pp pp pp
0.0000000000000000e+00 1.5000000000000000e+01
0.0000000000000000e+00 1.5000000000000000e+01
0.0000000000000000e+00 1.5000000000000000e+01
ITEM: ATOMS id type x y z
10 2 6.80618 5.81078 6.80982
4 1 7.0328 6.85716 6.73501
7 2 8.74099 8.80115 8.6231
8 2 9.41965 7.12744 6.64428
9 2 6.59571 7.16741 5.80956
1 1 6.63044 7.79562 8.12892
3 1 8.46084 7.36966 7.05516
2 1 8.115 8.07619 8.12057
6 2 6.19215 7.10563 8.81581
5 2 5.9348 8.61577 7.94852
ITEM: TIMESTEP
1700
ITEM: NUMBER OF ATOMS
10
ITEM: BOX BOUNDS pp pp pp
0.0000000000000000e+00 1.5000000000000000e+01
0.0000000000000000e+00 1.5000000000000000e+01
0.0000000000000000e+00 1.5000000000000000e+01
ITEM: ATOMS id type x y z
10 2 7.15773 5.80283 7.0406
4 1 7.1653 6.82363 6.71381
7 2 8.57648 8.64024 8.93349
8 2 9.45565 7.50451 6.62471
9 2 6.70413 7.04156 5.71096
1 1 6.55523 7.726 8.05141
3 1 8.43026 7.51219 7.06086
2 1 8.06103 8.03419 8.19448
6 2 5.94433 7.07419 8.75974
5 2 6.01473 8.58053 7.6961
ITEM: TIMESTEP
1800
ITEM: NUMBER OF ATOMS
10
ITEM: BOX BOUNDS pp pp pp
0.0000000000000000e+00 1.5000000000000000e+01
0.0000000000000000e+00 1.5000000000000000e+01
0.0000000000000000e+00 1.5000000000000000e+01
ITEM: ATOMS id type x y z
10 2 7.11051 5.70827 6.55578
4 1 7.29804 6.86195 6.63575
7 2 8.33358 9.02418 8.84792
8 2 9.55045 7.32487 6.89277
9 2 6.85154 7.25875 5.73901
1 1 6.4955 7.56888 8.01811
3 1 8.54051 7.47569 7.19559
2 1 7.91619 8.22651 8.19982
6 2 6.15847 6.81198 8.7161
5 2 5.61804 8.29384 7.84179
ITEM: TIMESTEP
1900
ITEM: NUMBER OF ATOMS
10
ITEM: BOX BOUNDS pp pp pp
0.0000000000000000e+00 1.5000000000000000e+01
0.0000000000000000e+00 1.5000000000000000e+01
0.0000000000000000e+00 1.5000000000000000e+01
ITEM: ATOMS id type x y z
10 2 7.52532 5.77185 6.70769
4 1 7.39255 6.82396 6.62839
7 2 8.07207 8.82469 9.08771
8 2 9.62267 7.68565 6.97904
9 2 7.0221 7.24527 5.66027
1 1 6.4848 7.55352 7.95753
3 1 8.51865 7.61681 7.23165
2 1 7.78039 8.15653 8.2497
6 2 6.14362 6.69038 8.54132
5 2 5.67985 8.09724 7.50932
ITEM: TIMESTEP
2000
ITEM: NUMBER OF ATOMS
10
ITEM: BOX BOUNDS pp pp pp
0.0000000000000000e+00 1.5000000000000000e+01
0.0000000000000000e+00 1.5000000000000000e+01
0.0000000000000000e+00 1.5000000000000000e+01
ITEM: ATOMS id type x y z
10 2 7.78241 5.77812 6.81838
4 1 7.54393 6.80984 6.6066
7 2 7.89373 8.58382 9.31023
8 2 9.47603 8.06834 6.94181
9 2 7.19441 6.92528 5.58937
1 1 6.42461 7.4293 7.79806
3 1 8.49479 7.83524 7.32483
2 1 7.72072 8.12043 8.35765
6 2 5.96931 6.66672 8.42176
5 2 5.70384 8.02888 7.28455
ITEM: TIMESTEP
2100
ITEM: NUMBER OF ATOMS
10
ITEM: BOX BOUNDS pp pp pp
0.0000000000000000e+00 1.5000000000000000e+01
0.0000000000000000e+00 1.5000000000000000e+01
0.0000000000000000e+00 1.5000000000000000e+01
ITEM: ATOMS id type x y z
10 2 7.92385 5.79569 6.3995
4 1 7.69494 6.91554 6.59925
7 2 7.49166 8.93719 9.13277
8 2 9.52754 8.01834 7.3898
9 2 7.3248 7.33863 5.66605
1 1 6.47551 7.27225 7.7473
3 1 8.4882 7.75144 7.48908
2 1 7.52713 8.24276 8.26306
6 2 6.29171 6.44219 8.41984
5 2 5.44976 7.59602 7.28891
ITEM: TIMESTEP
2200
ITEM: NUMBER OF ATOMS
10
ITEM: BOX BOUNDS pp pp pp
0.0000000000000000e+00 1.5000000000000000e+01
0.0000000000000000e+00 1.5000000000000000e+01
0.0000000000000000e+00 1.5000000000000000e+01
ITEM: ATOMS id type x y z
10 2 8.17358 5.90794 6.61423
4 1 7.76455 6.88876 6.62354
7 2 7.33162 8.73468 9.22625
8 2 9.45681 8.43625 7.45302
9 2 7.60169 7.25812 5.5575
1 1 6.45062 7.21342 7.66606
3 1 8.49039 7.89544 7.50593
2 1 7.41592 8.16691 8.32469
6 2 6.1739 6.28224 8.27572
5 2 5.65751 7.6136 7.04097
ITEM: TIMESTEP
2300
ITEM: NUMBER OF ATOMS
10
ITEM: BOX BOUNDS pp pp pp
0.0000000000000000e+00 1.5000000000000000e+01
0.0000000000000000e+00 1.5000000000000000e+01
0.0000000000000000e+00 1.5000000000000000e+01
ITEM: ATOMS id type x y z
10 2 8.22401 5.87732 6.78357
4 1 7.90443 6.90998 6.62222
7 2 7.26891 8.61989 9.33308
8 2 9.36345 8.61323 7.46464
9 2 7.80617 7.13835 5.60421
1 1 6.45394 7.13653 7.57088
3 1 8.4268 8.04562 7.55568
2 1 7.34502 8.09462 8.34854
6 2 6.05117 6.28937 8.10974
5 2 5.62919 7.56126 7.00986
ITEM: TIMESTEP
2400
ITEM: NUMBER OF ATOMS
10
ITEM: BOX BOUNDS pp pp pp
0.0000000000000000e+00 1.5000000000000000e+01
0.0000000000000000e+00 1.5000000000000000e+01
0.0000000000000000e+00 1.5000000000000000e+01
ITEM: ATOMS id type x y z
10 2 8.33538 5.96039 6.50086
4 1 7.98695 7.00277 6.6501
7 2 6.92856 8.78561 9.03807
8 2 9.31192 8.49546 7.90144
9 2 7.91349 7.52994 5.66896
1 1 6.48249 7.05146 7.55921
3 1 8.4046 7.9881 7.66875
2 1 7.23121 8.14214 8.2316
6 2 6.45918 6.16245 8.15774
5 2 5.54396 7.17935 6.96398
ITEM: TIMESTEP
2500
ITEM: NUMBER OF ATOMS
10
ITEM: BOX BOUNDS pp pp pp
0.0000000000000000e+00 1.5000000000000000e+01
0.0000000000000000e+00 1.5000000000000000e+01
0.0000000000000000e+00 1.5000000000000000e+01
ITEM: ATOMS id type x y z
10 2 8.57466 6.03899 6.81915
4 1 8.0936 7.01402 6.66426
7 2 6.64219 8.54467 9.17332
8 2 9.14193 8.96062 7.89696
9 2 8.23123 7.39577 5.56233
1 1 6.51271 6.93321 7.41409
3 1 8.35601 8.16 7.72523
2 1 7.12967 8.07977 8.32244
6 2 6.23293 5.90788 7.96325
5 2 5.7491 7.25009 6.7179
ITEM: TIMESTEP
2600
ITEM: NUMBER OF ATOMS
10
ITEM: BOX BOUNDS pp pp pp
0.0000000000000000e+00 1.5000000000000000e+01
0.0000000000000000e+00 1.5000000000000000e+01
0.0000000000000000e+00 1.5000000000000000e+01
ITEM: ATOMS id type x y z
10 2 8.69767 6.19553 7.07932
4 1 8.27393 7.15196 6.72256
7 2 6.46489 8.43202 9.13628
8 2 8.90263 9.01658 7.92459
9 2 8.38175 7.36158 5.67897
1 1 6.62519 6.87205 7.34076
3 1 8.21359 8.21707 7.7864
2 1 6.96152 7.94129 8.27738
6 2 6.32013 5.90965 7.74812
5 2 5.91154 7.21041 6.5591
ITEM: TIMESTEP
2700
ITEM: NUMBER OF ATOMS
10
ITEM: BOX BOUNDS pp pp pp
0.0000000000000000e+00 1.5000000000000000e+01
0.0000000000000000e+00 1.5000000000000000e+01
0.0000000000000000e+00 1.5000000000000000e+01
ITEM: ATOMS id type x y z
10 2 9.03779 6.41711 6.77956
4 1 8.31305 7.20811 6.77638
7 2 6.04156 8.48284 8.70696
8 2 8.86851 8.91062 8.40697
9 2 8.39985 7.69702 5.78052
1 1 6.68702 6.80474 7.27523
3 1 8.14971 8.2021 7.92966
2 1 6.8613 7.971 8.18117
6 2 6.69555 5.87372 7.82789
5 2 6.01431 6.72297 6.41244
ITEM: TIMESTEP
2800
ITEM: NUMBER OF ATOMS
10
ITEM: BOX BOUNDS pp pp pp
0.0000000000000000e+00 1.5000000000000000e+01
0.0000000000000000e+00 1.5000000000000000e+01
0.0000000000000000e+00 1.5000000000000000e+01
ITEM: ATOMS id type x y z
10 2 9.1496 6.47029 7.16889
4 1 8.39159 7.24569 6.8735
7 2 5.96957 8.15631 8.82421
8 2 8.62252 9.11252 8.3109
9 2 8.58179 7.62069 5.82881
1 1 6.7855 6.75848 7.13402
3 1 8.01883 8.32048 7.90494
2 1 6.81475 7.86702 8.23549
6 2 6.58411 5.7485 7.61452
5 2 6.15238 6.96174 6.25396
ITEM: TIMESTEP
2900
ITEM: NUMBER OF ATOMS
10
ITEM: BOX BOUNDS pp pp pp
0.0000000000000000e+00 1.5000000000000000e+01
0.0000000000000000e+00 1.5000000000000000e+01
0.0000000000000000e+00 1.5000000000000000e+01
ITEM: ATOMS id type x y z
10 2 9.19091 6.61416 7.33007
4 1 8.44798 7.35686 6.95847
7 2 5.91007 8.00817 8.82844
8 2 8.48987 9.15948 8.42168
9 2 8.69978 7.60721 5.93734
1 1 6.86328 6.71688 7.12563
3 1 7.94599 8.33684 7.9377
2 1 6.7245 7.79131 8.09987
6 2 6.69699 5.72507 7.43662
5 2 6.24591 6.89459 6.20485
ITEM: TIMESTEP
3000
ITEM: NUMBER OF ATOMS
10
ITEM: BOX BOUNDS pp pp pp
0.0000000000000000e+00 1.5000000000000000e+01
0.0000000000000000e+00 1.5000000000000000e+01
0.0000000000000000e+00 1.5000000000000000e+01
ITEM: ATOMS id type x y z
10 2 9.41517 6.95822 7.17703
4 1 8.50194 7.41353 6.97161
7 2 5.64174 8.01459 8.40899
8 2 8.34185 8.95116 8.91875
9 2 8.59419 7.93821 6.02783
1 1 6.94507 6.63665 7.08331
3 1 7.89846 8.3173 8.13009
2 1 6.60101 7.83621 7.91926
6 2 7.02437 5.64695 7.5438
5 2 6.42776 6.48871 6.18692
ITEM: TIMESTEP
3100
ITEM: NUMBER OF ATOMS
10
ITEM: BOX BOUNDS pp pp pp
0.0000000000000000e+00 1.5000000000000000e+01
0.0000000000000000e+00 1.5000000000000000e+01
0.0000000000000000e+00 1.5000000000000000e+01
ITEM: ATOMS id type x y z
10 2 9.35016 6.94745 7.77693
4 1 8.58601 7.53331 7.20096
7 2 5.63689 7.64526 8.50307
8 2 7.87609 9.24651 8.63004
9 2 8.90752 7.91525 6.22348
1 1 7.10171 6.62205 6.91975
3 1 7.65843 8.39287 8.00676
2 1 6.6094 7.61425 7.97286
6 2 7.01857 5.52457 7.1968
5 2 6.60139 6.96613 5.95673
ITEM: TIMESTEP
3200
ITEM: NUMBER OF ATOMS
10
ITEM: BOX BOUNDS pp pp pp
0.0000000000000000e+00 1.5000000000000000e+01
0.0000000000000000e+00 1.5000000000000000e+01
0.0000000000000000e+00 1.5000000000000000e+01
ITEM: ATOMS id type x y z
10 2 9.5273 7.16863 7.8648
4 1 8.63068 7.63191 7.31004
7 2 5.49035 7.53609 8.18512
8 2 7.58124 9.23203 8.7373
9 2 9.03483 8.0885 6.37491
1 1 7.19515 6.61394 6.87483
3 1 7.54226 8.37117 8.07274
2 1 6.52354 7.54618 7.88074
6 2 7.29155 5.54758 7.1011
5 2 6.84889 6.66799 5.79561
ITEM: TIMESTEP
3300
ITEM: NUMBER OF ATOMS
10
ITEM: BOX BOUNDS pp pp pp
0.0000000000000000e+00 1.5000000000000000e+01
0.0000000000000000e+00 1.5000000000000000e+01
0.0000000000000000e+00 1.5000000000000000e+01
ITEM: ATOMS id type x y z
10 2 9.55582 7.42664 7.88024
4 1 8.63145 7.7133 7.32196
7 2 5.36379 7.59592 7.81476
8 2 7.40779 9.04999 9.00163
9 2 8.86184 8.38065 6.48242
1 1 7.31241 6.59671 6.87189
3 1 7.47201 8.28633 8.21674
2 1 6.47051 7.50746 7.66432
6 2 7.53081 5.67697 7.42833
5 2 7.08565 6.467 5.83214
ITEM: TIMESTEP
3400
ITEM: NUMBER OF ATOMS
10
ITEM: BOX BOUNDS pp pp pp
0.0000000000000000e+00 1.5000000000000000e+01
0.0000000000000000e+00 1.5000000000000000e+01
0.0000000000000000e+00 1.5000000000000000e+01
ITEM: ATOMS id type x y z
10 2 9.19692 7.28946 8.22836
4 1 8.60151 7.79862 7.46873
7 2 5.42373 7.20885 7.96472
8 2 7.1814 9.26325 8.62118
9 2 9.23451 8.35516 6.746
1 1 7.4635 6.65694 6.82269
3 1 7.35248 8.31149 8.10717
2 1 6.46797 7.35804 7.69675
6 2 7.62675 5.57874 6.99004
5 2 7.14795 6.77401 5.76666
ITEM: TIMESTEP
3500
ITEM: NUMBER OF ATOMS
10
ITEM: BOX BOUNDS pp pp pp
0.0000000000000000e+00 1.5000000000000000e+01
0.0000000000000000e+00 1.5000000000000000e+01
0.0000000000000000e+00 1.5000000000000000e+01
ITEM: ATOMS id type x y z
10 2 9.31352 7.47958 8.2754
4 1 8.54837 7.84871 7.5353
7 2 5.42835 7.07958 7.54753
8 2 7.01256 9.14817 8.77893
9 2 9.15295 8.54532 6.961
1 1 7.57347 6.65172 6.79226
3 1 7.22604 8.25879 8.14461
2 1 6.46966 7.35507 7.61618
6 2 7.86229 5.62943 7.11546
5 2 7.44906 6.65216 5.68056
ITEM: TIMESTEP
3600
ITEM: NUMBER OF ATOMS
10
ITEM: BOX BOUNDS pp pp pp
0.0000000000000000e+00 1.5000000000000000e+01
0.0000000000000000e+00 1.5000000000000000e+01
0.0000000000000000e+00 1.5000000000000000e+01
ITEM: ATOMS id type x y z
10 2 9.25566 7.68106 8.356
4 1 8.51822 7.92328 7.62957
7 2 5.45325 7.1217 7.15327
8 2 6.90295 8.86439 8.98094
9 2 8.71084 8.77515 7.00228
1 1 7.70276 6.66495 6.79333
3 1 7.13433 8.20287 8.19814
2 1 6.49595 7.28905 7.43588
6 2 7.95074 5.74816 7.32786
5 2 7.74294 6.54864 5.72713
ITEM: TIMESTEP
3700
ITEM: NUMBER OF ATOMS
10
ITEM: BOX BOUNDS pp pp pp
0.0000000000000000e+00 1.5000000000000000e+01
0.0000000000000000e+00 1.5000000000000000e+01
0.0000000000000000e+00 1.5000000000000000e+01
ITEM: ATOMS id type x y z
10 2 8.9655 7.53392 8.63343
4 1 8.41398 8.0212 7.81348
7 2 5.50792 6.61689 7.33062
8 2 6.66476 9.18849 8.62451
9 2 9.08409 8.83227 7.51578
1 1 7.84681 6.71629 6.77453
3 1 6.98926 8.25245 8.04936
2 1 6.5517 7.06874 7.42092
6 2 8.27497 5.70119 6.73756
5 2 7.81622 6.99516 5.69735
ITEM: TIMESTEP
3800
ITEM: NUMBER OF ATOMS
10
ITEM: BOX BOUNDS pp pp pp
0.0000000000000000e+00 1.5000000000000000e+01
0.0000000000000000e+00 1.5000000000000000e+01
0.0000000000000000e+00 1.5000000000000000e+01
ITEM: ATOMS id type x y z
10 2 8.82711 7.84554 8.88852
4 1 8.34692 8.1284 7.90488
7 2 5.74363 6.61065 6.76384
8 2 6.25663 8.69658 8.75554
9 2 8.64513 9.11129 7.53541
1 1 8.02778 6.74095 6.81483
3 1 6.86272 8.06847 8.10194
2 1 6.57495 7.08898 7.18213
6 2 8.47766 5.73868 7.14437
5 2 8.29966 7.05654 5.77869
ITEM: TIMESTEP
3900
ITEM: NUMBER OF ATOMS
10
ITEM: BOX BOUNDS pp pp pp
0.0000000000000000e+00 1.5000000000000000e+01
0.0000000000000000e+00 1.5000000000000000e+01
0.0000000000000000e+00 1.5000000000000000e+01
ITEM: ATOMS id type x y z
10 2 8.77595 8.09293 8.9857
4 1 8.22112 8.18226 8.05417
7 2 5.78752 6.58947 6.53342
8 2 6.05339 8.31746 8.75248
9 2 8.47172 9.21407 7.57089
1 1 8.17609 6.85427 6.85053
3 1 6.73999 7.91813 8.02329
2 1 6.68058 7.05542 7.06208
6 2 8.49288 5.82368 7.21668
5 2 8.6359 7.12192 5.88939
ITEM: TIMESTEP
4000
ITEM: NUMBER OF ATOMS
10
ITEM: BOX BOUNDS pp pp pp
0.0000000000000000e+00 1.5000000000000000e+01
0.0000000000000000e+00 1.5000000000000000e+01
0.0000000000000000e+00 1.5000000000000000e+01
ITEM: ATOMS id type x y z
10 2 8.43124 7.78328 9.18783
4 1 8.12633 8.18505 8.15783
7 2 5.9818 6.23047 6.7632
8 2 5.79376 8.40507 8.36664
9 2 8.53552 9.19414 8.06611
1 1 8.2667 6.98822 6.85786
3 1 6.65983 7.96373 7.87006
2 1 6.77289 6.87446 7.06732
6 2 8.80982 6.05387 6.8595
5 2 8.61732 7.48445 5.92732
ITEM: TIMESTEP
4100
ITEM: NUMBER OF ATOMS
10
ITEM: BOX BOUNDS pp pp pp
0.0000000000000000e+00 1.5000000000000000e+01
0.0000000000000000e+00 1.5000000000000000e+01
0.0000000000000000e+00 1.5000000000000000e+01
ITEM: ATOMS id type x y z
10 2 8.35056 8.05712 9.20006
4 1 8.05872 8.21133 8.15544
7 2 6.10865 6.34156 6.32881
8 2 5.62912 7.97271 8.43524
9 2 8.16385 9.27878 7.94161
1 1 8.36799 7.02479 6.93006
3 1 6.61968 7.80862 7.95322
2 1 6.83352 6.96721 6.90442
6 2 8.76372 6.05695 7.2876
5 2 8.82864 7.44123 6.03683
ITEM: TIMESTEP
4200
ITEM: NUMBER OF ATOMS
10
ITEM: BOX BOUNDS pp pp pp
0.0000000000000000e+00 1.5000000000000000e+01
0.0000000000000000e+00 1.5000000000000000e+01
0.0000000000000000e+00 1.5000000000000000e+01
ITEM: ATOMS id type x y z
10 2 8.27222 8.09736 9.21335
4 1 7.89708 8.23155 8.23348
7 2 6.30374 6.34135 6.1815
8 2 5.6341 7.94661 8.30816
9 2 8.05944 9.30135 7.99294
1 1 8.43008 7.106 7.00761
3 1 6.57302 7.68017 7.88649
2 1 6.91157 6.95834 6.84639
6 2 9.00759 6.19107 7.22213
5 2 8.97642 7.48591 6.12712
ITEM: TIMESTEP
4300
ITEM: NUMBER OF ATOMS
10
ITEM: BOX BOUNDS pp pp pp
0.0000000000000000e+00 1.5000000000000000e+01
0.0000000000000000e+00 1.5000000000000000e+01
0.0000000000000000e+00 1.5000000000000000e+01
ITEM: ATOMS id type x y z
10 2 7.99158 7.6947 9.35388
4 1 7.79728 8.17872 8.32794
7 2 6.66193 6.00176 6.30431
8 2 5.51845 8.14838 7.9408
9 2 7.86595 9.24705 8.38913
1 1 8.49574 7.25751 7.01433
3 1 6.49258 7.69287 7.69864
2 1 7.06055 6.82193 6.88817
6 2 9.26371 6.49566 7.18445
5 2 8.74548 7.92626 6.14196
ITEM: TIMESTEP
4400
ITEM: NUMBER OF ATOMS
10
ITEM: BOX BOUNDS pp pp pp
0.0000000000000000e+00 1.5000000000000000e+01
0.0000000000000000e+00 1.5000000000000000e+01
0.0000000000000000e+00 1.5000000000000000e+01
ITEM: ATOMS id type x y z
10 2 7.86904 8.02619 9.42045
4 1 7.64562 8.19135 8.36949
7 2 7.05488 6.28443 5.78714
8 2 5.41892 7.48214 8.05324
9 2 7.40298 9.31198 8.16383
1 1 8.53977 7.37445 7.09708
3 1 6.46578 7.48155 7.74335
2 1 7.19564 6.90147 6.68345
6 2 9.06345 6.55459 7.69838
5 2 9.23394 7.86771 6.40578
ITEM: TIMESTEP
4500
ITEM: NUMBER OF ATOMS
10
ITEM: BOX BOUNDS pp pp pp
0.0000000000000000e+00 1.5000000000000000e+01
0.0000000000000000e+00 1.5000000000000000e+01
0.0000000000000000e+00 1.5000000000000000e+01
ITEM: ATOMS id type x y z
10 2 7.70461 7.9619 9.45674
4 1 7.44299 8.16596 8.39285
7 2 7.25151 6.27066 5.71997
8 2 5.37232 7.42698 7.80443
9 2 7.3628 9.26191 8.28108
1 1 8.58171 7.5001 7.2283
3 1 6.48414 7.34322 7.6348
2 1 7.32767 6.88692 6.6502
6 2 9.2625 6.80736 7.69412
5 2 9.15122 8.11403 6.49575
ITEM: TIMESTEP
4600
ITEM: NUMBER OF ATOMS
10
ITEM: BOX BOUNDS pp pp pp
0.0000000000000000e+00 1.5000000000000000e+01
0.0000000000000000e+00 1.5000000000000000e+01
0.0000000000000000e+00 1.5000000000000000e+01
ITEM: ATOMS id type x y z
10 2 7.46733 7.54276 9.33947
4 1 7.38905 8.14799 8.4307
7 2 7.48068 6.08378 5.9426
8 2 5.41007 7.38262 7.4092
9 2 7.2024 9.18623 8.58603
1 1 8.59029 7.61577 7.27339
3 1 6.47506 7.3288 7.47731
2 1 7.42426 6.82784 6.69786
6 2 9.42926 7.07677 7.73964
5 2 8.86228 8.42551 6.59647
ITEM: TIMESTEP
4700
ITEM: NUMBER OF ATOMS
10
ITEM: BOX BOUNDS pp pp pp
0.0000000000000000e+00 1.5000000000000000e+01
0.0000000000000000e+00 1.5000000000000000e+01
0.0000000000000000e+00 1.5000000000000000e+01
ITEM: ATOMS id type x y z
10 2 7.24205 7.90184 9.45126
4 1 7.25145 8.10329 8.40197
7 2 7.54965 6.37882 5.65739
8 2 5.50101 6.76977 7.48028
9 2 7.02455 9.22032 8.33394
1 1 8.58134 7.69294 7.35177
3 1 6.53534 7.16257 7.47414
2 1 7.51459 6.9551 6.61876
6 2 9.23587 7.02559 7.96894
5 2 9.27459 8.44022 6.91736
ITEM: TIMESTEP
4800
ITEM: NUMBER OF ATOMS
10
ITEM: BOX BOUNDS pp pp pp
0.0000000000000000e+00 1.5000000000000000e+01
0.0000000000000000e+00 1.5000000000000000e+01
0.0000000000000000e+00 1.5000000000000000e+01
ITEM: ATOMS id type x y z
10 2 7.09383 7.69152 9.476
4 1 7.1332 8.03358 8.39304
7 2 7.68406 6.33593 5.73182
8 2 5.5514 6.69826 7.18683
9 2 6.8934 9.07056 8.30962
1 1 8.57706 7.8298 7.48203
3 1 6.53097 7.13077 7.37885
2 1 7.6772 6.92466 6.62993
6 2 9.35205 7.25669 7.95642
5 2 9.03868 8.65418 6.92524
ITEM: TIMESTEP
4900
ITEM: NUMBER OF ATOMS
10
ITEM: BOX BOUNDS pp pp pp
0.0000000000000000e+00 1.5000000000000000e+01
0.0000000000000000e+00 1.5000000000000000e+01
0.0000000000000000e+00 1.5000000000000000e+01
ITEM: ATOMS id type x y z
10 2 6.90425 7.37859 9.32872
4 1 7.05073 7.95557 8.40947
7 2 8.12539 6.214 5.88921
8 2 5.64563 6.64313 6.81635
9 2 6.57498 8.98136 8.52237
1 1 8.56727 7.92981 7.54445
3 1 6.56314 7.10192 7.21018
2 1 7.77986 6.91632 6.69931
6 2 9.48614 7.70119 8.11412
5 2 8.62161 8.87997 7.03779
ITEM: TIMESTEP
5000
ITEM: NUMBER OF ATOMS
10
ITEM: BOX BOUNDS pp pp pp
0.0000000000000000e+00 1.5000000000000000e+01
0.0000000000000000e+00 1.5000000000000000e+01
0.0000000000000000e+00 1.5000000000000000e+01
ITEM: ATOMS id type x y z
10 2 6.65072 7.63002 9.37514
4 1 6.8445 7.91156 8.31131
7 2 8.24771 6.685 5.72053
8 2 5.96785 6.13305 7.08454
9 2 6.44197 8.91051 8.1248
1 1 8.50376 7.96035 7.68156
3 1 6.72888 6.89292 7.19974
2 1 7.86919 7.11796 6.60585
6 2 9.26905 7.53184 8.36486
5 2 8.86876 9.03284 7.42836
ITEM: TIMESTEP
5100
ITEM: NUMBER OF ATOMS
10
ITEM: BOX BOUNDS pp pp pp
0.0000000000000000e+00 1.5000000000000000e+01
0.0000000000000000e+00 1.5000000000000000e+01
0.0000000000000000e+00 1.5000000000000000e+01
ITEM: ATOMS id type x y z
10 2 6.70316 7.31568 9.24567
4 1 6.76348 7.82404 8.28401
7 2 8.61823 6.62763 5.82638
8 2 5.96538 6.18044 6.83341
9 2 6.20479 8.73004 8.17274
1 1 8.39775 8.10512 7.76843
3 1 6.76449 6.89816 7.09622
2 1 8.06026 7.08455 6.67308
6 2 9.18681 7.7716 8.49307
5 2 8.52978 9.12345 7.3873
ITEM: TIMESTEP
5200
ITEM: NUMBER OF ATOMS
10
ITEM: BOX BOUNDS pp pp pp
0.0000000000000000e+00 1.5000000000000000e+01
0.0000000000000000e+00 1.5000000000000000e+01
0.0000000000000000e+00 1.5000000000000000e+01
ITEM: ATOMS id type x y z
10 2 6.69536 7.19573 9.16582
4 1 6.73281 7.75282 8.24216
7 2 8.90573 6.72842 6.01507
8 2 6.03264 6.23581 6.57868
9 2 5.94445 8.54638 8.34858
1 1 8.35892 8.16958 7.77653
3 1 6.79176 6.89632 7.00939
2 1 8.15337 7.05497 6.75853
6 2 9.02681 8.07249 8.60758
5 2 8.29784 9.19896 7.45363
ITEM: TIMESTEP
5300
ITEM: NUMBER OF ATOMS
10
ITEM: BOX BOUNDS pp pp pp
0.0000000000000000e+00 1.5000000000000000e+01
0.0000000000000000e+00 1.5000000000000000e+01
0.0000000000000000e+00 1.5000000000000000e+01
ITEM: ATOMS id type x y z
10 2 6.52416 7.32616 9.20556
4 1 6.6248 7.71012 8.12727
7 2 8.79203 7.1225 5.86254
8 2 6.29624 5.94527 6.77693
9 2 5.97239 8.55915 7.87388
1 1 8.26911 8.17706 7.88571
3 1 6.98663 6.74876 7.0527
2 1 8.15761 7.23041 6.71111
6 2 8.84453 7.79887 8.74903
5 2 8.46574 9.27002 7.76027
ITEM: TIMESTEP
5400
ITEM: NUMBER OF ATOMS
10
ITEM: BOX BOUNDS pp pp pp
0.0000000000000000e+00 1.5000000000000000e+01
0.0000000000000000e+00 1.5000000000000000e+01
0.0000000000000000e+00 1.5000000000000000e+01
ITEM: ATOMS id type x y z
10 2 6.55881 7.11648 9.02837
4 1 6.60181 7.63529 8.08865
7 2 9.04896 7.07074 6.05617
8 2 6.40391 6.07263 6.37423
9 2 5.74534 8.32442 7.95292
1 1 8.16511 8.27853 7.96587
3 1 7.04415 6.72911 6.9241
2 1 8.28031 7.21557 6.83913
6 2 8.73437 8.17447 8.94822
5 2 8.08435 9.31029 7.6226
ITEM: TIMESTEP
5500
ITEM: NUMBER OF ATOMS
10
ITEM: BOX BOUNDS pp pp pp
0.0000000000000000e+00 1.5000000000000000e+01
0.0000000000000000e+00 1.5000000000000000e+01
0.0000000000000000e+00 1.5000000000000000e+01
ITEM: ATOMS id type x y z
10 2 6.54788 6.9817 8.93684
4 1 6.55672 7.4999 8.00361
7 2 9.27784 7.11585 6.33718
8 2 6.74905 6.05066 6.03028
9 2 5.6069 7.96891 7.90912
1 1 8.05888 8.34603 8.01134
3 1 7.1005 6.76102 6.84721
2 1 8.38609 7.27387 6.96718
6 2 8.44998 8.43211 8.99479
5 2 7.87923 9.38589 7.7048
ITEM: TIMESTEP
5600
ITEM: NUMBER OF ATOMS
10
ITEM: BOX BOUNDS pp pp pp
0.0000000000000000e+00 1.5000000000000000e+01
0.0000000000000000e+00 1.5000000000000000e+01
0.0000000000000000e+00 1.5000000000000000e+01
ITEM: ATOMS id type x y z
10 2 6.13632 7.0071 8.88381
4 1 6.46104 7.39958 7.8696
7 2 9.17157 7.44105 6.19197
8 2 7.1922 5.7299 6.37158
9 2 5.73445 8.05432 7.34598
1 1 7.90911 8.3665 8.12503
3 1 7.34591 6.65361 6.91272
2 1 8.39661 7.50978 6.92177
6 2 8.31396 7.95789 9.08857
5 2 7.89947 9.45291 8.03238
ITEM: TIMESTEP
5700
ITEM: NUMBER OF ATOMS
10
ITEM: BOX BOUNDS pp pp pp
0.0000000000000000e+00 1.5000000000000000e+01
0.0000000000000000e+00 1.5000000000000000e+01
0.0000000000000000e+00 1.5000000000000000e+01
ITEM: ATOMS id type x y z
10 2 6.21302 6.72529 8.75432
4 1 6.4377 7.31384 7.8449
7 2 9.52838 7.43028 6.66249
8 2 7.36853 5.9376 6.0408
9 2 5.44106 7.80879 7.45419
1 1 7.82166 8.39141 8.11746
3 1 7.44488 6.71625 6.80052
2 1 8.4626 7.49069 7.0635
6 2 8.07747 8.44014 9.20346
5 2 7.49449 9.4047 7.81549
ITEM: TIMESTEP
5800
ITEM: NUMBER OF ATOMS
10
ITEM: BOX BOUNDS pp pp pp
0.0000000000000000e+00 1.5000000000000000e+01
0.0000000000000000e+00 1.5000000000000000e+01
0.0000000000000000e+00 1.5000000000000000e+01
ITEM: ATOMS id type x y z