LAMMPS (2 Aug 2023 - Update 2)
#13 Butadiene
units           metal
boundary        p p p
atom_style      atomic

neighbor        2.0 bin
neigh_modify    delay 0 every 1 check yes

read_data       restart.lmp
Reading data file ...
  orthogonal box = (0 0 0) to (15 15 15)
  1 by 1 by 3 MPI processor grid
  reading atoms ...
  10 atoms
  reading velocities ...
  10 velocities
  read_data CPU = 0.001 seconds
mass            1 12.0
mass            2 2

variable        sysvol          equal vol
variable        sysmass         equal mass(all)/6.0221367e+23
variable        sysdensity      equal v_sysmass/v_sysvol/1.0e-24
variable	out_freq 	equal 100

pair_style      deepmd ../files/frozen_model_1_compressed.pb ../files/frozen_model_2_compressed.pb ../files/frozen_model_3_compressed.pb ../files/frozen_model_3_compressed.pb out_file md.out out_freq 10 atomic relative 1.0
Summary of lammps deepmd module ...
  >>> Info of deepmd-kit:
  installed to:       /rs1/researchers/w/wjpfaend/rahul/MLP/DeePMD-kit/deepmd_cpu
  source:             v2.2.8-dirty
  source branch:      master
  source commit:      b875ea8
  source commit at:   2024-01-22 22:28:58 -0500
  support model ver.: 1.1 
  build variant:      cpu
  build with tf inc:  /rs1/researchers/w/wjpfaend/rahul/MLP/DeePMD-kit/tensorflow/lib/python3.11/site-packages/tensorflow/include;/rs1/researchers/w/wjpfaend/rahul/MLP/DeePMD-kit/tensorflow/lib/python3.11/site-packages/tensorflow/include
  build with tf lib:  /rs1/researchers/w/wjpfaend/rahul/MLP/DeePMD-kit/tensorflow/lib/python3.11/site-packages/tensorflow/libtensorflow_cc.so.2
  set tf intra_op_parallelism_threads: 0
  set tf inter_op_parallelism_threads: 0
  >>> Info of lammps module:
  use deepmd-kit at:  /rs1/researchers/w/wjpfaend/rahul/MLP/DeePMD-kit/deepmd_cpu
  source:             v2.2.8-dirty
  source branch:      master
  source commit:      b875ea8
  source commit at:   2024-01-22 22:28:58 -0500
  build float prec:   double
  build with tf inc:  /rs1/researchers/w/wjpfaend/rahul/MLP/DeePMD-kit/tensorflow/lib/python3.11/site-packages/tensorflow/include;/rs1/researchers/w/wjpfaend/rahul/MLP/DeePMD-kit/tensorflow/lib/python3.11/site-packages/tensorflow/include
  build with tf lib:  /rs1/researchers/w/wjpfaend/rahul/MLP/DeePMD-kit/tensorflow/lib/python3.11/site-packages/tensorflow/libtensorflow_cc.so.2
pair_coeff	* *

#
velocity        all create 300.0 2345678 rot no dist gaussian
fix             1 all nvt temp 300.0 300.0 0.05
fix             2 all plumed plumedfile plumed.dat outfile PLUMED.log

timestep        0.0005
thermo_style    custom step pe ke etotal v_sysdensity temp press vol
thermo          10

dump            10 all custom 100 btd.dump id type x y z
dump		101 all xyz 20 btd.xyz
dump_modify	101 element C H

fix		extra all print 20 "$(step), $(ke), $(pe), $(etotal), $(temp), $(press), $(vol)" file logfile screen no

restart	        20000 dump.restart

run             50000

CITE-CITE-CITE-CITE-CITE-CITE-CITE-CITE-CITE-CITE-CITE-CITE-CITE

Your simulation uses code contributions which should be cited:

- USER-DEEPMD package:

@article{Wang_ComputPhysCommun_2018_v228_p178,
  author = {Wang, Han and Zhang, Linfeng and Han, Jiequn and E, Weinan},
  doi = {10.1016/j.cpc.2018.03.016},
  url = {https://doi.org/10.1016/j.cpc.2018.03.016},
  year = 2018,
  month = {jul},
  publisher = {Elsevier {BV}},
  volume = 228,
  journal = {Comput. Phys. Commun.},
  title = {{DeePMD-kit: A deep learning package for many-body potential energy representation and molecular dynamics}},
  pages = {178--184}
}
@misc{Zeng_JChemPhys_2023_v159_p054801,
  title  = {{DeePMD-kit v2: A software package for deep potential models}},
  author =   {Jinzhe Zeng and Duo Zhang and Denghui Lu and Pinghui Mo and Zeyu Li
         and Yixiao Chen and Mari{\'a}n Rynik and Li'ang Huang and Ziyao Li and 
         Shaochen Shi and Yingze Wang and Haotian Ye and Ping Tuo and Jiabin
         Yang and Ye Ding and Yifan Li and Davide Tisi and Qiyu Zeng and Han 
         Bao and Yu Xia and Jiameng Huang and Koki Muraoka and Yibo Wang and 
         Junhan Chang and Fengbo Yuan and Sigbj{\o}rn L{\o}land Bore and Chun
         Cai and Yinnian Lin and Bo Wang and Jiayan Xu and Jia-Xin Zhu and 
         Chenxing Luo and Yuzhi Zhang and Rhys E A Goodall and Wenshuo Liang
         and Anurag Kumar Singh and Sikai Yao and Jingchao Zhang and Renata
         Wentzcovitch and Jiequn Han and Jie Liu and Weile Jia and Darrin M
         York and Weinan E and Roberto Car and Linfeng Zhang and Han Wang},
  journal =  {J. Chem. Phys.},
  volume =   159,
  issue =    5,  
  year =    2023,
  pages  =   054801,
  doi =      {10.1063/5.0155600},
}

CITE-CITE-CITE-CITE-CITE-CITE-CITE-CITE-CITE-CITE-CITE-CITE-CITE

Generated 0 of 1 mixed pair_coeff terms from geometric mixing rule
Neighbor list info ...
  update: every = 1 steps, delay = 0 steps, check = yes
  max neighbors/atom: 2000, page size: 100000
  master list distance cutoff = 8
  ghost atom cutoff = 8
  binsize = 4, bins = 4 4 4
  1 neighbor lists, perpetual/occasional/extra = 1 0 0
  (1) pair deepmd, perpetual
      attributes: full, newton on
      pair build: full/bin/atomonly
      stencil: full/bin/3d
      bin: standard
Per MPI rank memory allocation (min/avg/max) = 2.957 | 2.999 | 3.082 Mbytes
   Step         PotEng         KinEng         TotEng      v_sysdensity       Temp          Press          Volume    
         0  -55.875002      0.34900239    -55.526         0.029520714    300           -638.39397      3375         
        10  -55.95971       0.41224518    -55.547465      0.029520714    354.36305      115.90878      3375         
        20  -56.01161       0.49238022    -55.51923       0.029520714    423.24657      1637.4284      3375         
        30  -55.965207      0.44438869    -55.520818      0.029520714    381.99339      232.70491      3375         
        40  -55.837696      0.29985917    -55.537837      0.029520714    257.75684     -2108.1316      3375         
        50  -55.884754      0.33419434    -55.55056       0.029520714    287.27111     -875.59834      3375         
        60  -56.054101      0.48559846    -55.568503      0.029520714    417.41702      1097.2074      3375         
        70  -55.865554      0.32527036    -55.540284      0.029520714    279.60011      1563.1718      3375         
        80  -55.93512       0.37052569    -55.564595      0.029520714    318.50128      326.06569      3375         
        90  -55.789245      0.21168849    -55.577556      0.029520714    181.96594     -1548.2258      3375         
       100  -55.976186      0.37833367    -55.597852      0.029520714    325.21296     -1062.1822      3375         
       110  -55.930092      0.33943628    -55.590656      0.029520714    291.77704      1344.2863      3375         
       120  -55.966423      0.37078212    -55.595641      0.029520714    318.7217       715.57241      3375         
       130  -55.932213      0.31885692    -55.613357      0.029520714    274.08716     -1172.2625      3375         
       140  -55.927231      0.29564815    -55.631583      0.029520714    254.13707     -359.0116       3375         
       150  -56.046778      0.38572181    -55.661057      0.029520714    331.56375      874.06158      3375         
       160  -55.955219      0.31240542    -55.642813      0.029520714    268.5415       939.41979      3375         
       170  -56.131235      0.46011334    -55.671122      0.029520714    395.51019     -185.94142      3375         
       180  -55.900393      0.19793233    -55.702461      0.029520714    170.14124     -1642.3418      3375         
       190  -56.01999       0.29429213    -55.725698      0.029520714    252.97145     -839.81947      3375         
       200  -56.016728      0.26939173    -55.747336      0.029520714    231.56723      1649.04        3375         
       210  -56.083226      0.32672833    -55.756497      0.029520714    280.85338      977.44873      3375         
       220  -55.962223      0.19092972    -55.771294      0.029520714    164.12184     -959.05981      3375         
       230  -55.988664      0.19667196    -55.791992      0.029520714    169.05783     -631.91429      3375         
       240  -56.079328      0.26012028    -55.819208      0.029520714    223.59756      455.13947      3375         
       250  -55.988271      0.17192848    -55.816342      0.029520714    147.78851      722.42031      3375         
       260  -56.078151      0.26411844    -55.814032      0.029520714    227.03435     -82.405119      3375         
       270  -56.009153      0.17712424    -55.832029      0.029520714    152.25475     -1253.8585      3375         
       280  -56.12665       0.28264514    -55.844005      0.029520714    242.95978     -495.7491       3375         
       290  -56.077184      0.22483087    -55.852353      0.029520714    193.26303      1515.4546      3375         
       300  -56.06575       0.22090049    -55.84485       0.029520714    189.88451      952.52646      3375         
       310  -56.027621      0.19181581    -55.835805      0.029520714    164.88352     -850.91922      3375         
       320  -56.13565       0.29006382    -55.845586      0.029520714    249.33682     -1099.6496      3375         
       330  -56.125597      0.27014554    -55.855451      0.029520714    232.21521      16.355801      3375         
       340  -56.003862      0.15384966    -55.850013      0.029520714    132.24808      674.43527      3375         
       350  -56.034795      0.21512529    -55.819669      0.029520714    184.92018      375.06651      3375         
       360  -56.055481      0.22853249    -55.826949      0.029520714    196.44492     -400.71466      3375         
       370  -56.03744       0.21611864    -55.821322      0.029520714    185.77406     -277.61308      3375         
       380  -56.056509      0.23861034    -55.817898      0.029520714    205.10777      651.44169      3375         
       390  -56.029457      0.22733789    -55.802119      0.029520714    195.41805      280.3248       3375         
       400  -55.928591      0.1691871     -55.759404      0.029520714    145.43204     -978.00261      3375         
       410  -56.029851      0.27515034    -55.754701      0.029520714    236.51729     -780.54833      3375         
       420  -56.085394      0.34970177    -55.735692      0.029520714    300.60118      795.14849      3375         
       430  -56.032039      0.31463266    -55.717407      0.029520714    270.45602      1144.6135      3375         
       440  -55.909996      0.25207188    -55.657924      0.029520714    216.67921      424.06306      3375         
       450  -56.031312      0.38298188    -55.64833       0.029520714    329.20853     -810.1985       3375         
       460  -55.941962      0.30835765    -55.633605      0.029520714    265.06207     -1447.3961      3375         
       470  -56.06732       0.44179975    -55.625521      0.029520714    379.76796     -169.58557      3375         
       480  -55.989902      0.37339011    -55.616512      0.029520714    320.96351      1063.4005      3375         
       490  -55.839355      0.25796973    -55.581385      0.029520714    221.74897      377.11707      3375         
       500  -55.964512      0.37848202    -55.58603       0.029520714    325.34048      162.4768       3375         
       510  -55.91437       0.32751313    -55.586857      0.029520714    281.52799      219.4482       3375         
       520  -55.953753      0.34899097    -55.604762      0.029520714    299.99018     -644.38333      3375         
       530  -55.847272      0.28203432    -55.565238      0.029520714    242.43472     -314.72307      3375         
       540  -55.996239      0.43495715    -55.561281      0.029520714    373.88611     -40.064815      3375         
       550  -55.81259       0.24567651    -55.566913      0.029520714    211.1818      -526.56059      3375         
       560  -55.968932      0.39792557    -55.571006      0.029520714    342.05402      587.85145      3375         
       570  -55.983427      0.40344905    -55.579978      0.029520714    346.80197      1323.9509      3375         
       580  -55.90108       0.36195008    -55.53913       0.029520714    311.12974     -209.30538      3375         
       590  -55.998852      0.45729686    -55.541555      0.029520714    393.08916     -610.14564      3375         
       600  -55.945699      0.39500983    -55.550689      0.029520714    339.54767     -615.92095      3375         
       610  -55.980049      0.410532      -55.569517      0.029520714    352.89042     -789.13474      3375         
       620  -55.89326       0.34113328    -55.552127      0.029520714    293.23577      667.2801       3375         
       630  -55.973431      0.43072861    -55.542703      0.029520714    370.25128      1276.6717      3375         
       640  -55.875142      0.32404028    -55.551102      0.029520714    278.54274     -314.12281      3375         
       650  -56.037929      0.47676553    -55.561163      0.029520714    409.8243      -583.04249      3375         
       660  -55.876114      0.29527803    -55.580836      0.029520714    253.81892      20.395391      3375         
       670  -55.721357      0.16129373    -55.560063      0.029520714    138.64695     -61.98341       3375         
       680  -55.966212      0.41461263    -55.551599      0.029520714    356.3981       417.51939      3375         
       690  -56.016749      0.4483934     -55.568356      0.029520714    385.43581     -287.17183      3375         
       700  -55.898521      0.31420884    -55.584312      0.029520714    270.09171     -775.45228      3375         
       710  -55.887696      0.30555645    -55.58214       0.029520714    262.65417      693.30238      3375         
       720  -56.007333      0.44098465    -55.566348      0.029520714    379.0673       1145.2522      3375         
       730  -55.921455      0.34858907    -55.572866      0.029520714    299.64471     -355.75642      3375         
       740  -55.982389      0.39579309    -55.586596      0.029520714    340.22096     -1020.4782      3375         
       750  -56.05531       0.44699489    -55.608315      0.029520714    384.23366     -688.751        3375         
       760  -55.964108      0.35381733    -55.610291      0.029520714    304.13889      249.11996      3375         
       770  -55.875332      0.28440142    -55.59093       0.029520714    244.46946      1388.5942      3375         
       780  -55.973226      0.35564789    -55.617579      0.029520714    305.71242      165.06195      3375         
       790  -55.962651      0.3299073     -55.632743      0.029520714    283.58599     -935.04173      3375         
       800  -56.003506      0.3570228     -55.646483      0.029520714    306.89429     -32.556216      3375         
       810  -55.893493      0.24400987    -55.649483      0.029520714    209.74917      536.00615      3375         
       820  -55.920273      0.27095199    -55.649321      0.029520714    232.90843     -361.4771       3375         
       830  -55.983401      0.32174529    -55.661656      0.029520714    276.56999     -834.54888      3375         
       840  -55.920562      0.24397508    -55.676587      0.029520714    209.71927     -53.41139       3375         
       850  -56.012383      0.32346235    -55.688921      0.029520714    278.04596      1139.183       3375         
       860  -56.04892       0.37479809    -55.674122      0.029520714    322.1738       1233.5238      3375         
       870  -56.003499      0.31039378    -55.693105      0.029520714    266.81231     -369.99908      3375         
       880  -55.906908      0.19994341    -55.706965      0.029520714    171.86994     -1750.5691      3375         
       890  -56.08907       0.37235167    -55.716718      0.029520714    320.07087     -993.78608      3375         
       900  -56.073626      0.34867368    -55.724952      0.029520714    299.71744      1094.322       3375         
       910  -56.002556      0.27657659    -55.725979      0.029520714    237.74329      1132.932       3375         
       920  -55.979005      0.24789509    -55.731109      0.029520714    213.08888     -152.32216      3375         
       930  -56.022837      0.27622502    -55.746612      0.029520714    237.44109     -250.01118      3375         
       940  -56.049624      0.28174676    -55.767877      0.029520714    242.18753     -2.850304       3375         
       950  -55.927695      0.18010741    -55.747588      0.029520714    154.81906     -113.79769      3375         
       960  -56.014484      0.26196638    -55.752517      0.029520714    225.18446     -151.10044      3375         
       970  -56.034782      0.27028888    -55.764493      0.029520714    232.33842     -732.27573      3375         
       980  -56.016049      0.24750594    -55.768543      0.029520714    212.75436     -152.85424      3375         
       990  -55.949488      0.17556467    -55.773923      0.029520714    150.91416      1675.7788      3375         
      1000  -56.052511      0.28106414    -55.771447      0.029520714    241.60076      721.32369      3375         
      1010  -56.063768      0.31413115    -55.749637      0.029520714    270.02493     -1270.3488      3375         
      1020  -56.03269       0.27591199    -55.756778      0.029520714    237.17201     -999.88834      3375         
      1030  -56.043903      0.27953188    -55.764371      0.029520714    240.28364     -152.53067      3375         
      1040  -55.983871      0.238414      -55.745457      0.029520714    204.939        707.35325      3375         
      1050  -56.079733      0.35737815    -55.722355      0.029520714    307.19975      1200.2224      3375         
      1060  -56.038722      0.31978513    -55.718937      0.029520714    274.88505     -477.49023      3375         
      1070  -55.985298      0.27850614    -55.706792      0.029520714    239.40191     -1014.5085      3375         
      1080  -56.013343      0.32089902    -55.692444      0.029520714    275.84254      710.46853      3375         
      1090  -55.979901      0.30517127    -55.674729      0.029520714    262.32308      201.49807      3375         
      1100  -55.860616      0.22661487    -55.634001      0.029520714    194.79655     -980.33153      3375         
      1110  -55.937005      0.31112715    -55.625878      0.029520714    267.44271     -101.66005      3375         
      1120  -56.030244      0.41835445    -55.611889      0.029520714    359.61454      414.39881      3375         
      1130  -55.840277      0.25474734    -55.58553       0.029520714    218.97902      858.72822      3375         
      1140  -55.897651      0.36135504    -55.536296      0.029520714    310.61825      993.78405      3375         
      1150  -56.000378      0.47669809    -55.52368       0.029520714    409.76633     -1206.4448      3375         
      1160  -55.830133      0.32586444    -55.504268      0.029520714    280.11078     -1618.049       3375         
      1170  -55.899089      0.40900925    -55.49008       0.029520714    351.58147      545.11378      3375         
      1180  -56.079902      0.58812462    -55.491777      0.029520714    505.54778      698.19078      3375         
      1190  -55.812249      0.37169505    -55.440554      0.029520714    319.50645     -105.25862      3375         
      1200  -55.890024      0.45230843    -55.437715      0.029520714    388.80114      381.97847      3375         
      1210  -55.9643        0.51901894    -55.445281      0.029520714    446.14503      52.741165      3375         
      1220  -55.900825      0.44899497    -55.45183       0.029520714    385.95292     -82.04325       3375         
      1230  -55.808101      0.37456491    -55.433536      0.029520714    321.97336      269.69877      3375         
      1240  -55.843937      0.40809842    -55.435839      0.029520714    350.79853     -707.00364      3375         
      1250  -55.804103      0.36448038    -55.439623      0.029520714    313.30477     -1055.0579      3375         
      1260  -55.929175      0.48092573    -55.448249      0.029520714    413.40038      586.17242      3375         
      1270  -55.907959      0.44155751    -55.466402      0.029520714    379.55973      1094.1013      3375         
      1280  -55.708231      0.25805188    -55.450179      0.029520714    221.81958      311.55827      3375         
      1290  -55.987624      0.53849452    -55.44913       0.029520714    462.8861       2.9085766      3375         
      1300  -55.869991      0.39996916    -55.470022      0.029520714    343.81067     -488.90429      3375         
      1310  -55.897615      0.40500915    -55.492606      0.029520714    348.14302     -970.21956      3375         
      1320  -55.996856      0.5003236     -55.496532      0.029520714    430.07464     -279.07419      3375         
      1330  -55.944547      0.44313165    -55.501416      0.029520714    380.91285      675.24082      3375         
      1340  -55.87134       0.34937125    -55.521968      0.029520714    300.31707      479.7411       3375         
      1350  -56.008602      0.4631568     -55.545445      0.029520714    398.12633      224.16567      3375         
      1360  -55.961466      0.38555967    -55.575907      0.029520714    331.42438      246.7219       3375         
      1370  -55.839675      0.2472149     -55.59246       0.029520714    212.50419     -521.37497      3375         
      1380  -56.028101      0.44231605    -55.585785      0.029520714    380.21177     -693.66099      3375         
      1390  -55.890651      0.2716681     -55.618983      0.029520714    233.52398     -72.163667      3375         
      1400  -55.899952      0.25405164    -55.645901      0.029520714    218.381       -62.500809      3375         
      1410  -55.962162      0.31388399    -55.648278      0.029520714    269.81247      599.74197      3375         
      1420  -56.032831      0.37915808    -55.653673      0.029520714    325.92161      1248.5432      3375         
      1430  -55.931787      0.2618477     -55.669939      0.029520714    225.08244     -166.59646      3375         
      1440  -56.020602      0.33576045    -55.684841      0.029520714    288.61732     -1265.1882      3375         
      1450  -56.003498      0.29978166    -55.703717      0.029520714    257.6902      -680.55735      3375         
      1460  -55.971779      0.26108415    -55.710695      0.029520714    224.4261      -50.950527      3375         
      1470  -56.089757      0.3928596     -55.696897      0.029520714    337.69935      832.77586      3375         
      1480  -56.056107      0.33764531    -55.718462      0.029520714    290.23753      1029.0202      3375         
      1490  -56.016245      0.28095623    -55.735289      0.029520714    241.508       -379.76803      3375         
      1500  -55.996978      0.25880784    -55.73817       0.029520714    222.4694      -537.22406      3375         
      1510  -55.998545      0.27082622    -55.727719      0.029520714    232.80031      309.62283      3375         
      1520  -55.958682      0.22692779    -55.731754      0.029520714    195.06553     -505.68297      3375         
      1530  -56.078905      0.34279535    -55.736109      0.029520714    294.66447     -799.42182      3375         
      1540  -56.000124      0.25752854    -55.742596      0.029520714    221.36972      384.27059      3375         
      1550  -55.927128      0.18187805    -55.74525       0.029520714    156.34109      775.00472      3375         
      1560  -55.956534      0.23929696    -55.717237      0.029520714    205.69799      890.88374      3375         
      1570  -56.069009      0.34613893    -55.72287       0.029520714    297.53859      140.29827      3375         
      1580  -56.007732      0.28371209    -55.72402       0.029520714    243.87692     -1583.385       3375         
      1590  -56.025441      0.30702161    -55.71842       0.029520714    263.91361     -967.08291      3375         
      1600  -56.026741      0.32248022    -55.704261      0.029520714    277.20173      1041.6986      3375         
      1610  -55.97117       0.27397976    -55.69719       0.029520714    235.51107      642.41464      3375         
      1620  -56.031331      0.34148577    -55.689845      0.029520714    293.53876     -255.93536      3375         
      1630  -56.060898      0.3696652     -55.691233      0.029520714    317.7616       78.290565      3375         
      1640  -56.067302      0.37677556    -55.690526      0.029520714    323.87362      21.720053      3375         
      1650  -55.872884      0.2053131     -55.667571      0.029520714    176.4857       200.62745      3375         
      1660  -55.968418      0.29497412    -55.673443      0.029520714    253.55767     -114.27441      3375         
      1670  -55.958281      0.28268445    -55.675596      0.029520714    242.99357     -1136.9883      3375         
      1680  -56.001546      0.33014498    -55.671401      0.029520714    283.79031     -335.90317      3375         
      1690  -55.95956       0.29222251    -55.667337      0.029520714    251.19241      1507.1564      3375         
      1700  -55.945406      0.28580178    -55.659604      0.029520714    245.6732       851.28645      3375         
      1710  -55.951099      0.30230897    -55.64879       0.029520714    259.86266     -655.11081      3375         
      1720  -55.938937      0.28689286    -55.652044      0.029520714    246.61109     -857.67233      3375         
      1730  -56.008681      0.3546832     -55.653998      0.029520714    304.88319     -288.75611      3375         
      1740  -55.991247      0.3581577     -55.633089      0.029520714    307.86984      530.41175      3375         
      1750  -56.084165      0.45693067    -55.627234      0.029520714    392.77439      223.53206      3375         
      1760  -55.907933      0.27744594    -55.630487      0.029520714    238.49058     -456.059        3375         
      1770  -55.969971      0.34410505    -55.625866      0.029520714    295.79028      163.3186       3375         
      1780  -56.052831      0.43588988    -55.616941      0.029520714    374.68788      996.92757      3375         
      1790  -55.998898      0.38628703    -55.612611      0.029520714    332.04961      65.835072      3375         
      1800  -55.842186      0.23796773    -55.604218      0.029520714    204.55538     -1248.137       3375         
      1810  -55.981073      0.37614307    -55.60493       0.029520714    323.32994     -1052.7625      3375         
      1820  -55.994402      0.38474444    -55.609658      0.029520714    330.72361      468.52014      3375         
      1830  -55.743727      0.15364344    -55.590083      0.029520714    132.07082      1489.1656      3375         
      1840  -55.964196      0.38593048    -55.578265      0.029520714    331.74312      685.94764      3375         
      1850  -56.030852      0.451961      -55.578891      0.029520714    388.5025      -789.75559      3375         
      1860  -55.868466      0.29690508    -55.571561      0.029520714    255.21751     -954.54599      3375         
      1870  -55.858214      0.29200272    -55.566212      0.029520714    251.00349      255.98421      3375         
      1880  -56.047574      0.48979784    -55.557776      0.029520714    421.02677      195.54692      3375         
      1890  -55.890635      0.36159086    -55.529044      0.029520714    310.82096     -806.58386      3375         
      1900  -55.965457      0.43832428    -55.527133      0.029520714    376.78047      11.337107      3375         
      1910  -56.059032      0.52707251    -55.531959      0.029520714    453.06782      1375.5821      3375         
      1920  -55.865523      0.34608494    -55.519438      0.029520714    297.49218      756.77729      3375         
      1930  -55.958179      0.46257359    -55.495606      0.029520714    397.625       -471.9707       3375         
      1940  -55.89573       0.39050216    -55.505228      0.029520714    335.67291     -1347.7664      3375         
      1950  -55.851082      0.3465845     -55.504498      0.029520714    297.92159     -1388.1963      3375         
      1960  -55.965289      0.46370237    -55.501586      0.029520714    398.5953       1094.3976      3375         
      1970  -55.932495      0.43254048    -55.499954      0.029520714    371.80876      1711.7973      3375         
      1980  -55.676139      0.18628493    -55.489854      0.029520714    160.12921     -324.86838      3375         
      1990  -55.940038      0.45038826    -55.489649      0.029520714    387.15058     -491.72278      3375         
      2000  -55.963508      0.46490802    -55.4986        0.029520714    399.63166      291.97544      3375         
      2010  -55.770373      0.27442718    -55.495946      0.029520714    235.89567     -596.22861      3375         
      2020  -55.966505      0.49659209    -55.469913      0.029520714    426.86707     -438.71323      3375         
      2030  -55.995063      0.50962984    -55.485434      0.029520714    438.07422      62.543414      3375         
      2040  -55.82133       0.32870673    -55.492623      0.029520714    282.55399      17.661127      3375         
      2050  -55.951915      0.45605051    -55.495864      0.029520714    392.01781      1182.5155      3375         
      2060  -56.086464      0.57747926    -55.508985      0.029520714    496.39711      773.61765      3375         
      2070  -55.87796       0.36619977    -55.51176       0.029520714    314.78275     -1505.6239      3375         
      2080  -55.955988      0.43299421    -55.522994      0.029520714    372.19878     -1199.9152      3375         
      2090  -55.875806      0.32540517    -55.550401      0.029520714    279.716        590.02488      3375         
      2100  -55.898384      0.32304938    -55.575335      0.029520714    277.69098      543.77237      3375         
      2110  -55.975985      0.40827614    -55.567709      0.029520714    350.95129      490.23299      3375         
      2120  -55.946963      0.34768271    -55.59928       0.029520714    298.86561      224.95773      3375         
      2130  -55.850676      0.22886499    -55.621811      0.029520714    196.73073     -600.26262      3375         
      2140  -55.933715      0.29880508    -55.63491       0.029520714    256.85075     -156.18221      3375         
      2150  -55.985164      0.32845203    -55.656712      0.029520714    282.33505      205.05718      3375         
      2160  -55.930981      0.26500776    -55.665974      0.029520714    227.7988      -493.17133      3375         
      2170  -56.072429      0.3944455     -55.677983      0.029520714    339.06258     -152.6973       3375         
      2180  -56.031338      0.32368371    -55.707654      0.029520714    278.23624      652.33902      3375         
      2190  -55.99179       0.26008437    -55.731705      0.029520714    223.5667       229.34745      3375         
      2200  -55.987027      0.2710808     -55.715947      0.029520714    233.01915      25.321682      3375         
      2210  -56.137809      0.40334758    -55.734461      0.029520714    346.71474     -48.563545      3375         
      2220  -56.025457      0.2699637     -55.755493      0.029520714    232.05889     -506.1339       3375         
      2230  -55.981109      0.21569431    -55.765415      0.029520714    185.40931     -273.90486      3375         
      2240  -56.029379      0.25388639    -55.775493      0.029520714    218.23896      256.07532      3375         
      2250  -56.053536      0.27583487    -55.777701      0.029520714    237.10571      15.678303      3375         
      2260  -55.994175      0.22587579    -55.768299      0.029520714    194.16124      165.80381      3375         
      2270  -55.99411       0.21359911    -55.780511      0.029520714    183.60829      493.47705      3375         
      2280  -56.043345      0.25063175    -55.792714      0.029520714    215.44129     -110.48397      3375         
      2290  -55.966273      0.19019735    -55.776076      0.029520714    163.49231     -376.95733      3375         
      2300  -56.035512      0.26591206    -55.769599      0.029520714    228.57614      5.7293181      3375         
      2310  -56.042959      0.26962895    -55.77333       0.029520714    231.77114     -351.38299      3375         
      2320  -56.057461      0.29151999    -55.765941      0.029520714    250.58854     -281.86497      3375         
      2330  -56.044339      0.28845585    -55.755883      0.029520714    247.95462      754.42307      3375         
      2340  -56.064151      0.3173002     -55.746851      0.029520714    272.74902      522.32959      3375         
      2350  -55.978923      0.25363865    -55.725284      0.029520714    218.026       -159.21208      3375         
      2360  -56.037085      0.3201249     -55.71696       0.029520714    275.17711     -236.6948       3375         
      2370  -56.073452      0.36392007    -55.709532      0.029520714    312.82313     -826.86449      3375         
      2380  -55.919719      0.24549082    -55.674228      0.029520714    211.02218     -659.72287      3375         
      2390  -55.966443      0.32224351    -55.6442        0.029520714    276.99825      1155.4534      3375         
      2400  -55.958877      0.32967959    -55.629197      0.029520714    283.39025      984.62946      3375         
      2410  -55.852592      0.24969085    -55.602901      0.029520714    214.6325      -336.37368      3375         
      2420  -55.945823      0.37206093    -55.573762      0.029520714    319.82096     -191.32223      3375         
      2430  -55.971031      0.41941372    -55.551617      0.029520714    360.52508     -486.84319      3375         
      2440  -55.770293      0.26622586    -55.504067      0.029520714    228.84587     -760.46256      3375         
      2450  -55.948887      0.46353493    -55.485352      0.029520714    398.45137      239.95688      3375         
      2460  -55.943449      0.46909797    -55.474351      0.029520714    403.23331      405.9852       3375         
      2470  -55.803677      0.34221882    -55.461458      0.029520714    294.16889      425.1662       3375         
      2480  -56.014143      0.5745341     -55.439609      0.029520714    493.86547      1275.711       3375         
      2490  -55.997064      0.56175295    -55.435311      0.029520714    482.87888     -263.75183      3375         
      2500  -55.741162      0.31034491    -55.430817      0.029520714    266.7703      -2074.1052      3375         
      2510  -55.944098      0.50728052    -55.436818      0.029520714    436.05477     -1064.268       3375         
      2520  -55.957674      0.50495892    -55.452715      0.029520714    434.05913      911.73106      3375         
      2530  -55.717747      0.27764735    -55.4401        0.029520714    238.66371      1741.7388      3375         
      2540  -56.013706      0.57133629    -55.44237       0.029520714    491.11665      801.98173      3375         
      2550  -55.898737      0.43673554    -55.462001      0.029520714    375.4148      -1220.8929      3375         
      2560  -55.715871      0.23599502    -55.479876      0.029520714    202.85966     -1247.3825      3375         
      2570  -55.82951       0.36069053    -55.46882       0.029520714    310.04704      569.02988      3375         
      2580  -55.989602      0.5193388     -55.470263      0.029520714    446.41998      439.52293      3375         
      2590  -55.848582      0.36487626    -55.483706      0.029520714    313.64506     -444.29466      3375         
      2600  -55.91325       0.41404086    -55.499209      0.029520714    355.90661     -25.707827      3375         
      2610  -55.965723      0.43674015    -55.528983      0.029520714    375.41876      626.44493      3375         
      2620  -55.847684      0.32960545    -55.518079      0.029520714    283.32652      502.09654      3375         
      2630  -55.994022      0.47514702    -55.518875      0.029520714    408.43303     -190.67915      3375         
      2640  -55.970253      0.41855064    -55.551702      0.029520714    359.78318     -1218.9046      3375         
      2650  -55.960979      0.387237      -55.573742      0.029520714    332.8662      -492.94657      3375         
      2660  -55.973814      0.37853932    -55.595275      0.029520714    325.38974      1162.1965      3375         
      2670  -55.915931      0.3165176     -55.599414      0.029520714    272.0763       790.82783      3375         
      2680  -55.870045      0.26554838    -55.604497      0.029520714    228.26352     -668.27377      3375         
      2690  -56.022158      0.39731892    -55.62484       0.029520714    341.53255     -728.0175       3375         
      2700  -56.045475      0.39444858    -55.651026      0.029520714    339.06522      240.0584       3375         
      2710  -55.77475       0.11947896    -55.655271      0.029520714    102.70327      713.86978      3375         
      2720  -55.946308      0.29677425    -55.649534      0.029520714    255.10506      273.23709      3375         
      2730  -56.060728      0.39301939    -55.667708      0.029520714    337.8367      -850.20084      3375         
      2740  -55.931037      0.2494595     -55.681578      0.029520714    214.43363     -849.15658      3375         
      2750  -55.976467      0.28725241    -55.689214      0.029520714    246.92015      737.89027      3375         
      2760  -56.068031      0.37936526    -55.688665      0.029520714    326.09971      1177.4277      3375         
      2770  -55.999151      0.31239469    -55.686756      0.029520714    268.53227     -225.4308       3375         
      2780  -55.968183      0.26769237    -55.700491      0.029520714    230.10647     -887.71804      3375         
      2790  -56.06549       0.34834272    -55.717148      0.029520714    299.43295     -297.67995      3375         
      2800  -56.005571      0.28220151    -55.723369      0.029520714    242.57843      139.76812      3375         
      2810  -56.038085      0.33931386    -55.698771      0.029520714    291.6718       398.07258      3375         
      2820  -56.010429      0.293757      -55.716672      0.029520714    252.51145      100.561        3375         
      2830  -55.908028      0.18428406    -55.723744      0.029520714    158.40928     -292.7398       3375         
      2840  -55.98425       0.25608879    -55.728161      0.029520714    220.13212      516.47623      3375         
      2850  -56.032927      0.29935411    -55.733573      0.029520714    257.32269      657.56792      3375         
      2860  -55.980971      0.2679965     -55.712975      0.029520714    230.36791     -1061.9786      3375         
      2870  -55.958123      0.24707327    -55.711049      0.029520714    212.38245     -1276.0393      3375         
      2880  -55.988556      0.27108136    -55.717475      0.029520714    233.01963      345.94672      3375         
      2890  -55.96481       0.24629851    -55.718512      0.029520714    211.71647      1310.3569      3375         
      2900  -56.035045      0.35557119    -55.679473      0.029520714    305.64649      1146.2269      3375         
      2910  -56.070417      0.40658954    -55.663827      0.029520714    349.5015      -231.59569      3375         
      2920  -55.94497       0.29713992    -55.64783       0.029520714    255.41939     -1845.1374      3375         
      2930  -55.936931      0.30685523    -55.630076      0.029520714    263.77059     -731.96845      3375         
      2940  -56.043845      0.43878841    -55.605057      0.029520714    377.17943      898.85029      3375         
      2950  -55.933748      0.38304517    -55.550702      0.029520714    329.26293      333.62998      3375         
      2960  -55.893504      0.37766331    -55.515841      0.029520714    324.63672      312.27139      3375         
      2970  -55.859771      0.36293308    -55.496838      0.029520714    311.97472      648.82651      3375         
      2980  -55.943231      0.45351192    -55.489719      0.029520714    389.83566     -434.67225      3375         
      2990  -55.775552      0.34437512    -55.431177      0.029520714    296.02243     -462.475        3375         
      3000  -55.708521      0.30215855    -55.406363      0.029520714    259.73337     -76.062985      3375         
      3010  -55.843769      0.44683868    -55.39693       0.029520714    384.09939     -859.73773      3375         
      3020  -55.856172      0.47604688    -55.380125      0.029520714    409.20655      421.43639      3375         
      3030  -55.807624      0.4336019     -55.374022      0.029520714    372.72115      1481.5844      3375         
      3040  -55.793857      0.423464      -55.370393      0.029520714    364.00668     -33.853164      3375         
      3050  -55.978138      0.6650202     -55.313118      0.029520714    571.64668     -523.91813      3375         
      3060  -55.793956      0.45428626    -55.33967       0.029520714    390.50127     -478.05266      3375         
      3070  -55.885229      0.52979708    -55.355432      0.029520714    455.40985     -1071.8452      3375         
      3080  -55.89748       0.52983948    -55.367641      0.029520714    455.44629      400.42826      3375         
      3090  -55.88694       0.53802279    -55.348918      0.029520714    462.4806       1610.3622      3375         
      3100  -55.883082      0.50390134    -55.379181      0.029520714    433.15005     -81.716096      3375         
      3110  -55.73947       0.3366444     -55.402826      0.029520714    289.37716     -823.30764      3375         
      3120  -55.904087      0.47061186    -55.433475      0.029520714    404.53464     -53.369753      3375         
      3130  -55.823307      0.36700424    -55.456303      0.029520714    315.47426      48.471542      3375         
      3140  -55.849853      0.41143243    -55.43842       0.029520714    353.66442      185.48737      3375         
      3150  -55.77592       0.29552389    -55.480396      0.029520714    254.03026     -88.737344      3375         
      3160  -55.907734      0.40382513    -55.503909      0.029520714    347.12524     -707.10406      3375         
      3170  -55.868447      0.32995175    -55.538495      0.029520714    283.6242       287.11852      3375         
      3180  -55.890572      0.3831693     -55.507402      0.029520714    329.36964      1377.0846      3375         
      3190  -56.033198      0.50041607    -55.532782      0.029520714    430.15413      313.96444      3375         
      3200  -55.934373      0.3665763     -55.567797      0.029520714    315.10641     -1171.8151      3375         
      3210  -55.938689      0.35163195    -55.587057      0.029520714    302.26035     -1033.7224      3375         
      3220  -55.976071      0.3572996     -55.618771      0.029520714    307.13222      96.718864      3375         
      3230  -56.033508      0.43792169    -55.595586      0.029520714    376.43441      894.86807      3375         
      3240  -55.958092      0.33664843    -55.621444      0.029520714    289.38062      428.37124      3375         
      3250  -55.983434      0.34057774    -55.642857      0.029520714    292.75823     -548.19017      3375         
      3260  -55.958948      0.29142065    -55.667528      0.029520714    250.50314     -112.31469      3375         
      3270  -55.909924      0.2537712     -55.656153      0.029520714    218.13994      785.29023      3375         
      3280  -55.920122      0.27578199    -55.64434       0.029520714    237.06026      253.1072       3375         
      3290  -55.952863      0.29091001    -55.661953      0.029520714    250.0642      -1123.0816      3375         
      3300  -55.933695      0.26590856    -55.667786      0.029520714    228.57313     -1033.8454      3375         
      3310  -56.020907      0.33765016    -55.683257      0.029520714    290.2417       472.24076      3375         
      3320  -55.89291       0.23570747    -55.657202      0.029520714    202.61248      1668.1869      3375         
      3330  -55.976088      0.31908975    -55.656998      0.029520714    274.28731      781.90664      3375         
      3340  -56.051765      0.38763335    -55.664132      0.029520714    333.2069      -1381.3101      3375         
      3350  -56.009095      0.33444172    -55.674653      0.029520714    287.48375     -1449.2319      3375         
      3360  -55.99855       0.33039217    -55.668158      0.029520714    284.00279      541.7099       3375         
      3370  -55.969921      0.32768955    -55.642231      0.029520714    281.67963      1084.7115      3375         
      3380  -56.054206      0.4047662     -55.64944       0.029520714    347.93418     -213.98635      3375         
      3390  -55.920194      0.26481882    -55.655375      0.029520714    227.63639     -438.13592      3375         
      3400  -56.047827      0.37977789    -55.668049      0.029520714    326.45441      125.18635      3375         
      3410  -55.894912      0.24698497    -55.647927      0.029520714    212.30654      705.46494      3375         
      3420  -55.966598      0.32877535    -55.637822      0.029520714    282.61298      218.91984      3375         
      3430  -55.928942      0.28486622    -55.644075      0.029520714    244.869       -1541.0197      3375         
      3440  -55.867354      0.22082226    -55.646531      0.029520714    189.81726     -981.51202      3375         
      3450  -55.968621      0.32202367    -55.646597      0.029520714    276.80928      1673.6431      3375         
      3460  -55.96146       0.33703087    -55.624429      0.029520714    289.70937      1664.1409      3375         
      3470  -55.992463      0.38351991    -55.608943      0.029520714    329.67102     -535.58545      3375         
      3480  -55.833207      0.21922455    -55.613983      0.029520714    188.44388     -1320.1531      3375         
      3490  -56.097389      0.47935976    -55.61803       0.029520714    412.05428     -995.78226      3375         
      3500  -55.960587      0.36120533    -55.599382      0.029520714    310.48956      644.11084      3375         
      3510  -55.993453      0.4108357     -55.582617      0.029520714    353.15148      1260.3214      3375         
      3520  -55.907181      0.32263646    -55.584544      0.029520714    277.33603     -589.812        3375         
      3530  -55.974032      0.38934846    -55.584684      0.029520714    334.6812      -728.69811      3375         
      3540  -56.01268       0.42523042    -55.587449      0.029520714    365.52508      1136.695       3375         
      3550  -55.907995      0.33144779    -55.576547      0.029520714    284.91019      512.06747      3375         
      3560  -55.861865      0.30908159    -55.552784      0.029520714    265.68436     -980.39422      3375         
      3570  -55.783018      0.21753039    -55.565487      0.029520714    186.98759     -1012.9752      3375         
      3580  -56.01213       0.44485264    -55.567278      0.029520714    382.3922      -246.35674      3375         
      3590  -55.909343      0.34641551    -55.562927      0.029520714    297.77634      1547.975       3375         
      3600  -55.904069      0.3667328     -55.537336      0.029520714    315.24093      1297.7735      3375         
      3610  -55.829386      0.3018549     -55.527531      0.029520714    259.47235     -1174.3522      3375         
      3620  -55.908334      0.38552123    -55.522812      0.029520714    331.39134     -1354.7482      3375         
      3630  -55.994214      0.48492623    -55.509288      0.029520714    416.83917      542.26004      3375         
      3640  -55.99927       0.50630925    -55.492961      0.029520714    435.21987      754.88527      3375         
      3650  -55.933765      0.50688408    -55.42688       0.029520714    435.71399     -35.22473       3375         
      3660  -55.779146      0.37040368    -55.408742      0.029520714    318.3964      -719.41103      3375         
      3670  -55.860484      0.47325393    -55.38723       0.029520714    406.80575     -541.40014      3375         
      3680  -55.930112      0.57367054    -55.356441      0.029520714    493.12316      1099.2009      3375         
      3690  -55.887585      0.60520447    -55.28238       0.029520714    520.22951      1124.4231      3375         
      3700  -55.661532      0.40947266    -55.252059      0.029520714    351.97981     -842.52255      3375         
      3710  -55.605788      0.36639822    -55.23939       0.029520714    314.95334     -1474.8139      3375         
      3720  -55.775292      0.55850403    -55.216788      0.029520714    480.08613      85.751243      3375         
      3730  -55.78643       0.57152041    -55.214909      0.029520714    491.27493      1180.7699      3375         
      3740  -55.669858      0.52249152    -55.147367      0.029520714    449.13003      541.83996      3375         
      3750  -55.72769       0.58461588    -55.143074      0.029520714    502.5317      -707.76515      3375         
      3760  -55.691278      0.54286012    -55.148418      0.029520714    466.63874     -490.88921      3375         
      3770  -55.825374      0.65196407    -55.17341       0.029520714    560.42373      591.27077      3375         
      3780  -55.812765      0.64340552    -55.16936       0.029520714    553.06686      431.37455      3375         
      3790  -55.845539      0.684947      -55.160592      0.029520714    588.77562     -464.21584      3375         
      3800  -55.823419      0.60409006    -55.219329      0.029520714    519.27156     -1026.7279      3375         
      3810  -55.755664      0.49546044    -55.260204      0.029520714    425.89431      35.060047      3375         
      3820  -55.969268      0.64687457    -55.322393      0.029520714    556.04883      1426.1476      3375         
      3830  -55.795278      0.44230825    -55.35297       0.029520714    380.20506      554.52667      3375         
      3840  -55.764809      0.39045714    -55.374352      0.029520714    335.63421     -1025.6812      3375         
      3850  -55.805073      0.38400294    -55.42107       0.029520714    330.08623     -776.5233       3375         
      3860  -55.911364      0.45035065    -55.461013      0.029520714    387.11825     -28.180621      3375         
      3870  -55.840537      0.35306027    -55.487477      0.029520714    303.48812      246.92043      3375         
      3880  -55.797376      0.32346185    -55.473914      0.029520714    278.04553      869.87326      3375         
      3890  -55.939939      0.43462606    -55.505313      0.029520714    373.6015       406.44747      3375         
      3900  -55.853254      0.32707755    -55.526177      0.029520714    281.15356     -555.20524      3375         
      3910  -56.020412      0.4683373     -55.552074      0.029520714    402.57944     -205.65652      3375         
      3920  -55.940665      0.37408205    -55.566583      0.029520714    321.5583      -173.15775      3375         
      3930  -56.00147       0.44404504    -55.557425      0.029520714    381.69799     -597.35276      3375         
      3940  -55.997092      0.41037837    -55.586714      0.029520714    352.75836      124.63982      3375         
      3950  -55.961136      0.35212069    -55.609015      0.029520714    302.68047      549.54895      3375         
      3960  -55.918558      0.28594406    -55.632614      0.029520714    245.79551      347.92508      3375         
      3970  -56.017631      0.40696563    -55.610666      0.029520714    349.82479      380.20676      3375         
      3980  -56.043985      0.41611159    -55.627873      0.029520714    357.6866      -216.81366      3375         
      3990  -55.828281      0.18252124    -55.64576       0.029520714    156.89398     -903.95998      3375         
      4000  -55.90206       0.24613265    -55.655927      0.029520714    211.57389     -437.43938      3375         
      4010  -55.924362      0.26011959    -55.664242      0.029520714    223.59697      470.02327      3375         
      4020  -56.009989      0.35468102    -55.655308      0.029520714    304.88131      758.55683      3375         
      4030  -55.961538      0.30175803    -55.65978       0.029520714    259.38908      278.757        3375         
      4040  -55.999297      0.3262743     -55.673023      0.029520714    280.46309     -628.98579      3375         
      4050  -55.942721      0.25861892    -55.684102      0.029520714    222.30701     -521.94019      3375         
      4060  -55.931347      0.27199131    -55.659356      0.029520714    233.80181      274.29149      3375         
      4070  -56.083891      0.42676645    -55.657125      0.029520714    366.84544      501.15689      3375         
      4080  -56.095019      0.42573213    -55.669287      0.029520714    365.95634      54.735611      3375         
      4090  -55.975182      0.29919969    -55.675982      0.029520714    257.18995     -499.2746       3375         
      4100  -55.943624      0.26310324    -55.680521      0.029520714    226.1617      -242.13006      3375         
      4110  -56.022492      0.35124199    -55.67125       0.029520714    301.92514      531.95057      3375         
      4120  -55.997662      0.33177098    -55.665891      0.029520714    285.188        154.62782      3375         
      4130  -55.980453      0.30819901    -55.672254      0.029520714    264.9257      -629.7427       3375         
      4140  -55.882233      0.20017333    -55.682059      0.029520714    172.06758     -141.47499      3375         
      4150  -55.926346      0.24972276    -55.676623      0.029520714    214.65993      448.68424      3375         
      4160  -55.9645        0.31864464    -55.645856      0.029520714    273.90469      633.18034      3375         
      4170  -55.9812        0.33148001    -55.64972       0.029520714    284.93788     -49.257586      3375         
      4180  -55.897561      0.25252067    -55.645041      0.029520714    217.06499     -918.92922      3375         
      4190  -55.978301      0.34342817    -55.634873      0.029520714    295.20844     -208.58447      3375         
      4200  -55.97078       0.35506569    -55.615714      0.029520714    305.21197      931.62053      3375         
      4210  -55.984631      0.39027287    -55.594358      0.029520714    335.47582      170.18923      3375         
      4220  -56.038834      0.46718311    -55.571651      0.029520714    401.58731     -907.41326      3375         
      4230  -55.93616       0.37684277    -55.559318      0.029520714    323.9314      -457.31461      3375         
      4240  -55.910167      0.38244611    -55.527721      0.029520714    328.74799      568.18581      3375         
      4250  -55.910542      0.42531757    -55.485224      0.029520714    365.59999      1122.1215      3375         
      4260  -56.019049      0.54879417    -55.470255      0.029520714    471.73961      71.703536      3375         
      4270  -55.78932       0.33781761    -55.451503      0.029520714    290.38564     -1323.4142      3375         
      4280  -55.798073      0.36123711    -55.436836      0.029520714    310.51687     -449.08013      3375         
      4290  -55.790638      0.38003812    -55.4106        0.029520714    326.67809      817.66181      3375         
      4300  -55.885528      0.49528538    -55.390242      0.029520714    425.74383      161.80021      3375         
      4310  -55.780544      0.41314582    -55.367399      0.029520714    355.13724     -470.08367      3375         
      4320  -55.715527      0.35527271    -55.360254      0.029520714    305.38992      127.35851      3375         
      4330  -55.869224      0.5161627     -55.353061      0.029520714    443.68982      687.86032      3375         
      4340  -55.849422      0.53457387    -55.314848      0.029520714    459.51594      583.69158      3375         
      4350  -55.864867      0.56038829    -55.304479      0.029520714    481.70583     -658.69357      3375         
      4360  -55.742097      0.43190888    -55.310188      0.029520714    371.26583     -1582.7758      3375         
      4370  -55.992914      0.68354873    -55.309365      0.029520714    587.57368     -133.65627      3375         
      4380  -55.89776       0.58277328    -55.314987      0.029520714    500.94781      1708.2915      3375         
      4390  -55.868647      0.53445       -55.334197      0.029520714    459.40946      771.17161      3375         
      4400  -55.73593       0.38182148    -55.354109      0.029520714    328.21106     -1036.4239      3375         
      4410  -55.868452      0.48965145    -55.378801      0.029520714    420.90094     -792.54093      3375         
      4420  -55.927618      0.51820908    -55.409409      0.029520714    445.44888      287.25196      3375         
      4430  -55.779336      0.35304421    -55.426292      0.029520714    303.47432      398.67269      3375         
      4440  -55.835896      0.37857325    -55.457322      0.029520714    325.41891     -24.469349      3375         
      4450  -55.802727      0.3160548     -55.486672      0.029520714    271.67848     -128.56357      3375         
      4460  -55.909012      0.39244319    -55.516569      0.029520714    337.34141     -35.424018      3375         
      4470  -55.92524       0.3836599     -55.54158       0.029520714    329.79135      590.02103      3375         
      4480  -55.963641      0.39657627    -55.567065      0.029520714    340.89417      219.48367      3375         
      4490  -55.906468      0.31731635    -55.589152      0.029520714    272.7629      -1153.0806      3375         
      4500  -55.980613      0.37279089    -55.607822      0.029520714    320.44843     -577.33929      3375         
      4510  -56.012083      0.38120165    -55.630881      0.029520714    327.67826      1063.0222      3375         
      4520  -56.027241      0.38207287    -55.645168      0.029520714    328.42715      743.46373      3375         
      4530  -56.027723      0.38269811    -55.645025      0.029520714    328.9646      -243.59488      3375         
      4540  -55.929348      0.27091276    -55.658436      0.029520714    232.8747      -526.02584      3375         
      4550  -55.994496      0.32740007    -55.667096      0.029520714    281.4308      -696.26502      3375         
      4560  -56.001887      0.3345576     -55.667329      0.029520714    287.58336      292.22424      3375         
      4570  -55.964524      0.29262218    -55.671902      0.029520714    251.53597      864.52379      3375         
      4580  -55.877684      0.20711691    -55.670567      0.029520714    178.03624     -361.74026      3375         
      4590  -55.964973      0.29571706    -55.669256      0.029520714    254.1963      -487.00064      3375         
      4600  -56.004927      0.32964491    -55.675282      0.029520714    283.36044      563.71639      3375         
      4610  -55.977271      0.3033723     -55.673899      0.029520714    260.77669      215.94188      3375         
      4620  -55.948073      0.29391693    -55.654156      0.029520714    252.64893     -226.83033      3375         
      4630  -55.931622      0.27285974    -55.658762      0.029520714    234.54831     -376.61516      3375         
      4640  -55.972631      0.31310471    -55.659526      0.029520714    269.1426      -370.8699       3375         
      4650  -56.063332      0.40722358    -55.656108      0.029520714    350.04652      625.49854      3375         
      4660  -56.093559      0.44607627    -55.647483      0.029520714    383.44402      538.75467      3375         
      4670  -55.905283      0.27427939    -55.631004      0.029520714    235.76863     -666.3148       3375         
      4680  -55.950885      0.32009965    -55.630786      0.029520714    275.15541     -326.03156      3375         
      4690  -55.993279      0.36095416    -55.632325      0.029520714    310.27365      529.38258      3375         
      4700  -56.023787      0.38993757    -55.633849      0.029520714    335.18759      218.02445      3375         
      4710  -55.948993      0.33069056    -55.618303      0.029520714    284.25928     -65.120857      3375         
      4720  -55.886287      0.27644177    -55.609845      0.029520714    237.6274      -559.40191      3375         
      4730  -55.828053      0.21907224    -55.608981      0.029520714    188.31296     -528.95678      3375         
      4740  -55.971796      0.36688016    -55.604916      0.029520714    315.3676       641.72012      3375         
      4750  -55.976117      0.38179171    -55.594326      0.029520714    328.18547      750.96485      3375         
      4760  -55.844103      0.27233256    -55.571771      0.029520714    234.09515     -74.995121      3375         
      4770  -55.971894      0.41032299    -55.561571      0.029520714    352.71075     -199.59035      3375         
      4780  -55.920339      0.36579065    -55.554549      0.029520714    314.43107     -443.97206      3375         
      4790  -55.919061      0.36841264    -55.550648      0.029520714    316.68492     -444.8183       3375         
      4800  -55.925901      0.40129381    -55.524607      0.029520714    344.94934      347.0986       3375         
      4810  -56.080827      0.58019899    -55.500628      0.029520714    498.73497      311.23615      3375         
      4820  -55.908262      0.41485728    -55.493405      0.029520714    356.6084       128.94261      3375         
      4830  -55.88857       0.39577379    -55.492796      0.029520714    340.20436      198.04166      3375         
      4840  -55.840858      0.34352617    -55.497332      0.029520714    295.29268     -363.95303      3375         
      4850  -55.865665      0.41672104    -55.448944      0.029520714    358.21047     -518.21203      3375         
      4860  -55.95892       0.50950576    -55.449414      0.029520714    437.96757      114.203        3375         
      4870  -55.794058      0.34387235    -55.450185      0.029520714    295.59025      270.12857      3375         
      4880  -55.794062      0.34243976    -55.451623      0.029520714    294.35881      407.45514      3375         
      4890  -55.763691      0.32620638    -55.437485      0.029520714    280.40471      388.87161      3375         
      4900  -55.917193      0.49669309    -55.4205        0.029520714    426.95388     -413.32197      3375         
      4910  -55.83062       0.41585154    -55.414768      0.029520714    357.46305     -654.54819      3375         
      4920  -55.960647      0.54445329    -55.416194      0.029520714    468.00821     -224.56129      3375         
      4930  -55.832908      0.42165205    -55.411256      0.029520714    362.44914      71.562366      3375         
      4940  -55.807287      0.42913205    -55.378155      0.029520714    368.87889      502.38234      3375         
      4950  -55.964517      0.57842982    -55.386087      0.029520714    497.2142       722.12948      3375         
      4960  -55.978564      0.5818289     -55.396735      0.029520714    500.13603     -94.176928      3375         
      4970  -55.864555      0.45376683    -55.410788      0.029520714    390.05477     -573.54852      3375         
      4980  -55.784544      0.37697493    -55.407569      0.029520714    324.045       -344.79357      3375         
      4990  -55.896809      0.47109772    -55.425711      0.029520714    404.95229     -173.12199      3375         
      5000  -55.905823      0.45455461    -55.451268      0.029520714    390.73195      121.86442      3375         
      5010  -55.918734      0.43505214    -55.483682      0.029520714    373.96776      238.29784      3375         
      5020  -55.714895      0.20613785    -55.508757      0.029520714    177.19465      133.98152      3375         
      5030  -55.862619      0.35797322    -55.504646      0.029520714    307.71126      126.5391       3375         
      5040  -55.937409      0.40866255    -55.528746      0.029520714    351.28346      360.50656      3375         
      5050  -55.959461      0.39247314    -55.566988      0.029520714    337.36715     -248.73976      3375         
      5060  -55.880412      0.28705706    -55.593355      0.029520714    246.75223     -568.61683      3375         
      5070  -55.96969       0.36227726    -55.607413      0.029520714    311.41099     -17.974129      3375         
      5080  -55.965113      0.33189599    -55.633217      0.029520714    285.29546      439.40754      3375         
      5090  -56.021092      0.36540828    -55.655683      0.029520714    314.10238     -4.0424824      3375         
      5100  -56.108773      0.42892975    -55.679843      0.029520714    368.70499     -300.80496      3375         
      5110  -56.008561      0.30933506    -55.699226      0.029520714    265.90224     -98.819496      3375         
      5120  -55.919318      0.21575979    -55.703558      0.029520714    185.46559      238.0166       3375         
      5130  -55.958592      0.246283      -55.712309      0.029520714    211.70314      558.67895      3375         
      5140  -56.164368      0.43435403    -55.730014      0.029520714    373.36767     -159.45927      3375         
      5150  -55.982594      0.24314124    -55.739453      0.029520714    209.0025      -930.17213      3375         
      5160  -55.935467      0.19574874    -55.739719      0.029520714    168.26424     -18.222937      3375         
      5170  -55.916862      0.17131612    -55.745546      0.029520714    147.26213      921.40633      3375         
      5180  -56.0475        0.30116142    -55.746338      0.029520714    258.87624      122.33778      3375         
      5190  -56.015253      0.26878603    -55.746467      0.029520714    231.04658     -400.985        3375         
      5200  -55.994241      0.2425982     -55.751642      0.029520714    208.53571     -286.86153      3375         
      5210  -56.000607      0.25372069    -55.746886      0.029520714    218.09652     -107.67066      3375         
      5220  -56.017365      0.28424271    -55.733122      0.029520714    244.33304      463.79381      3375         
      5230  -56.072703      0.34182344    -55.73088       0.029520714    293.82902      87.17224       3375         
      5240  -55.973735      0.24872413    -55.725011      0.029520714    213.80151     -528.09941      3375         
      5250  -56.11034       0.39466235    -55.715677      0.029520714    339.24898      359.95673      3375         
      5260  -56.010112      0.29820217    -55.71191       0.029520714    256.33249      773.16579      3375         
      5270  -56.024151      0.32008924    -55.704062      0.029520714    275.14646     -664.17304      3375         
      5280  -55.951804      0.26188417    -55.68992       0.029520714    225.11379     -1017.7443      3375         
      5290  -56.034391      0.34989565    -55.684495      0.029520714    300.76784     -87.80277       3375         
      5300  -55.919524      0.25023809    -55.669286      0.029520714    215.1029       696.3414       3375         
      5310  -55.911481      0.25927161    -55.65221       0.029520714    222.86805      1170.4023      3375         
      5320  -55.980853      0.33968375    -55.641169      0.029520714    291.98976      147.40446      3375         
      5330  -55.910558      0.28829954    -55.622258      0.029520714    247.82026     -1218.346       3375         
      5340  -55.910488      0.31246616    -55.598021      0.029520714    268.59371     -447.51752      3375         
      5350  -55.85448       0.26531416    -55.589166      0.029520714    228.06219      597.62077      3375         
      5360  -55.995409      0.43624932    -55.55916       0.029520714    374.99684     -178.42655      3375         
      5370  -55.968851      0.44877674    -55.520074      0.029520714    385.76532     -305.53907      3375         
      5380  -55.96508       0.4616304     -55.50345       0.029520714    396.81424      281.87403      3375         
      5390  -55.899898      0.40430273    -55.495595      0.029520714    347.53578      601.06785      3375         
      5400  -55.986341      0.52207016    -55.464271      0.029520714    448.76783      520.45843      3375         
      5410  -55.876169      0.44136742    -55.434802      0.029520714    379.39633     -463.92264      3375         
      5420  -55.877033      0.44183497    -55.435198      0.029520714    379.79823     -1514.4801      3375         
      5430  -55.908801      0.47415605    -55.434645      0.029520714    407.5812      -190.07441      3375         
      5440  -55.884875      0.44290147    -55.441973      0.029520714    380.71498      1478.1189      3375         
      5450  -55.779013      0.34045935    -55.438553      0.029520714    292.65647      537.67012      3375         
      5460  -55.738272      0.32065813    -55.417614      0.029520714    275.63547     -530.43537      3375         
      5470  -55.856063      0.42344316    -55.43262       0.029520714    363.98876     -563.45482      3375         
      5480  -55.866298      0.42167454    -55.444624      0.029520714    362.46846     -30.970326      3375         
      5490  -55.867701      0.42347331    -55.444228      0.029520714    364.01468      515.66051      3375         
      5500  -55.782012      0.35340079    -55.428611      0.029520714    303.78083      354.21221      3375         
      5510  -55.932935      0.49324242    -55.439693      0.029520714    423.98771     -837.07065      3375         
      5520  -55.874448      0.42327377    -55.451174      0.029520714    363.84315     -299.95097      3375         
      5530  -55.965185      0.49439152    -55.470793      0.029520714    424.97547      941.00257      3375         
      5540  -56.003516      0.52990175    -55.473614      0.029520714    455.49982      189.94485      3375         
      5550  -55.944447      0.47874574    -55.465701      0.029520714    411.52647     -640.56727      3375         
      5560  -55.81101       0.31329397    -55.497716      0.029520714    269.30529     -293.59801      3375         
      5570  -55.923076      0.40450899    -55.518567      0.029520714    347.71308      122.169        3375         
      5580  -56.000623      0.46861381    -55.532009      0.029520714    402.81714      256.16652      3375         
      5590  -55.858088      0.3395187     -55.518569      0.029520714    291.84789      422.49558      3375         
      5600  -55.872124      0.33453853    -55.537586      0.029520714    287.56696     -457.61615      3375         
      5610  -55.804153      0.25292567    -55.551228      0.029520714    217.41312     -345.23884      3375         
      5620  -55.937374      0.37001931    -55.567354      0.029520714    318.06599      785.88552      3375         
      5630  -55.901298      0.33039511    -55.570903      0.029520714    284.00531      172.48133      3375         
      5640  -55.92808       0.37266145    -55.555418      0.029520714    320.33716     -848.30554      3375         
      5650  -55.941696      0.36403942    -55.577656      0.029520714    312.92573     -236.97455      3375         
      5660  -56.002088      0.40605655    -55.596031      0.029520714    349.04336      147.16727      3375         
      5670  -55.930435      0.33135531    -55.59908       0.029520714    284.8307       405.11088      3375         
      5680  -55.97685       0.38720428    -55.589646      0.029520714    332.83807      954.36066      3375         
      5690  -56.08721       0.48034995    -55.60686       0.029520714    412.90544     -322.94329      3375         
      5700  -55.911764      0.29142687    -55.620337      0.029520714    250.50849     -1151.4921      3375         
      5710  -55.995355      0.35464617    -55.640709      0.029520714    304.85135     -75.7328        3375         
      5720  -55.987747      0.3327471     -55.655         0.029520714    286.02707      72.689726      3375         
      5730  -55.951749      0.33076131    -55.620988      0.029520714    284.32009      50.114203      3375         
      5740  -55.895944      0.24406375    -55.65188       0.029520714    209.79548      869.376        3375         
      5750  -55.953668      0.29119359    -55.662474      0.029520714    250.30796      165.06905      3375         
      5760  -55.969434      0.29588129    -55.673552      0.029520714    254.33748     -419.35115      3375         
      5770  -55.936497      0.27331582    -55.663181      0.029520714    234.94035      225.85563      3375         
      5780  -55.98178       0.31485641    -55.666923      0.029520714    270.64835     -552.86511      3375         
      5790  -55.900471      0.23094868    -55.669522      0.029520714    198.52186     -872.65489      3375         
      5800  -56.031433      0.35363367    -55.677799      0.029520714    303.98102      490.97452      3375         
      5810  -56.059745      0.36537048    -55.694374      0.029520714    314.0699       774.32786      3375         
      5820  -56.011453      0.34665353    -55.664799      0.029520714    297.98094      457.7241       3375         
      5830  -55.978608      0.30754941    -55.671059      0.029520714    264.36731      342.91754      3375         
      5840  -56.024393      0.33886793    -55.685525      0.029520714    291.28849     -1180.1924      3375         
      5850  -56.002778      0.3132369     -55.689541      0.029520714    269.25624     -1192.1018      3375         
      5860  -55.985213      0.30423441    -55.680979      0.029520714    261.51776      790.54764      3375         
      5870  -56.024492      0.33848283    -55.686009      0.029520714    290.95746      955.54937      3375         
      5880  -55.944506      0.25768272    -55.686823      0.029520714    221.50225      19.45          3375         
      5890  -55.929258      0.23719386    -55.692064      0.029520714    203.89017     -54.589759      3375         
      5900  -55.946969      0.24449588    -55.702473      0.029520714    210.16694     -467.14524      3375         
      5910  -55.981773      0.30804127    -55.673732      0.029520714    264.79011     -418.7212       3375         
      5920  -55.979595      0.31404446    -55.665551      0.029520714    269.95041      528.99876      3375         
      5930  -55.973159      0.30231923    -55.670839      0.029520714    259.87148     -43.570828      3375         
      5940  -55.949926      0.28381302    -55.666113      0.029520714    243.96368     -325.06761      3375         
      5950  -56.023755      0.37672433    -55.64703       0.029520714    323.82958      604.83821      3375         
      5960  -55.974145      0.33679347    -55.637351      0.029520714    289.5053       530.93027      3375         
      5970  -56.016276      0.39991637    -55.616359      0.029520714    343.7653      -603.49329      3375         
      5980  -56.056581      0.45684972    -55.599732      0.029520714    392.7048      -801.45226      3375         
      5990  -55.954498      0.35999431    -55.594503      0.029520714    309.44857     -309.98397      3375         
      6000  -55.868649      0.28666329    -55.581986      0.029520714    246.41374      535.97012      3375         
      6010  -55.873073      0.31869286    -55.55438       0.029520714    273.94614      1074.668       3375         
      6020  -55.970147      0.42485112    -55.545296      0.029520714    365.19903     -96.700666      3375         
      6030  -55.875735      0.34373162    -55.532004      0.029520714    295.46928     -1039.5701      3375         
      6040  -55.908508      0.39375812    -55.51475       0.029520714    338.47171      45.099744      3375         
      6050  -55.77195       0.26766408    -55.504286      0.029520714    230.08216      1057.0298      3375         
      6060  -55.86112       0.37559074    -55.485529      0.029520714    322.85515     -130.56952      3375         
      6070  -55.907968      0.43927347    -55.468695      0.029520714    377.59638     -1143.9498      3375         
      6080  -55.922551      0.45925462    -55.463296      0.029520714    394.77204     -518.54896      3375         
      6090  -55.90049       0.44411991    -55.45637       0.029520714    381.76235      722.27791      3375         
      6100  -55.869177      0.4605871     -55.40859       0.029520714    395.91743      1321.9889      3375         
      6110  -55.93436       0.52758681    -55.406773      0.029520714    453.50991      288.61118      3375         
      6120  -55.888302      0.47807042    -55.410232      0.029520714    410.94597     -1202.6756      3375         
      6130  -55.960302      0.54917548    -55.411126      0.029520714    472.06738     -716.41804      3375         
      6140  -55.844077      0.42564078    -55.418436      0.029520714    365.87782      515.35973      3375         
      6150  -55.829711      0.41301142    -55.416699      0.029520714    355.02171     -50.790015      3375         
      6160  -55.805797      0.39126094    -55.414536      0.029520714    336.32515     -424.34982      3375         
      6170  -55.910377      0.47789252    -55.432485      0.029520714    410.79305      300.17983      3375         
      6180  -55.802336      0.34945029    -55.452886      0.029520714    300.38501      765.49083      3375         
      6190  -55.712338      0.25592592    -55.456412      0.029520714    219.99212      678.59219      3375         
      6200  -55.865603      0.40969605    -55.455907      0.029520714    352.17184     -264.1663       3375         
      6210  -55.967063      0.49733447    -55.469728      0.029520714    427.50521     -1573.6733      3375         
      6220  -55.903104      0.40864404    -55.49446       0.029520714    351.26754     -625.81982      3375         
      6230  -55.801503      0.28319352    -55.51831       0.029520714    243.43116      1156.3546      3375         
      6240  -55.931077      0.39569328    -55.535383      0.029520714    340.13516      984.25926      3375         
      6250  -56.066705      0.51771874    -55.548986      0.029520714    445.02739      117.17305      3375         
      6260  -56.034254      0.44106183    -55.593193      0.029520714    379.13364     -705.79447      3375         
      6270  -55.917776      0.2848194     -55.632957      0.029520714    244.82875     -901.74287      3375         
      6280  -55.965839      0.31598249    -55.649857      0.029520714    271.61633      85.979141      3375         
      6290  -56.011835      0.35985029    -55.651985      0.029520714    309.32478      506.80209      3375         
      6300  -55.974801      0.29408128    -55.68072       0.029520714    252.7902      -3.5821607      3375         
      6310  -55.966549      0.26192891    -55.70462       0.029520714    225.15225      352.82871      3375         
      6320  -56.013998      0.28744324    -55.726555      0.029520714    247.08419      494.72033      3375         
      6330  -55.925553      0.19363811    -55.731915      0.029520714    166.44996     -389.26227      3375         
      6340  -55.958799      0.23513194    -55.723667      0.029520714    202.11776     -667.55831      3375         
      6350  -56.035501      0.29815829    -55.737343      0.029520714    256.29477     -562.40679      3375         
      6360  -55.996278      0.2486266     -55.747651      0.029520714    213.71768      122.9043       3375         
[...]
     48420  -56.021597      0.21117826    -55.810418      0.029520714    181.52735      123.48329      3375         
     48430  -56.026899      0.21258841    -55.81431       0.029520714    182.7395      -946.92369      3375         
     48440  -56.068455      0.25280069    -55.815654      0.029520714    217.3057      -394.68752      3375         
     48450  -56.023229      0.21725031    -55.805979      0.029520714    186.74684     -104.65739      3375         
     48460  -55.996719      0.2015766     -55.795143      0.029520714    173.27383      62.459115      3375         
     48470  -56.017581      0.22299575    -55.794585      0.029520714    191.68557      274.63145      3375         
     48480  -56.097576      0.30745576    -55.79012       0.029520714    264.28681      77.246535      3375         
     48490  -56.118317      0.34677327    -55.771543      0.029520714    298.08387      431.6065       3375         
     48500  -56.02853       0.28190906    -55.746621      0.029520714    242.32704      527.91198      3375         
     48510  -56.033985      0.30595155    -55.728033      0.029520714    262.9938      -823.90298      3375         
     48520  -55.997433      0.28947867    -55.707954      0.029520714    248.83383     -1168.4552      3375         
     48530  -56.050477      0.36711259    -55.683364      0.029520714    315.5674       36.531187      3375         
     48540  -55.994712      0.34243753    -55.652275      0.029520714    294.35689      946.70806      3375         
     48550  -55.820794      0.20838852    -55.612406      0.029520714    179.1293       675.34196      3375         
     48560  -55.777759      0.18770782    -55.590051      0.029520714    161.35232     -125.3278       3375         
     48570  -55.959438      0.39265793    -55.56678       0.029520714    337.52599     -507.35111      3375         
     48580  -55.942191      0.41507328    -55.527118      0.029520714    356.79407      13.168174      3375         
     48590  -55.748868      0.24593206    -55.502935      0.029520714    211.40147      314.04716      3375         
     48600  -55.864903      0.37589313    -55.48901       0.029520714    323.11509     -288.91606      3375         
     48610  -55.955759      0.48286331    -55.472896      0.029520714    415.0659      -739.11008      3375         
     48620  -55.950962      0.48429744    -55.466665      0.029520714    416.29867     -180.64895      3375         
     48630  -55.831563      0.36657319    -55.46499       0.029520714    315.10374      1049.4942      3375         
     48640  -55.900035      0.44666505    -55.45337       0.029520714    383.95013      861.94305      3375         
     48650  -55.965267      0.51789184    -55.447375      0.029520714    445.17618     -322.19143      3375         
     48660  -55.946325      0.48636075    -55.459964      0.029520714    418.07228     -669.95255      3375         
     48670  -55.98789       0.51150662    -55.476384      0.029520714    439.68749     -538.22366      3375         
     48680  -55.876575      0.3943651     -55.48221       0.029520714    338.99346     -211.57312      3375         
     48690  -55.85945       0.37214035    -55.487309      0.029520714    319.88923      336.26493      3375         
     48700  -55.877661      0.38110138    -55.49656       0.029520714    327.59206      155.24571      3375         
     48710  -55.824256      0.31774451    -55.506511      0.029520714    273.13094      249.66213      3375         
     48720  -55.778279      0.25758547    -55.520693      0.029520714    221.41866      828.08409      3375         
     48730  -55.829259      0.29656516    -55.532694      0.029520714    254.92532      7.4033233      3375         
     48740  -55.878491      0.35955899    -55.518932      0.029520714    309.07437     -1032.1209      3375         
     48750  -55.979155      0.44619243    -55.532963      0.029520714    383.54387     -753.14536      3375         
     48760  -55.977874      0.42752233    -55.550352      0.029520714    367.49518      5.6300892      3375         
     48770  -55.893012      0.33467985    -55.558332      0.029520714    287.68845      898.0352       3375         
     48780  -55.965598      0.39812873    -55.56747       0.029520714    342.22866      1151.7062      3375         
     48790  -56.048814      0.46422246    -55.584592      0.029520714    399.04236     -444.90432      3375         
     48800  -55.995211      0.39541434    -55.599796      0.029520714    339.89539     -1023.8172      3375         
     48810  -55.919162      0.30118015    -55.617982      0.029520714    258.89234     -90.162971      3375         
     48820  -56.019413      0.38405541    -55.635357      0.029520714    330.13133     -213.00407      3375         
     48830  -56.012281      0.37571       -55.636571      0.029520714    322.95767      28.979526      3375         
     48840  -55.954834      0.29686222    -55.657972      0.029520714    255.18068      903.48776      3375         
     48850  -55.907576      0.23211708    -55.675458      0.029520714    199.52621      273.81629      3375         
     48860  -55.905156      0.22150376    -55.683652      0.029520714    190.40307     -215.0623       3375         
     48870  -55.908713      0.22102968    -55.687683      0.029520714    189.99556      68.973295      3375         
     48880  -55.957128      0.26653384    -55.690594      0.029520714    229.11061     -893.07751      3375         
     48890  -56.014992      0.32356121    -55.69143       0.029520714    278.13094     -664.42802      3375         
     48900  -56.011856      0.3093257     -55.702531      0.029520714    265.89419      839.69235      3375         
     48910  -56.022573      0.30523277    -55.717341      0.029520714    262.37594      730.02667      3375         
     48920  -56.028492      0.32331687    -55.705175      0.029520714    277.92091      180.46595      3375         
     48930  -56.040222      0.33460953    -55.705612      0.029520714    287.628        104.5014       3375         
     48940  -56.014776      0.29705337    -55.717722      0.029520714    255.34498     -832.48231      3375         
     48950  -56.02258       0.30257123    -55.720009      0.029520714    260.0881      -719.77544      3375         
     48960  -56.033834      0.3125205     -55.721314      0.029520714    268.64042      377.90634      3375         
     48970  -56.041836      0.31789952    -55.723937      0.029520714    273.26419      238.48546      3375         
     48980  -56.002861      0.2828972     -55.719964      0.029520714    243.17644      117.61224      3375         
     48990  -55.936687      0.21162084    -55.725066      0.029520714    181.90778      494.59675      3375         
     49000  -55.96049       0.23345037    -55.72704       0.029520714    200.6723      -41.208796      3375         
     49010  -55.986818      0.27973505    -55.707083      0.029520714    240.45828     -409.46316      3375         
     49020  -55.930053      0.22592431    -55.704129      0.029520714    194.20295     -104.81288      3375         
     49030  -55.887193      0.18273294    -55.70446       0.029520714    157.07595     -63.90902       3375         
     49040  -56.047167      0.35347285    -55.693694      0.029520714    303.84277      14.656888      3375         
     49050  -56.069065      0.40257478    -55.666491      0.029520714    346.05045      235.38478      3375         
     49060  -55.978308      0.3355476     -55.64276       0.029520714    288.43436      33.902241      3375         
     49070  -55.941399      0.32400855    -55.61739       0.029520714    278.51547     -98.911239      3375         
     49080  -55.979633      0.38498931    -55.594644      0.029520714    330.93411      118.93215      3375         
     49090  -55.980923      0.41008625    -55.570837      0.029520714    352.50725      175.11964      3375         
     49100  -55.981353      0.45294332    -55.52841       0.029520714    389.34689     -242.98394      3375         
     49110  -55.935317      0.43866608    -55.496651      0.029520714    377.07427     -516.39089      3375         
     49120  -55.790087      0.30438534    -55.485702      0.029520714    261.6475       33.921101      3375         
     49130  -55.877029      0.40804581    -55.468983      0.029520714    350.75331      465.09621      3375         
     49140  -55.906598      0.47562472    -55.430974      0.029520714    408.84366      330.12369      3375         
     49150  -55.809339      0.39209192    -55.417247      0.029520714    337.03945      48.430075      3375         
     49160  -55.708248      0.29886499    -55.409383      0.029520714    256.90225     -491.19501      3375         
     49170  -55.779452      0.37463726    -55.404814      0.029520714    322.03555     -362.7751       3375         
     49180  -55.835159      0.4430159     -55.392143      0.029520714    380.81335      198.17506      3375         
     49190  -55.842092      0.48119157    -55.360901      0.029520714    413.62889      69.821476      3375         
     49200  -55.856599      0.49732138    -55.359277      0.029520714    427.49396      244.02297      3375         
     49210  -55.88071       0.51573644    -55.364974      0.029520714    443.32341      677.04485      3375         
     49220  -55.962319      0.58413867    -55.37818       0.029520714    502.12149     -40.904436      3375         
     49230  -55.88195       0.50736655    -55.374583      0.029520714    436.12871     -660.84325      3375         
     49240  -55.855085      0.47201705    -55.383067      0.029520714    405.74253     -572.83985      3375         
     49250  -55.83734       0.43380355    -55.403537      0.029520714    372.89448     -699.89443      3375         
     49260  -55.897028      0.47218372    -55.424844      0.029520714    405.8858       410.1781       3375         
     49270  -55.808846      0.3689614     -55.439885      0.029520714    317.15662      1522.4343      3375         
     49280  -55.846703      0.40257812    -55.444125      0.029520714    346.05332      488.99554      3375         
     49290  -55.879297      0.41600267    -55.463295      0.029520714    357.59297     -491.61851      3375         
     49300  -55.841316      0.35625934    -55.485057      0.029520714    306.23802     -745.5302       3375         
     49310  -55.798164      0.29137506    -55.506789      0.029520714    250.46395     -1031.2163      3375         
     49320  -55.840085      0.340862      -55.499223      0.029520714    293.00258      56.169813      3375         
     49330  -55.93509       0.42728996    -55.5078        0.029520714    367.29544      1092.5761      3375         
     49340  -55.848414      0.32294172    -55.525472      0.029520714    277.59843      455.94091      3375         
     49350  -56.022212      0.4785719     -55.54364       0.029520714    411.37703      152.14208      3375         
     49360  -55.969464      0.41224946    -55.557215      0.029520714    354.36673      8.940127       3375         
     49370  -55.943275      0.39824407    -55.545031      0.029520714    342.3278      -761.35421      3375         
     49380  -55.97761       0.41661875    -55.560991      0.029520714    358.12255     -552.68401      3375         
     49390  -56.000115      0.41991954    -55.580196      0.029520714    360.95988     -84.540021      3375         
     49400  -55.964155      0.36486645    -55.599289      0.029520714    313.63663      270.10831      3375         
     49410  -55.949649      0.35187052    -55.597778      0.029520714    302.46542      873.86         3375         
     49420  -55.919787      0.31910455    -55.600682      0.029520714    274.30002      348.56234      3375         
     49430  -55.829225      0.2217636     -55.607461      0.029520714    190.62643     -705.15165      3375         
     49440  -55.948919      0.33518263    -55.613736      0.029520714    288.12063     -589.00802      3375         
     49450  -55.967433      0.35059849    -55.616835      0.029520714    301.372        6.3846337      3375         
     49460  -55.874462      0.26675822    -55.607704      0.029520714    229.30349      455.16987      3375         
     49470  -55.863966      0.25432138    -55.609645      0.029520714    218.61287      579.40645      3375         
     49480  -55.949897      0.33494341    -55.614954      0.029520714    287.915       -247.34861      3375         
     49490  -55.971085      0.35268532    -55.6184        0.029520714    303.16582     -476.39961      3375         
     49500  -56.040787      0.43360557    -55.607182      0.029520714    372.7243       85.567607      3375         
     49510  -56.007979      0.40470311    -55.603276      0.029520714    347.87995      185.10396      3375         
     49520  -55.921363      0.31322963    -55.608134      0.029520714    269.24999      10.894976      3375         
     49530  -56.04566       0.43156464    -55.614095      0.029520714    370.96992     -183.76148      3375         
     49540  -56.027439      0.40768917    -55.61975       0.029520714    350.44674     -299.56646      3375         
     49550  -55.946901      0.33410386    -55.612797      0.029520714    287.19333      255.76314      3375         
     49560  -55.918023      0.30833952    -55.609684      0.029520714    265.04648      543.94111      3375         
     49570  -55.921958      0.30487531    -55.617082      0.029520714    262.06867     -158.98701      3375         
     49580  -55.861868      0.24040116    -55.621467      0.029520714    206.64714     -367.41021      3375         
     49590  -55.98008       0.356026      -55.624054      0.029520714    306.03745     -135.06446      3375         
     49600  -55.929652      0.31015057    -55.619502      0.029520714    266.60324      72.698486      3375         
     49610  -55.845004      0.23087474    -55.614129      0.029520714    198.4583       121.58595      3375         
     49620  -55.940783      0.3307967     -55.609987      0.029520714    284.35052     -123.51805      3375         
     49630  -55.969691      0.36136285    -55.608328      0.029520714    310.62496      60.281206      3375         
     49640  -55.940904      0.33712899    -55.603775      0.029520714    289.7937       667.52699      3375         
     49650  -55.977774      0.38532299    -55.592451      0.029520714    331.22093      431.50646      3375         
     49660  -56.056757      0.4686062     -55.588151      0.029520714    402.8106      -638.62367      3375         
     49670  -55.933562      0.3500521     -55.58351       0.029520714    300.90232     -1256.2612      3375         
     49680  -55.973361      0.39355764    -55.579803      0.029520714    338.29938     -521.37452      3375         
     49690  -56.011239      0.43717562    -55.574063      0.029520714    375.79309      1120.5269      3375         
     49700  -55.92696       0.36773638    -55.559224      0.029520714    316.1036       1280.2988      3375         
     49710  -55.894444      0.34045183    -55.553992      0.029520714    292.65        -35.151352      3375         
     49720  -55.866545      0.31165638    -55.554888      0.029520714    267.89763     -730.54207      3375         
     49730  -55.834025      0.28278959    -55.551236      0.029520714    243.08394     -641.74411      3375         
     49740  -55.852795      0.3224336     -55.530361      0.029520714    277.16166     -156.67838      3375         
     49750  -55.899574      0.38719122    -55.512383      0.029520714    332.82684      356.90683      3375         
     49760  -55.795457      0.29917936    -55.496278      0.029520714    257.17247      29.023088      3375         
     49770  -55.897         0.41709263    -55.479908      0.029520714    358.52989      231.24027      3375         
     49780  -56.010475      0.55108531    -55.459389      0.029520714    473.70905      942.24767      3375         
     49790  -55.884268      0.45913059    -55.425137      0.029520714    394.66542     -148.19455      3375         
     49800  -55.787129      0.40266418    -55.384465      0.029520714    346.1273      -1221.1048      3375         
     49810  -55.911456      0.53581666    -55.37564       0.029520714    460.58423     -689.3076       3375         
     49820  -55.995832      0.63495306    -55.360879      0.029520714    545.80118      289.58012      3375         
     49830  -55.881343      0.54038882    -55.340954      0.029520714    464.51443      1205.0734      3375         
     49840  -55.840479      0.50794401    -55.332535      0.029520714    436.6251       985.36844      3375         
     49850  -55.822361      0.49001764    -55.332343      0.029520714    421.21572     -1099.0235      3375         
     49860  -55.762846      0.4297948     -55.333051      0.029520714    369.44858     -1221.6925      3375         
     49870  -55.706013      0.36143896    -55.344575      0.029520714    310.69039      334.05687      3375         
     49880  -55.699996      0.34867675    -55.351319      0.029520714    299.72008      409.8527       3375         
     49890  -55.728405      0.39635459    -55.332051      0.029520714    340.70362      381.72165      3375         
     49900  -55.745948      0.39235389    -55.353594      0.029520714    337.26464      349.93086      3375         
     49910  -55.859879      0.48705109    -55.372828      0.029520714    418.66569     -565.17247      3375         
     49920  -55.935462      0.54586663    -55.389595      0.029520714    469.22312      170.76899      3375         
     49930  -55.822869      0.4276046     -55.395264      0.029520714    367.56591      702.47696      3375         
     49940  -55.867771      0.44994127    -55.41783       0.029520714    386.76635     -1083.8165      3375         
     49950  -55.967098      0.5131641     -55.453934      0.029520714    441.11225     -888.01231      3375         
     49960  -55.976937      0.47821673    -55.49872       0.029520714    411.07173      838.12485      3375         
     49970  -55.933027      0.38283066    -55.550197      0.029520714    329.07854      554.8558       3375         
     49980  -55.941829      0.40486405    -55.536965      0.029520714    348.01828      188.35247      3375         
     49990  -55.943637      0.36111511    -55.582522      0.029520714    310.41201     -60.455382      3375         
     50000  -55.967803      0.34814894    -55.619654      0.029520714    299.26638     -804.51164      3375         
Loop time of 82.989 on 3 procs for 50000 steps with 10 atoms

Performance: 26.028 ns/day, 0.922 hours/ns, 602.489 timesteps/s, 6.025 katom-step/s
167.6% CPU use with 3 MPI tasks x no OpenMP threads

MPI task timing breakdown:
Section |  min time  |  avg time  |  max time  |%varavg| %total
---------------------------------------------------------------
Pair    | 27.207     | 44.668     | 79.163     | 365.0 | 53.82
Neigh   | 0.00074569 | 0.0009281  | 0.0012709  |   0.0 |  0.00
Comm    | 1.0123     | 35.43      | 52.882     | 408.9 | 42.69
Output  | 0.52178    | 0.55961    | 0.63017    |   6.7 |  0.67
Modify  | 1.9595     | 2.0455     | 2.1497     |   5.5 |  2.46
Other   |            | 0.2859     |            |       |  0.34

Nlocal:        3.33333 ave          10 max           0 min
Histogram: 2 0 0 0 0 0 0 0 0 1
Nghost:        80.6667 ave         101 max          48 min
Histogram: 1 0 0 0 0 0 0 0 1 1
Neighs:              0 ave           0 max           0 min
Histogram: 3 0 0 0 0 0 0 0 0 0
FullNghs:           30 ave          90 max           0 min
Histogram: 2 0 0 0 0 0 0 0 0 1

Total # of neighbors = 90
Ave neighs/atom = 9
Neighbor list builds = 139
Dangerous builds = 0

write_data	restart.data
System init for write_data ...
Generated 0 of 1 mixed pair_coeff terms from geometric mixing rule
#
Total wall time: 0:01:24
