ITEM: TIMESTEP
0
ITEM: NUMBER OF ATOMS
10
ITEM: BOX BOUNDS pp pp pp
0.0000000000000000e+00 1.5000000000000000e+01
0.0000000000000000e+00 1.5000000000000000e+01
0.0000000000000000e+00 1.5000000000000000e+01
ITEM: ATOMS id type x y z
5 2 8.81169 9.80757 6.62114
9 2 8.10786 6.41413 9.14882
1 1 8.25677 9.04811 7.17634
2 1 7.66697 7.93584 6.71491
3 1 6.87608 6.8638 7.44041
6 2 8.20216 9.42777 8.20903
4 1 7.18377 6.14214 8.55113
7 2 7.708 7.63923 5.66909
8 2 5.93392 6.56418 6.88741
10 2 6.45887 5.42783 9.0568
ITEM: TIMESTEP
100
ITEM: NUMBER OF ATOMS
10
ITEM: BOX BOUNDS pp pp pp
0.0000000000000000e+00 1.5000000000000000e+01
0.0000000000000000e+00 1.5000000000000000e+01
0.0000000000000000e+00 1.5000000000000000e+01
ITEM: ATOMS id type x y z
5 2 8.43224 9.80933 6.64892
9 2 8.01914 6.53764 9.12322
1 1 8.10173 9.08835 7.38986
2 1 7.70504 7.95365 6.78113
3 1 6.96375 6.77672 7.29733
6 2 7.85965 9.21477 8.46182
4 1 7.25095 6.1563 8.45422
7 2 7.88842 8.0421 5.69061
8 2 6.26305 6.30977 6.67709
10 2 6.53274 5.45621 8.7521
ITEM: TIMESTEP
200
ITEM: NUMBER OF ATOMS
10
ITEM: BOX BOUNDS pp pp pp
0.0000000000000000e+00 1.5000000000000000e+01
0.0000000000000000e+00 1.5000000000000000e+01
0.0000000000000000e+00 1.5000000000000000e+01
ITEM: ATOMS id type x y z
5 2 8.38239 10.0783 7.07097
9 2 7.72683 6.46443 9.27985
1 1 7.96872 9.15784 7.48197
2 1 7.6884 8.01092 6.75484
3 1 7.10358 6.75585 7.23571
6 2 7.74307 9.35935 8.50896
4 1 7.24258 6.07362 8.40068
7 2 7.94126 8.02151 5.69476
8 2 6.58161 6.18403 6.40502
10 2 6.72923 5.12313 8.6902
ITEM: TIMESTEP
300
ITEM: NUMBER OF ATOMS
10
ITEM: BOX BOUNDS pp pp pp
0.0000000000000000e+00 1.5000000000000000e+01
0.0000000000000000e+00 1.5000000000000000e+01
0.0000000000000000e+00 1.5000000000000000e+01
ITEM: ATOMS id type x y z
5 2 8.22731 10.0837 7.14992
9 2 7.63675 6.45154 9.31263
1 1 7.84373 9.16418 7.53276
2 1 7.70066 8.06597 6.83545
3 1 7.24264 6.75189 7.19229
6 2 7.44309 9.09009 8.54774
4 1 7.24252 6.05465 8.35143
7 2 8.0401 8.08161 5.79029
8 2 6.7516 6.21969 6.34607
10 2 6.84783 5.07318 8.27081
ITEM: TIMESTEP
400
ITEM: NUMBER OF ATOMS
10
ITEM: BOX BOUNDS pp pp pp
0.0000000000000000e+00 1.5000000000000000e+01
0.0000000000000000e+00 1.5000000000000000e+01
0.0000000000000000e+00 1.5000000000000000e+01
ITEM: ATOMS id type x y z
5 2 8.07044 10.1626 7.23994
9 2 7.61184 6.45331 9.17176
1 1 7.66643 9.20531 7.65918
2 1 7.79112 8.10639 6.87536
3 1 7.30884 6.6966 7.10991
6 2 7.18834 9.25249 8.66398
4 1 7.27536 5.98486 8.26624
7 2 8.1905 8.1685 5.85218
8 2 6.93863 6.27923 6.20988
10 2 6.87374 4.9449 8.28714
ITEM: TIMESTEP
500
ITEM: NUMBER OF ATOMS
10
ITEM: BOX BOUNDS pp pp pp
0.0000000000000000e+00 1.5000000000000000e+01
0.0000000000000000e+00 1.5000000000000000e+01
0.0000000000000000e+00 1.5000000000000000e+01
ITEM: ATOMS id type x y z
5 2 7.9327 10.1923 7.46652
9 2 7.57786 6.39544 9.14716
1 1 7.47684 9.22517 7.71234
2 1 7.86558 8.13965 6.97293
3 1 7.37986 6.6677 7.05551
6 2 6.86984 9.11861 8.59993
4 1 7.31014 5.94497 8.14077
7 2 8.39824 8.4976 6.09455
8 2 7.15598 6.24574 6.04148
10 2 6.99485 4.90536 8.25007
ITEM: TIMESTEP
600
ITEM: NUMBER OF ATOMS
10
ITEM: BOX BOUNDS pp pp pp
0.0000000000000000e+00 1.5000000000000000e+01
0.0000000000000000e+00 1.5000000000000000e+01
0.0000000000000000e+00 1.5000000000000000e+01
ITEM: ATOMS id type x y z
5 2 7.67592 10.1451 7.64899
9 2 7.49189 6.2548 9.0768
1 1 7.30821 9.15977 7.77051
2 1 7.87569 8.19368 7.05541
3 1 7.52813 6.78015 7.03357
6 2 6.50611 8.95249 8.52009
4 1 7.32688 5.90266 8.06836
7 2 8.6133 8.49806 6.2782
8 2 7.38198 6.2756 6.0635
10 2 7.22139 4.87642 7.73426
ITEM: TIMESTEP
700
ITEM: NUMBER OF ATOMS
10
ITEM: BOX BOUNDS pp pp pp
0.0000000000000000e+00 1.5000000000000000e+01
0.0000000000000000e+00 1.5000000000000000e+01
0.0000000000000000e+00 1.5000000000000000e+01
ITEM: ATOMS id type x y z
5 2 7.36957 10.2244 8.04396
9 2 7.22767 5.86734 9.00963
1 1 7.16264 9.14773 7.83647
2 1 7.83202 8.24116 7.1075
3 1 7.69011 6.8187 6.99135
6 2 6.31886 8.90915 8.43702
4 1 7.3659 5.85946 7.93953
7 2 8.7102 8.53462 6.50419
8 2 7.79989 6.4928 5.96026
10 2 7.39383 4.78939 7.6849
ITEM: TIMESTEP
800
ITEM: NUMBER OF ATOMS
10
ITEM: BOX BOUNDS pp pp pp
0.0000000000000000e+00 1.5000000000000000e+01
0.0000000000000000e+00 1.5000000000000000e+01
0.0000000000000000e+00 1.5000000000000000e+01
ITEM: ATOMS id type x y z
5 2 7.2384 10.0946 7.94391
9 2 7.11555 6.21814 8.75426
1 1 6.98415 9.0667 7.93788
2 1 7.83858 8.26701 7.20554
3 1 7.83273 6.83562 7.01697
6 2 6.1408 8.60913 8.50116
4 1 7.40497 5.84599 7.75228
7 2 8.63906 8.86435 6.77886
8 2 8.27214 6.51755 6.02189
10 2 7.35546 4.82437 7.4129
ITEM: TIMESTEP
900
ITEM: NUMBER OF ATOMS
10
ITEM: BOX BOUNDS pp pp pp
0.0000000000000000e+00 1.5000000000000000e+01
0.0000000000000000e+00 1.5000000000000000e+01
0.0000000000000000e+00 1.5000000000000000e+01
ITEM: ATOMS id type x y z
5 2 6.98574 10.1598 8.08743
9 2 6.92335 5.86449 8.62252
1 1 6.86077 9.04487 7.96009
2 1 7.83454 8.34259 7.33895
3 1 7.93062 6.85271 6.92726
6 2 5.98698 8.60859 8.46405
4 1 7.44447 5.7948 7.6684
7 2 8.69275 8.91164 6.92848
8 2 8.62383 6.69877 6.11917
10 2 7.489 4.76682 7.29915
ITEM: TIMESTEP
1000
ITEM: NUMBER OF ATOMS
10
ITEM: BOX BOUNDS pp pp pp
0.0000000000000000e+00 1.5000000000000000e+01
0.0000000000000000e+00 1.5000000000000000e+01
0.0000000000000000e+00 1.5000000000000000e+01
ITEM: ATOMS id type x y z
5 2 6.83911 10.0383 8.20691
9 2 6.858 5.71876 8.45066
1 1 6.80621 8.99612 7.95334
2 1 7.82101 8.37151 7.42123
3 1 7.91409 6.94085 7.00971
6 2 5.92345 8.43341 8.21187
4 1 7.49207 5.78121 7.54779
7 2 8.75171 8.87403 7.19622
8 2 8.6372 6.71578 6.22717
10 2 7.91421 4.90165 7.00375
ITEM: TIMESTEP
1100
ITEM: NUMBER OF ATOMS
10
ITEM: BOX BOUNDS pp pp pp
0.0000000000000000e+00 1.5000000000000000e+01
0.0000000000000000e+00 1.5000000000000000e+01
0.0000000000000000e+00 1.5000000000000000e+01
ITEM: ATOMS id type x y z
5 2 6.62807 9.94506 8.37949
9 2 6.88652 5.72668 8.29804
1 1 6.67718 8.92802 7.97429
2 1 7.81947 8.33826 7.50548
3 1 8.02193 6.99711 7.01368
6 2 5.77552 8.29316 7.94646
4 1 7.55703 5.80832 7.42425
7 2 8.7714 8.88467 7.62719
8 2 8.78767 7.0483 6.15771
10 2 7.82119 4.89184 6.97388
ITEM: TIMESTEP
1200
ITEM: NUMBER OF ATOMS
10
ITEM: BOX BOUNDS pp pp pp
0.0000000000000000e+00 1.5000000000000000e+01
0.0000000000000000e+00 1.5000000000000000e+01
0.0000000000000000e+00 1.5000000000000000e+01
ITEM: ATOMS id type x y z
10 2 7.74596 4.89805 6.76916
5 2 6.39196 9.80267 8.40971
9 2 6.94444 5.7845 8.03563
1 1 6.52865 8.81042 7.94742
2 1 7.79345 8.29235 7.73226
3 1 8.19168 7.06741 7.02452
6 2 5.55303 8.34295 7.76494
4 1 7.63645 5.86161 7.22444
7 2 8.6419 8.92534 8.06353
8 2 8.94535 7.27577 6.27423
ITEM: TIMESTEP
1300
ITEM: NUMBER OF ATOMS
10
ITEM: BOX BOUNDS pp pp pp
0.0000000000000000e+00 1.5000000000000000e+01
0.0000000000000000e+00 1.5000000000000000e+01
0.0000000000000000e+00 1.5000000000000000e+01
ITEM: ATOMS id type x y z
10 2 8.36122 5.15602 6.44561
5 2 6.34019 9.69197 8.50802
9 2 6.79202 5.60473 7.62156
1 1 6.46791 8.76274 7.98172
2 1 7.68279 8.25888 7.8794
3 1 8.2069 7.14719 7.10752
6 2 5.63095 8.24739 7.55156
4 1 7.72889 5.87679 7.02866
7 2 8.37111 9.00339 8.26377
8 2 9.10957 7.24292 6.51476
ITEM: TIMESTEP
1400
ITEM: NUMBER OF ATOMS
10
ITEM: BOX BOUNDS pp pp pp
0.0000000000000000e+00 1.5000000000000000e+01
0.0000000000000000e+00 1.5000000000000000e+01
0.0000000000000000e+00 1.5000000000000000e+01
ITEM: ATOMS id type x y z
10 2 8.52866 5.22644 6.42833
5 2 6.02763 9.42696 8.75569
9 2 6.84469 5.43148 6.98979
1 1 6.35607 8.67644 8.02053
2 1 7.64894 8.34429 7.96693
3 1 8.25374 7.16433 7.15247
6 2 5.52989 8.23737 7.42873
4 1 7.80886 5.90721 6.86436
7 2 8.48816 8.92207 8.4008
8 2 9.29936 7.42201 6.8599
ITEM: TIMESTEP
1500
ITEM: NUMBER OF ATOMS
10
ITEM: BOX BOUNDS pp pp pp
0.0000000000000000e+00 1.5000000000000000e+01
0.0000000000000000e+00 1.5000000000000000e+01
0.0000000000000000e+00 1.5000000000000000e+01
ITEM: ATOMS id type x y z
10 2 8.53856 5.43821 6.03874
5 2 5.93868 9.3656 8.72615
9 2 6.85792 5.87519 6.88822
1 1 6.27047 8.56126 8.04056
2 1 7.59774 8.24474 7.99721
3 1 8.32569 7.16591 7.28583
6 2 5.65323 8.01114 7.3206
4 1 7.90697 6.04394 6.711
7 2 8.19314 8.89702 8.6004
8 2 9.33726 7.53771 7.10729
ITEM: TIMESTEP
1600
ITEM: NUMBER OF ATOMS
10
ITEM: BOX BOUNDS pp pp pp
0.0000000000000000e+00 1.5000000000000000e+01
0.0000000000000000e+00 1.5000000000000000e+01
0.0000000000000000e+00 1.5000000000000000e+01
ITEM: ATOMS id type x y z
10 2 8.64729 5.59306 5.90161
5 2 5.78916 9.22154 8.69768
9 2 6.93826 5.85298 6.563
1 1 6.19744 8.48 8.04435
2 1 7.50403 8.14769 8.08399
3 1 8.38515 7.24283 7.31307
6 2 5.49367 8.1476 7.29028
4 1 8.02487 6.15905 6.60898
7 2 8.15879 8.68036 8.8381
8 2 9.42797 7.54706 7.296
ITEM: TIMESTEP
1700
ITEM: NUMBER OF ATOMS
10
ITEM: BOX BOUNDS pp pp pp
0.0000000000000000e+00 1.5000000000000000e+01
0.0000000000000000e+00 1.5000000000000000e+01
0.0000000000000000e+00 1.5000000000000000e+01
ITEM: ATOMS id type x y z
10 2 9.06631 5.90878 6.06498
5 2 5.65905 9.01964 8.79365
9 2 7.21366 5.71794 6.12608
1 1 6.18365 8.40497 8.04978
2 1 7.46366 8.06661 8.21629
3 1 8.29107 7.35951 7.28511
6 2 5.60102 8.26841 7.13587
4 1 8.09788 6.22828 6.49149
7 2 7.99431 8.39791 9.13636
8 2 9.37207 7.55106 7.37603
ITEM: TIMESTEP
1800
ITEM: NUMBER OF ATOMS
10
ITEM: BOX BOUNDS pp pp pp
0.0000000000000000e+00 1.5000000000000000e+01
0.0000000000000000e+00 1.5000000000000000e+01
0.0000000000000000e+00 1.5000000000000000e+01
ITEM: ATOMS id type x y z
10 2 9.07589 6.16108 5.76424
5 2 5.46102 8.71895 8.83104
9 2 7.25538 6.02483 6.17451
1 1 6.11649 8.30381 8.0382
2 1 7.37601 7.94449 8.30224
3 1 8.35011 7.38989 7.30368
6 2 5.84006 8.31221 6.97067
4 1 8.23379 6.42538 6.4131
7 2 7.62336 7.98436 9.31764
8 2 9.40986 7.63715 7.48761
ITEM: TIMESTEP
1900
ITEM: NUMBER OF ATOMS
10
ITEM: BOX BOUNDS pp pp pp
0.0000000000000000e+00 1.5000000000000000e+01
0.0000000000000000e+00 1.5000000000000000e+01
0.0000000000000000e+00 1.5000000000000000e+01
ITEM: ATOMS id type x y z
10 2 9.09233 6.5692 5.50095
5 2 5.28774 8.59484 8.71572
9 2 7.35711 6.31836 6.0539
1 1 5.98639 8.2136 7.98455
2 1 7.27658 7.70955 8.35827
3 1 8.4884 7.39302 7.4414
6 2 5.70961 8.35761 6.92139
4 1 8.36548 6.68917 6.2922
7 2 7.59656 7.47333 9.40063
8 2 9.37957 7.87461 7.83784
ITEM: TIMESTEP
2000
ITEM: NUMBER OF ATOMS
10
ITEM: BOX BOUNDS pp pp pp
0.0000000000000000e+00 1.5000000000000000e+01
0.0000000000000000e+00 1.5000000000000000e+01
0.0000000000000000e+00 1.5000000000000000e+01
ITEM: ATOMS id type x y z
10 2 9.54111 6.79544 5.86992
5 2 5.29952 8.2646 8.88674
9 2 7.63684 6.66857 5.63054
1 1 5.98459 8.0635 8.05672
2 1 7.17972 7.60246 8.27474
3 1 8.37496 7.40323 7.47255
6 2 5.71852 8.32833 7.05732
4 1 8.50582 6.96133 6.21664
7 2 7.35768 7.31743 9.33211
8 2 9.29976 7.66247 7.98848
ITEM: TIMESTEP
2100
ITEM: NUMBER OF ATOMS
10
ITEM: BOX BOUNDS pp pp pp
0.0000000000000000e+00 1.5000000000000000e+01
0.0000000000000000e+00 1.5000000000000000e+01
0.0000000000000000e+00 1.5000000000000000e+01
ITEM: ATOMS id type x y z
10 2 9.61361 6.98391 5.81978
5 2 5.11038 7.85561 8.73143
9 2 7.81294 7.00887 5.38608
1 1 5.95468 7.9693 8.01976
2 1 7.16053 7.49447 8.37517
3 1 8.34893 7.44297 7.50189
6 2 5.61948 8.31382 7.00871
4 1 8.59101 7.15942 6.18163
7 2 7.33717 7.20841 9.38847
8 2 9.29958 7.45249 8.08384
ITEM: TIMESTEP
2200
ITEM: NUMBER OF ATOMS
10
ITEM: BOX BOUNDS pp pp pp
0.0000000000000000e+00 1.5000000000000000e+01
0.0000000000000000e+00 1.5000000000000000e+01
0.0000000000000000e+00 1.5000000000000000e+01
ITEM: ATOMS id type x y z
10 2 9.53556 7.46801 5.74596
5 2 5.03982 7.6786 8.56218
9 2 7.72463 7.2338 5.57001
1 1 5.91145 7.89353 7.97572
2 1 7.15246 7.36964 8.31802
3 1 8.44675 7.37101 7.55871
6 2 5.7921 8.25134 6.94288
4 1 8.58139 7.38796 6.21943
7 2 7.19178 7.07251 9.39452
8 2 9.28783 7.38286 8.24217
ITEM: TIMESTEP
2300
ITEM: NUMBER OF ATOMS
10
ITEM: BOX BOUNDS pp pp pp
0.0000000000000000e+00 1.5000000000000000e+01
0.0000000000000000e+00 1.5000000000000000e+01
0.0000000000000000e+00 1.5000000000000000e+01
ITEM: ATOMS id type x y z
10 2 9.72596 7.69798 5.87224
5 2 5.03375 7.46058 8.60684
9 2 7.85847 7.38898 5.61725
1 1 5.88177 7.79002 7.99284
2 1 7.10591 7.26407 8.20229
3 1 8.38434 7.40738 7.56972
6 2 5.58977 8.35822 7.13753
4 1 8.69849 7.56554 6.28575
7 2 7.23972 6.66462 9.12303
8 2 9.25328 7.4876 8.22846
ITEM: TIMESTEP
2400
ITEM: NUMBER OF ATOMS
10
ITEM: BOX BOUNDS pp pp pp
0.0000000000000000e+00 1.5000000000000000e+01
0.0000000000000000e+00 1.5000000000000000e+01
0.0000000000000000e+00 1.5000000000000000e+01
ITEM: ATOMS id type x y z
10 2 9.78745 7.88197 6.23781
5 2 5.06361 7.19356 8.52411
9 2 8.29542 7.76033 5.29112
1 1 5.88729 7.63001 7.99781
2 1 7.07256 7.096 8.16042
3 1 8.34228 7.50355 7.59563
6 2 5.62815 8.44968 7.32104
4 1 8.71772 7.79725 6.29121
7 2 7.18722 6.25916 8.79288
8 2 9.04302 7.51447 8.45164
ITEM: TIMESTEP
2500
ITEM: NUMBER OF ATOMS
10
ITEM: BOX BOUNDS pp pp pp
0.0000000000000000e+00 1.5000000000000000e+01
0.0000000000000000e+00 1.5000000000000000e+01
0.0000000000000000e+00 1.5000000000000000e+01
ITEM: ATOMS id type x y z
10 2 9.7335 8.44917 6.23306
5 2 4.92925 6.91718 8.05684
9 2 7.94769 8.09153 5.69628
1 1 5.86395 7.49109 7.9088
2 1 7.08185 6.91867 8.09707
3 1 8.36993 7.53222 7.64376
6 2 5.80159 8.48006 7.46134
4 1 8.74119 8.0526 6.46781
7 2 7.10781 5.85703 8.484
8 2 9.26268 7.45754 8.25291
ITEM: TIMESTEP
2600
ITEM: NUMBER OF ATOMS
10
ITEM: BOX BOUNDS pp pp pp
0.0000000000000000e+00 1.5000000000000000e+01
0.0000000000000000e+00 1.5000000000000000e+01
0.0000000000000000e+00 1.5000000000000000e+01
ITEM: ATOMS id type x y z
10 2 9.6921 8.81339 6.49443
5 2 4.88911 6.85505 8.17962
9 2 7.99355 8.50488 5.76214
1 1 5.82289 7.35427 7.86848
2 1 7.09719 6.84981 7.94824
3 1 8.44665 7.48949 7.65854
6 2 5.70767 8.3764 7.43483
4 1 8.70959 8.24225 6.57662
7 2 7.12847 5.81859 8.35259
8 2 9.25515 7.23678 8.35406
ITEM: TIMESTEP
2700
ITEM: NUMBER OF ATOMS
10
ITEM: BOX BOUNDS pp pp pp
0.0000000000000000e+00 1.5000000000000000e+01
0.0000000000000000e+00 1.5000000000000000e+01
0.0000000000000000e+00 1.5000000000000000e+01
ITEM: ATOMS id type x y z
10 2 9.75289 8.71095 6.73691
5 2 5.1598 6.58021 8.27953
9 2 8.01013 8.86793 6.03709
1 1 5.83851 7.25271 7.79278
2 1 7.09311 6.82515 7.88305
3 1 8.36533 7.49586 7.61593
6 2 5.44656 8.20918 7.50634
4 1 8.7425 8.41683 6.70024
7 2 7.33587 5.81765 8.12636
8 2 9.182 7.09082 8.25079
ITEM: TIMESTEP
2800
ITEM: NUMBER OF ATOMS
10
ITEM: BOX BOUNDS pp pp pp
0.0000000000000000e+00 1.5000000000000000e+01
0.0000000000000000e+00 1.5000000000000000e+01
0.0000000000000000e+00 1.5000000000000000e+01
ITEM: ATOMS id type x y z
10 2 9.71995 9.0026 6.78573
5 2 5.00134 6.43963 7.88815
9 2 7.97513 9.16359 6.32231
1 1 5.863 7.10998 7.7436
2 1 7.13563 6.7813 7.81555
3 1 8.3603 7.51639 7.63156
6 2 5.66017 8.1755 7.65448
4 1 8.68541 8.55057 6.83807
7 2 7.31301 5.67888 7.90549
8 2 9.18835 7.01041 8.16012
ITEM: TIMESTEP
2900
ITEM: NUMBER OF ATOMS
10
ITEM: BOX BOUNDS pp pp pp
0.0000000000000000e+00 1.5000000000000000e+01
0.0000000000000000e+00 1.5000000000000000e+01
0.0000000000000000e+00 1.5000000000000000e+01
ITEM: ATOMS id type x y z
10 2 9.39415 9.33875 7.26784
5 2 4.99813 6.50757 7.62989
9 2 7.70584 9.18265 6.46814
1 1 5.89624 7.10066 7.70931
2 1 7.21824 6.60025 7.60884
3 1 8.40583 7.49797 7.62946
6 2 5.73046 8.15931 7.86409
4 1 8.58272 8.70182 7.02085
7 2 7.42069 5.5124 7.68548
8 2 9.25652 7.1151 8.16279
ITEM: TIMESTEP
3000
ITEM: NUMBER OF ATOMS
10
ITEM: BOX BOUNDS pp pp pp
0.0000000000000000e+00 1.5000000000000000e+01
0.0000000000000000e+00 1.5000000000000000e+01
0.0000000000000000e+00 1.5000000000000000e+01
ITEM: ATOMS id type x y z
10 2 9.49563 9.37739 7.42562
5 2 5.26387 6.02498 7.47379
9 2 7.79853 9.39637 6.75418
1 1 5.91413 6.8714 7.67398
2 1 7.21074 6.75015 7.40036
3 1 8.37419 7.54824 7.66586
6 2 5.44081 7.76485 8.12759
4 1 8.57733 8.8063 7.20982
7 2 7.42203 5.71744 7.22006
8 2 9.24482 7.08246 8.18764
ITEM: TIMESTEP
3100
ITEM: NUMBER OF ATOMS
10
ITEM: BOX BOUNDS pp pp pp
0.0000000000000000e+00 1.5000000000000000e+01
0.0000000000000000e+00 1.5000000000000000e+01
0.0000000000000000e+00 1.5000000000000000e+01
ITEM: ATOMS id type x y z
10 2 9.45641 9.40286 7.69646
5 2 5.34042 5.88142 7.37601
9 2 7.66877 9.50759 6.96694
1 1 5.97868 6.78994 7.60013
2 1 7.23749 6.69243 7.30826
3 1 8.3519 7.60675 7.6165
6 2 5.4915 7.59774 8.13757
4 1 8.50197 8.9259 7.41634
7 2 7.63106 5.72896 6.92371
8 2 9.11559 7.01133 8.1409
ITEM: TIMESTEP
3200
ITEM: NUMBER OF ATOMS
10
ITEM: BOX BOUNDS pp pp pp
0.0000000000000000e+00 1.5000000000000000e+01
0.0000000000000000e+00 1.5000000000000000e+01
0.0000000000000000e+00 1.5000000000000000e+01
ITEM: ATOMS id type x y z
10 2 9.22193 9.60544 7.77826
5 2 5.22993 6.11604 7.12239
9 2 7.4318 9.45867 7.35216
1 1 5.96332 6.7437 7.52956
2 1 7.32116 6.60314 7.26246
3 1 8.41988 7.61891 7.59158
6 2 5.72881 7.61044 8.16707
4 1 8.37292 8.97102 7.58175
7 2 7.74211 5.72709 6.76219
8 2 9.30579 7.08168 7.91481
ITEM: TIMESTEP
3300
ITEM: NUMBER OF ATOMS
10
ITEM: BOX BOUNDS pp pp pp
0.0000000000000000e+00 1.5000000000000000e+01
0.0000000000000000e+00 1.5000000000000000e+01
0.0000000000000000e+00 1.5000000000000000e+01
ITEM: ATOMS id type x y z
10 2 9.22796 9.54763 8.03185
5 2 5.30506 5.8275 7.13823
9 2 7.38058 9.55861 7.65595
1 1 6.03131 6.6447 7.46921
2 1 7.34584 6.67332 7.15731
3 1 8.39389 7.6736 7.55007
6 2 5.57929 7.45031 8.03175
4 1 8.32376 8.98083 7.75757
7 2 7.63923 5.71919 6.71258
8 2 9.42311 7.28203 7.71363
ITEM: TIMESTEP
3400
ITEM: NUMBER OF ATOMS
10
ITEM: BOX BOUNDS pp pp pp
0.0000000000000000e+00 1.5000000000000000e+01
0.0000000000000000e+00 1.5000000000000000e+01
0.0000000000000000e+00 1.5000000000000000e+01
ITEM: ATOMS id type x y z
10 2 9.17602 9.52076 8.19639
5 2 5.77644 5.63897 7.0175
9 2 7.32864 9.5926 7.96957
1 1 6.08127 6.57328 7.40358
2 1 7.35719 6.77167 7.08652
3 1 8.37885 7.67659 7.5393
6 2 5.30924 7.05698 8.03315
4 1 8.24076 8.98798 7.93849
7 2 7.76415 6.01661 6.39941
8 2 9.42106 7.33698 7.46563
ITEM: TIMESTEP
3500
ITEM: NUMBER OF ATOMS
10
ITEM: BOX BOUNDS pp pp pp
0.0000000000000000e+00 1.5000000000000000e+01
0.0000000000000000e+00 1.5000000000000000e+01
0.0000000000000000e+00 1.5000000000000000e+01
ITEM: ATOMS id type x y z
10 2 8.88705 9.62407 8.47362
5 2 5.51063 5.75291 6.81118
9 2 7.10878 9.37327 8.15473
1 1 6.16449 6.43775 7.32011
2 1 7.43909 6.77531 6.98436
3 1 8.36998 7.77063 7.5599
6 2 5.74596 6.88367 8.1972
4 1 8.13284 8.97119 8.11316
7 2 7.83362 6.39304 6.02451
8 2 9.39957 7.46377 7.36255
ITEM: TIMESTEP
3600
ITEM: NUMBER OF ATOMS
10
ITEM: BOX BOUNDS pp pp pp
0.0000000000000000e+00 1.5000000000000000e+01
0.0000000000000000e+00 1.5000000000000000e+01
0.0000000000000000e+00 1.5000000000000000e+01
ITEM: ATOMS id type x y z
10 2 8.84356 9.40844 8.8633
5 2 5.55328 5.74367 6.67512
9 2 7.00986 9.31009 8.22707
1 1 6.29601 6.34148 7.27938
2 1 7.46801 6.85269 6.80194
3 1 8.28955 7.83872 7.57431
6 2 6.11108 6.68007 8.32013
4 1 8.01042 8.92594 8.27206
7 2 7.82987 6.68252 5.77277
8 2 9.39237 7.64223 7.46445
ITEM: TIMESTEP
3700
ITEM: NUMBER OF ATOMS
10
ITEM: BOX BOUNDS pp pp pp
0.0000000000000000e+00 1.5000000000000000e+01
0.0000000000000000e+00 1.5000000000000000e+01
0.0000000000000000e+00 1.5000000000000000e+01
ITEM: ATOMS id type x y z
10 2 8.72514 9.49204 8.83625
5 2 5.89788 5.6477 6.38235
9 2 6.93567 9.32149 8.61987
1 1 6.39382 6.20685 7.17063
2 1 7.40333 7.00365 6.79525
3 1 8.35556 7.85796 7.61117
6 2 5.90367 6.12353 8.13435
4 1 7.93809 8.91312 8.40463
7 2 7.73442 6.9069 5.75041
8 2 9.38247 7.83886 7.27566
ITEM: TIMESTEP
3800
ITEM: NUMBER OF ATOMS
10
ITEM: BOX BOUNDS pp pp pp
0.0000000000000000e+00 1.5000000000000000e+01
0.0000000000000000e+00 1.5000000000000000e+01
0.0000000000000000e+00 1.5000000000000000e+01
ITEM: ATOMS id type x y z
10 2 8.64666 9.41927 9.0972
5 2 6.17281 5.48869 6.34312
9 2 6.81251 8.85389 8.69629
1 1 6.4893 6.20604 7.08939
2 1 7.44457 7.06162 6.76682
3 1 8.24085 7.98614 7.53907
6 2 5.98711 6.20465 8.05687
4 1 7.89495 8.78174 8.55247
7 2 7.78932 6.92388 5.7364
8 2 9.29751 8.1164 7.27262
ITEM: TIMESTEP
3900
ITEM: NUMBER OF ATOMS
10
ITEM: BOX BOUNDS pp pp pp
0.0000000000000000e+00 1.5000000000000000e+01
0.0000000000000000e+00 1.5000000000000000e+01
0.0000000000000000e+00 1.5000000000000000e+01
ITEM: ATOMS id type x y z
10 2 8.26027 9.53278 9.15641
5 2 5.98033 5.49446 6.33673
9 2 6.78709 8.53075 9.09258
1 1 6.54743 6.18046 7.01291
2 1 7.55929 7.06146 6.69578
3 1 8.21963 8.08338 7.53001
6 2 6.20492 6.21462 8.05621
4 1 7.79955 8.68073 8.68086
7 2 7.92097 7.14299 5.66715
8 2 9.21502 8.26828 7.0626
ITEM: TIMESTEP
4000
ITEM: NUMBER OF ATOMS
10
ITEM: BOX BOUNDS pp pp pp
0.0000000000000000e+00 1.5000000000000000e+01
0.0000000000000000e+00 1.5000000000000000e+01
0.0000000000000000e+00 1.5000000000000000e+01
ITEM: ATOMS id type x y z
10 2 8.36731 9.46233 9.13985
5 2 6.3091 5.49959 6.16599
9 2 6.82213 8.43057 9.2134
1 1 6.66954 6.13057 6.93653
2 1 7.50787 7.14216 6.64836
3 1 8.10442 8.11772 7.57413
6 2 6.27364 5.97115 7.94521
4 1 7.77963 8.6427 8.76946
7 2 7.90725 7.19126 5.61676
8 2 9.0758 8.46624 7.2369
ITEM: TIMESTEP
4100
ITEM: NUMBER OF ATOMS
10
ITEM: BOX BOUNDS pp pp pp
0.0000000000000000e+00 1.5000000000000000e+01
0.0000000000000000e+00 1.5000000000000000e+01
0.0000000000000000e+00 1.5000000000000000e+01
ITEM: ATOMS id type x y z
10 2 8.28459 9.37526 9.37881
5 2 6.51202 5.54882 5.88818
9 2 6.70816 8.29708 9.25553
1 1 6.80767 6.06984 6.85856
2 1 7.41074 7.23349 6.67914
3 1 8.14723 8.18012 7.61016
6 2 6.55219 5.6255 7.79885
4 1 7.69198 8.58693 8.80654
7 2 7.6384 7.31674 5.60351
8 2 9.08301 8.63432 7.23777
ITEM: TIMESTEP
4200
ITEM: NUMBER OF ATOMS
10
ITEM: BOX BOUNDS pp pp pp
0.0000000000000000e+00 1.5000000000000000e+01
0.0000000000000000e+00 1.5000000000000000e+01
0.0000000000000000e+00 1.5000000000000000e+01
ITEM: ATOMS id type x y z
10 2 8.07533 9.06392 9.65019
5 2 6.51417 5.51955 5.98222
9 2 6.61448 8.07328 9.09424
1 1 6.99916 6.04555 6.78242
2 1 7.40384 7.33974 6.61258
3 1 8.08172 8.2298 7.64672
6 2 7.11758 5.38948 7.68932
4 1 7.57923 8.50032 8.88314
7 2 7.38046 7.82064 5.62963
8 2 9.03833 8.66062 7.29426
ITEM: TIMESTEP
4300
ITEM: NUMBER OF ATOMS
10
ITEM: BOX BOUNDS pp pp pp
0.0000000000000000e+00 1.5000000000000000e+01
0.0000000000000000e+00 1.5000000000000000e+01
0.0000000000000000e+00 1.5000000000000000e+01
ITEM: ATOMS id type x y z
10 2 8.06845 8.99027 9.64135
5 2 6.74377 5.49836 5.78376
9 2 6.62606 7.82264 9.34712
1 1 7.17619 6.07528 6.6344
2 1 7.43949 7.40593 6.63434
3 1 7.88482 8.22886 7.69442
6 2 7.61968 5.67741 7.54798
4 1 7.51728 8.36888 8.9564
7 2 7.19748 7.96546 5.71808
8 2 8.76194 8.79218 7.33329
ITEM: TIMESTEP
4400
ITEM: NUMBER OF ATOMS
10
ITEM: BOX BOUNDS pp pp pp
0.0000000000000000e+00 1.5000000000000000e+01
0.0000000000000000e+00 1.5000000000000000e+01
0.0000000000000000e+00 1.5000000000000000e+01
ITEM: ATOMS id type x y z
10 2 7.76291 9.13488 9.69687
5 2 6.99724 5.63597 5.62654
9 2 6.9807 7.47286 9.6282
1 1 7.31305 6.10008 6.55768
2 1 7.45407 7.43847 6.59618
3 1 7.82546 8.26699 7.73809
6 2 7.56867 5.28786 7.23036
4 1 7.44748 8.25991 9.04106
7 2 7.34389 8.06253 5.67664
8 2 8.23027 9.23321 7.4324
ITEM: TIMESTEP
4500
ITEM: NUMBER OF ATOMS
10
ITEM: BOX BOUNDS pp pp pp
0.0000000000000000e+00 1.5000000000000000e+01
0.0000000000000000e+00 1.5000000000000000e+01
0.0000000000000000e+00 1.5000000000000000e+01
ITEM: ATOMS id type x y z
10 2 7.81949 8.81907 9.78794
5 2 7.42956 5.69318 5.51586
9 2 7.06388 7.15177 9.42635
1 1 7.40936 6.1263 6.50054
2 1 7.43715 7.46436 6.59853
3 1 7.6799 8.39064 7.74774
6 2 7.54126 5.53988 7.40455
4 1 7.44099 8.13445 9.08818
7 2 7.46162 7.89158 5.60086
8 2 8.00383 9.43003 7.5435
ITEM: TIMESTEP
4600
ITEM: NUMBER OF ATOMS
10
ITEM: BOX BOUNDS pp pp pp
0.0000000000000000e+00 1.5000000000000000e+01
0.0000000000000000e+00 1.5000000000000000e+01
0.0000000000000000e+00 1.5000000000000000e+01
ITEM: ATOMS id type x y z
10 2 7.46013 8.80428 9.9752
5 2 7.44172 5.60058 5.47779
9 2 7.22269 7.05129 9.33556
1 1 7.50584 6.14692 6.44083
2 1 7.50146 7.51053 6.56758
3 1 7.59964 8.37938 7.8182
6 2 7.77321 5.46241 7.27606
4 1 7.41709 8.08528 9.09982
7 2 7.26102 8.13885 5.70751
8 2 7.82105 9.42991 7.55827
ITEM: TIMESTEP
4700
ITEM: NUMBER OF ATOMS
10
ITEM: BOX BOUNDS pp pp pp
0.0000000000000000e+00 1.5000000000000000e+01
0.0000000000000000e+00 1.5000000000000000e+01
0.0000000000000000e+00 1.5000000000000000e+01
ITEM: ATOMS id type x y z
10 2 7.3683 8.84691 9.76507
5 2 7.64273 5.88589 5.32432
9 2 7.09896 7.0398 9.62323
1 1 7.67391 6.23391 6.36572
2 1 7.44256 7.53406 6.60324
3 1 7.51695 8.29475 7.83955
6 2 8.06814 5.66545 7.18124
4 1 7.37333 7.99056 9.13351
7 2 7.06505 8.17932 5.79002
8 2 7.84029 9.28289 7.55299
ITEM: TIMESTEP
4800
ITEM: NUMBER OF ATOMS
10
ITEM: BOX BOUNDS pp pp pp
0.0000000000000000e+00 1.5000000000000000e+01
0.0000000000000000e+00 1.5000000000000000e+01
0.0000000000000000e+00 1.5000000000000000e+01
ITEM: ATOMS id type x y z
8 2 7.78735 9.37327 7.7775
5 2 7.70536 5.9465 5.35528
9 2 6.93452 6.908 9.29972
1 1 7.89526 6.36477 6.30917
2 1 7.32551 7.52456 6.63841
3 1 7.50961 8.29488 7.85428
6 2 8.54781 5.68913 6.92187
4 1 7.26519 7.93201 9.15159
7 2 6.82032 8.01508 5.79868
10 2 7.35526 8.59077 10.0153
ITEM: TIMESTEP
4900
ITEM: NUMBER OF ATOMS
10
ITEM: BOX BOUNDS pp pp pp
0.0000000000000000e+00 1.5000000000000000e+01
0.0000000000000000e+00 1.5000000000000000e+01
0.0000000000000000e+00 1.5000000000000000e+01
ITEM: ATOMS id type x y z
8 2 7.56226 9.45349 7.82455
5 2 7.86018 5.89842 5.34631
9 2 6.93172 6.68162 9.20404
1 1 8.1057 6.5233 6.25964
2 1 7.27208 7.52959 6.64869
3 1 7.38521 8.36877 7.92722
6 2 8.81063 6.10448 6.9394
4 1 7.22 7.75476 9.11145
7 2 6.70296 7.85508 5.77914
10 2 7.35829 8.16842 10.1136
ITEM: TIMESTEP
5000
ITEM: NUMBER OF ATOMS
10
ITEM: BOX BOUNDS pp pp pp
0.0000000000000000e+00 1.5000000000000000e+01
0.0000000000000000e+00 1.5000000000000000e+01
0.0000000000000000e+00 1.5000000000000000e+01
ITEM: ATOMS id type x y z
8 2 7.05313 9.20871 7.81577
5 2 8.18294 6.39374 5.18748
9 2 7.27109 6.58218 9.28989
1 1 8.25256 6.67743 6.19512
2 1 7.33978 7.59217 6.64245
3 1 7.17873 8.14652 7.93594
6 2 8.96504 6.14728 6.89397
4 1 7.22348 7.65609 9.18054
7 2 6.66886 8.13283 5.96641
10 2 7.01566 8.32201 10.0112
ITEM: TIMESTEP
5100
ITEM: NUMBER OF ATOMS
10
ITEM: BOX BOUNDS pp pp pp
0.0000000000000000e+00 1.5000000000000000e+01
0.0000000000000000e+00 1.5000000000000000e+01
0.0000000000000000e+00 1.5000000000000000e+01
ITEM: ATOMS id type x y z
8 2 6.51863 9.03329 7.85067
5 2 8.34618 6.49113 5.09241
9 2 7.635 6.58938 9.50551
1 1 8.33146 6.83235 6.15584
2 1 7.43776 7.64747 6.63922
3 1 7.06225 8.07547 7.96598
6 2 9.02597 6.31046 6.76733
4 1 7.19687 7.55155 9.1908
7 2 6.74628 8.13912 5.94273
10 2 6.68186 8.01557 10.0194
ITEM: TIMESTEP
5200
ITEM: NUMBER OF ATOMS
10
ITEM: BOX BOUNDS pp pp pp
0.0000000000000000e+00 1.5000000000000000e+01
0.0000000000000000e+00 1.5000000000000000e+01
0.0000000000000000e+00 1.5000000000000000e+01
ITEM: ATOMS id type x y z
8 2 6.22098 8.91351 8.05731
5 2 8.64973 6.76241 5.16735
9 2 7.76098 6.52325 9.10556
1 1 8.46154 6.92566 6.21994
2 1 7.36754 7.68262 6.58692
3 1 6.91348 8.04962 7.96567
6 2 9.07021 6.40149 6.97174
4 1 7.20283 7.4392 9.17265
7 2 6.83255 8.15011 5.76025
10 2 6.91722 7.88667 10.1557
ITEM: TIMESTEP
5300
ITEM: NUMBER OF ATOMS
10
ITEM: BOX BOUNDS pp pp pp
0.0000000000000000e+00 1.5000000000000000e+01
0.0000000000000000e+00 1.5000000000000000e+01
0.0000000000000000e+00 1.5000000000000000e+01
ITEM: ATOMS id type x y z
8 2 6.10978 8.78221 8.05871
5 2 8.78103 6.90264 5.14279
9 2 7.77746 6.4211 9.18781
1 1 8.536 7.08169 6.19048
2 1 7.38878 7.67616 6.61405
3 1 6.88422 8.03315 8.01762
6 2 9.31653 6.70322 6.88044
4 1 7.13233 7.35107 9.13927
7 2 6.71065 7.91868 5.76407
10 2 6.7806 7.63975 10.0867
ITEM: TIMESTEP
5400
ITEM: NUMBER OF ATOMS
10
ITEM: BOX BOUNDS pp pp pp
0.0000000000000000e+00 1.5000000000000000e+01
0.0000000000000000e+00 1.5000000000000000e+01
0.0000000000000000e+00 1.5000000000000000e+01
ITEM: ATOMS id type x y z
8 2 6.29536 8.75754 8.049
5 2 8.79255 7.35698 5.10589
9 2 7.57787 6.28753 9.35251
1 1 8.60345 7.31952 6.19096
2 1 7.38686 7.64726 6.63819
3 1 6.96627 7.86561 7.96713
6 2 9.46383 7.2344 6.85994
4 1 7.06129 7.21671 9.13675
7 2 6.52363 7.64134 5.97489
10 2 6.36353 7.6476 9.94856
ITEM: TIMESTEP
5500
ITEM: NUMBER OF ATOMS
10
ITEM: BOX BOUNDS pp pp pp
0.0000000000000000e+00 1.5000000000000000e+01
0.0000000000000000e+00 1.5000000000000000e+01
0.0000000000000000e+00 1.5000000000000000e+01
ITEM: ATOMS id type x y z
8 2 6.16614 8.69697 8.01559
5 2 9.03497 7.38809 5.27935
9 2 7.69997 6.15835 9.05347
1 1 8.66003 7.54302 6.27936
2 1 7.39119 7.64153 6.60997
3 1 6.84851 7.84424 7.97787
6 2 9.44098 7.69057 7.01982
4 1 7.0337 7.05403 9.06873
7 2 6.57602 7.46418 5.90641
10 2 6.60534 7.32495 9.99884
ITEM: TIMESTEP
5600
ITEM: NUMBER OF ATOMS
10
ITEM: BOX BOUNDS pp pp pp
0.0000000000000000e+00 1.5000000000000000e+01
0.0000000000000000e+00 1.5000000000000000e+01
0.0000000000000000e+00 1.5000000000000000e+01
ITEM: ATOMS id type x y z
8 2 5.79217 8.30293 8.04906
5 2 9.16456 7.67869 5.35241
9 2 7.91918 6.33659 8.89785
1 1 8.75054 7.75107 6.35194
2 1 7.3911 7.63611 6.61166
3 1 6.69791 7.69724 7.94837
6 2 9.39703 7.86813 7.2359
4 1 7.04439 6.96273 9.02203
7 2 6.79721 7.6143 5.67197
10 2 6.75019 7.13642 10.0779
ITEM: TIMESTEP
5700
ITEM: NUMBER OF ATOMS
10
ITEM: BOX BOUNDS pp pp pp
0.0000000000000000e+00 1.5000000000000000e+01
0.0000000000000000e+00 1.5000000000000000e+01
0.0000000000000000e+00 1.5000000000000000e+01
ITEM: ATOMS id type x y z
8 2 5.67897 7.88373 7.79361
5 2 8.98474 8.23535 5.36254
9 2 8.02555 6.49948 9.28582
1 1 8.75066 7.94681 6.41119
2 1 7.45806 7.66055 6.63381
3 1 6.71786 7.49541 7.89222
6 2 9.59787 7.99046 7.06153
4 1 7.03245 6.88327 9.02688
7 2 6.79993 7.8178 5.77032
10 2 6.2827 6.87695 9.83063
ITEM: TIMESTEP
5800
ITEM: NUMBER OF ATOMS
10
ITEM: BOX BOUNDS pp pp pp
0.0000000000000000e+00 1.5000000000000000e+01
0.0000000000000000e+00 1.5000000000000000e+01
0.0000000000000000e+00 1.5000000000000000e+01
ITEM: ATOMS id type x y z