10
 Atoms. Timestep: 0
C 8.25677 9.04811 7.17634
C 7.66697 7.93584 6.71491
C 6.87608 6.8638 7.44041
C 7.18377 6.14214 8.55113
H 8.81169 9.80757 6.62114
H 8.20216 9.42777 8.20903
H 7.708 7.63923 5.66909
H 5.93392 6.56418 6.88741
H 8.10786 6.41413 9.14882
H 6.45887 5.42783 9.0568
10
 Atoms. Timestep: 20
C 8.20893 9.03023 7.25112
C 7.67397 7.90214 6.70195
C 6.88039 6.89392 7.44388
C 7.22154 6.20657 8.52168
H 8.73358 9.66714 6.57621
H 8.0051 9.20878 8.29347
H 7.81731 7.82888 5.62904
H 6.02979 6.43427 6.92815
H 8.08121 6.40723 9.17617
H 6.54808 5.47654 8.77413
10
 Atoms. Timestep: 40
C 8.14906 9.03862 7.27371
C 7.67926 7.92208 6.71652
C 6.922 6.89049 7.37096
C 7.21912 6.19935 8.56367
H 8.75432 9.71464 6.62883
H 7.96161 9.16043 8.3561
H 7.83166 7.84589 5.61193
H 6.075 6.49964 6.84486
H 8.09892 6.39458 9.15433
H 6.58585 5.3016 8.74378
10
 Atoms. Timestep: 60
C 8.12707 9.10403 7.27457
C 7.69293 7.97089 6.70722
C 6.97279 6.77835 7.39478
C 7.16886 6.15988 8.50915
H 8.74315 9.90801 6.84614
H 8.04035 9.32563 8.34471
H 7.76795 7.73272 5.64468
H 6.1062 6.56796 6.71099
H 8.05043 6.38847 9.10958
H 6.64602 5.21828 8.91854
10
 Atoms. Timestep: 80
C 8.11939 9.09627 7.34304
C 7.68579 7.9353 6.75726
C 6.98167 6.80381 7.2981
C 7.21233 6.14979 8.49403
H 8.58369 9.91333 6.7901
H 7.96659 9.31222 8.38972
H 7.80169 7.82939 5.67378
H 6.12415 6.40568 6.67507
H 8.05549 6.47725 9.13519
H 6.59729 5.37105 8.87058
10
 Atoms. Timestep: 100
C 8.10173 9.08835 7.38986
C 7.70504 7.95365 6.78113
C 6.96375 6.77672 7.29733
C 7.25095 6.1563 8.45422
H 8.43224 9.80933 6.64892
H 7.85965 9.21477 8.46182
H 7.88842 8.0421 5.69061
H 6.26305 6.30977 6.67709
H 8.01914 6.53764 9.12322
H 6.53274 5.45621 8.7521
10
 Atoms. Timestep: 120
C 8.05919 9.13112 7.38061
C 7.70905 7.98868 6.76516
C 7.02504 6.76491 7.30341
C 7.22021 6.09664 8.45487
H 8.4889 9.96935 6.79275
H 7.90838 9.33134 8.45042
H 7.86745 7.98956 5.68137
H 6.28952 6.31842 6.57474
H 7.96248 6.49078 9.15475
H 6.52634 5.23242 8.81071
10
 Atoms. Timestep: 140
C 8.01014 9.13552 7.39709
C 7.69223 7.98452 6.756
C 7.09015 6.76316 7.2798
C 7.18694 6.13078 8.45268
H 8.52487 9.98643 6.99737
H 7.91338 9.35689 8.44127
H 7.81527 7.85824 5.68418
H 6.3364 6.39713 6.52302
H 7.90149 6.37403 9.23543
H 6.75584 5.16338 8.69433
10
 Atoms. Timestep: 160
C 7.99674 9.14845 7.42681
C 7.69454 8.00143 6.76839
C 7.08017 6.76934 7.26539
C 7.20787 6.12438 8.46652
H 8.52239 9.94216 6.86178
H 7.74914 9.12517 8.51421
H 7.86917 7.95685 5.669
H 6.45748 6.30092 6.55562
H 7.88714 6.46649 9.26733
H 6.76274 5.16682 8.45839
10
 Atoms. Timestep: 180
C 7.98823 9.12471 7.44065
C 7.70091 8.02962 6.76178
C 7.06879 6.77925 7.28633
C 7.24259 6.09907 8.42281
H 8.43114 9.96943 6.92409
H 7.69377 9.16552 8.50617
H 7.95008 8.10305 5.70047
H 6.55632 6.13799 6.52518
H 7.79739 6.51943 9.26807
H 6.6922 5.1287 8.4956
10
 Atoms. Timestep: 200
C 7.96872 9.15784 7.48197
C 7.6884 8.01092 6.75484
C 7.10358 6.75585 7.23571
C 7.24258 6.07362 8.40068
H 8.38239 10.0783 7.07097
H 7.74307 9.35935 8.50896
H 7.94126 8.02151 5.69476
H 6.58161 6.18403 6.40502
H 7.72683 6.46443 9.27985
H 6.72923 5.12313 8.6902
10
 Atoms. Timestep: 220
C 7.92726 9.17189 7.49708
C 7.70456 8.05014 6.81952
C 7.15147 6.67855 7.18048
C 7.21405 6.0907 8.40521
H 8.37393 10.0362 6.9858
H 7.70977 9.27479 8.57417
H 7.89391 7.97072 5.73381
H 6.59082 6.29379 6.37555
H 7.80305 6.54691 9.22432
H 6.76852 5.14992 8.58153
10
 Atoms. Timestep: 240
C 7.8941 9.18607 7.51229
C 7.70946 7.99939 6.84843
C 7.19227 6.70475 7.19273
C 7.20065 6.1015 8.37842
H 8.32746 9.99277 6.92965
H 7.66883 9.17302 8.59819
H 7.93716 8.17287 5.77915
H 6.61404 6.21319 6.37456
H 7.83492 6.60309 9.13124
H 6.76269 5.1148 8.48498
10
 Atoms. Timestep: 260
C 7.86781 9.15547 7.53031
C 7.74256 8.04466 6.80712
C 7.16494 6.74021 7.19074
C 7.23039 6.0635 8.3654
H 8.23082 10.0533 7.0752
H 7.6646 9.32615 8.56699
H 7.97734 8.16888 5.75682
H 6.73051 6.11206 6.35008
H 7.73909 6.46942 9.22812
H 6.74743 5.06719 8.5504
10
 Atoms. Timestep: 280
C 7.86944 9.20017 7.55479
C 7.73496 8.0706 6.77129
C 7.16272 6.70875 7.19836
C 7.25664 6.0292 8.36501
H 8.22009 10.1812 7.10334
H 7.54749 9.29404 8.61613
H 8.01564 8.04237 5.69777
H 6.80237 6.21746 6.3366
H 7.63122 6.37332 9.32964
H 6.76464 5.05924 8.46881
10
 Atoms. Timestep: 300
C 7.84373 9.16418 7.53276
C 7.70066 8.06597 6.83545
C 7.24264 6.75189 7.19229
C 7.24252 6.05465 8.35143
H 8.22731 10.0837 7.14992
H 7.44309 9.09009 8.54774
H 8.0401 8.08161 5.79029
H 6.7516 6.21969 6.34607
H 7.63675 6.45154 9.31263
H 6.84783 5.07318 8.27081
10
 Atoms. Timestep: 320
C 7.78584 9.1924 7.56918
C 7.73159 8.05078 6.8127
C 7.26143 6.74121 7.2009
C 7.22265 6.04979 8.33017
H 8.26561 10.0672 7.18377
H 7.42668 9.12921 8.59165
H 8.05987 8.18448 5.78915
H 6.79763 6.18407 6.34166
H 7.67137 6.46023 9.22626
H 6.89385 4.98969 8.27886
10
 Atoms. Timestep: 340
C 7.73959 9.19125 7.60127
C 7.7866 8.11977 6.80897
C 7.21593 6.68726 7.13451
C 7.24136 6.0113 8.33562
H 8.22613 10.1377 7.23775
H 7.43566 9.31858 8.65261
H 8.092 8.18409 5.74846
H 6.92165 6.16707 6.25948
H 7.68319 6.38476 9.24797
H 6.86448 4.97028 8.46053
10
 Atoms. Timestep: 360
C 7.75408 9.2025 7.62294
C 7.74291 8.05822 6.86782
C 7.24672 6.70006 7.10812
C 7.26996 6.02358 8.28687
H 8.09308 10.1672 7.21924
H 7.33352 9.24016 8.64123
H 8.17131 8.23171 5.85153
H 6.94154 6.14279 6.18561
H 7.6724 6.46355 9.22311
H 6.83019 5.06845 8.45375
10
 Atoms. Timestep: 380
C 7.74124 9.19737 7.63628
C 7.72355 8.06709 6.91532
C 7.30985 6.70457 7.12108
C 7.27951 6.02337 8.25509
H 8.0292 10.0946 7.18233
H 7.23519 9.12334 8.58567
H 8.17915 8.18047 5.95187
H 6.89376 6.2004 6.20579
H 7.65612 6.61839 9.10809
H 6.80563 5.04841 8.28857
10
 Atoms. Timestep: 400
C 7.66643 9.20531 7.65918
C 7.79112 8.10639 6.87536
C 7.30884 6.6966 7.10991
C 7.27536 5.98486 8.26624
H 8.07044 10.1626 7.23994
H 7.18834 9.25249 8.66398
H 8.1905 8.1685 5.85218
H 6.93863 6.27923 6.20988
H 7.61184 6.45331 9.17176
H 6.87374 4.9449 8.28714
10
 Atoms. Timestep: 420
C 7.6122 9.19254 7.63811
C 7.82034 8.10073 6.86714
C 7.30286 6.73429 7.12016
C 7.2711 5.98447 8.25083
H 8.06834 10.1886 7.40661
H 7.18369 9.27755 8.63509
H 8.24731 8.32583 5.84898
H 7.00844 6.2164 6.17773
H 7.59195 6.19576 9.274
H 6.98528 4.94365 8.28913
10
 Atoms. Timestep: 440
C 7.61303 9.21314 7.64236
C 7.78399 8.12401 6.89371
C 7.33133 6.75392 7.13578
C 7.27736 5.96883 8.24093
H 8.0278 10.1408 7.35605
H 7.06642 9.02746 8.55879
H 8.31996 8.30838 5.97889
H 7.07302 6.15189 6.22164
H 7.64378 6.29059 9.26471
H 6.9588 4.94148 8.03223
10
 Atoms. Timestep: 460
C 7.5946 9.19779 7.70044
C 7.7738 8.12412 6.88873
C 7.36954 6.74039 7.12669
C 7.30338 5.97908 8.21177
H 7.93759 10.1708 7.37265
H 6.91055 9.03425 8.57984
H 8.38602 8.15503 5.9852
H 7.11776 6.26799 6.21777
H 7.59233 6.36721 9.16144
H 6.93184 4.9765 8.00634
10
 Atoms. Timestep: 480
C 7.53948 9.1806 7.70605
C 7.82114 8.13196 6.92778
C 7.38307 6.73956 7.05844
C 7.3182 5.94335 8.19155
H 7.85672 10.2486 7.52528
H 6.90229 9.23782 8.5799
H 8.40273 8.24753 5.96541
H 7.11784 6.29412 6.06433
H 7.52954 6.31226 9.18736
H 6.9436 4.90691 8.26381
10
 Atoms. Timestep: 500
C 7.47684 9.22517 7.71234
C 7.86558 8.13965 6.97293
C 7.37986 6.6677 7.05551
C 7.31014 5.94497 8.14077
H 7.9327 10.1923 7.46652
H 6.86984 9.11861 8.59993
H 8.39824 8.4976 6.09455
H 7.15598 6.24574 6.04148
H 7.57786 6.39544 9.14716
H 6.99485 4.90536 8.25007
10
 Atoms. Timestep: 520
C 7.45076 9.18587 7.73382
C 7.8308 8.13692 7.00404
C 7.42943 6.72589 7.00383
C 7.30244 5.96175 8.16672
H 7.88453 10.098 7.45425
H 6.79003 9.02074 8.61543
H 8.48807 8.42193 6.18771
H 7.20545 6.19396 6.102
H 7.65149 6.49635 9.04775
H 7.02382 4.9264 8.03139
10
 Atoms. Timestep: 540
C 7.43093 9.1972 7.76515
C 7.80417 8.1344 6.96213
C 7.45136 6.73443 7.06038
C 7.33734 5.95503 8.10444
H 7.77812 10.241 7.60735
H 6.67551 9.11721 8.57505
H 8.61003 8.22718 6.17615
H 7.30404 6.29005 6.06021
H 7.5752 6.30206 9.09064
H 7.03833 4.91604 8.02695
10
 Atoms. Timestep: 560
C 7.41397 9.20651 7.73461
C 7.82456 8.21617 6.99019
C 7.43584 6.74632 7.05995
C 7.37427 5.87437 8.10762
H 7.76476 10.2782 7.70003
H 6.62531 9.09832 8.42474
H 8.55763 8.33313 6.19942
H 7.38244 6.34203 6.00572
H 7.44657 6.11352 9.21795
H 7.05551 4.79458 7.98694
10
 Atoms. Timestep: 580
C 7.35294 9.17512 7.76787
C 7.88128 8.16079 7.00374
C 7.45612 6.77893 7.06587
C 7.35729 5.92019 8.08744
H 7.81031 10.1283 7.61947
H 6.49064 8.95374 8.43739
H 8.53684 8.57464 6.2242
H 7.37235 6.29691 6.12187
H 7.42783 6.14399 9.13743
H 7.20025 4.91229 7.79913
10
 Atoms. Timestep: 600
C 7.30821 9.15977 7.77051
C 7.87569 8.19368 7.05541
C 7.52813 6.78015 7.03357
C 7.32688 5.90266 8.06836
H 7.67592 10.1451 7.64899
H 6.50611 8.95249 8.52009
H 8.6133 8.49806 6.2782
H 7.38198 6.2756 6.0635
H 7.49189 6.2548 9.0768
H 7.22139 4.87642 7.73426
10
 Atoms. Timestep: 620
C 7.26954 9.21078 7.79028
C 7.8614 8.21666 7.07122
C 7.56951 6.71054 7.01494
C 7.34866 5.88016 8.00125
H 7.47441 10.3261 7.74417
H 6.55631 8.99287 8.55304
H 8.68048 8.3851 6.39535
H 7.52688 6.43346 5.91709
H 7.50218 6.20012 9.06196
H 7.08907 4.77344 7.95128
10
 Atoms. Timestep: 640
C 7.24911 9.14765 7.82901
C 7.85591 8.18669 7.10041
C 7.587 6.76472 6.95519
C 7.37702 5.90095 7.99646
H 7.43979 10.2209 7.69647
H 6.45971 8.91354 8.53647
H 8.68533 8.52967 6.44486
H 7.65952 6.42893 5.93282
H 7.4419 6.23794 9.02723
H 7.02354 4.88897 7.96467
10
 Atoms. Timestep: 660
C 7.20829 9.13045 7.86256
C 7.88366 8.21529 7.12156
C 7.60099 6.77394 6.96994
C 7.39222 5.87849 7.98975
H 7.5636 10.1123 7.68675
H 6.29976 8.81082 8.45791
H 8.59919 8.71105 6.41851
H 7.68968 6.32609 5.98706
H 7.38579 6.37494 8.956
H 7.07496 4.89573 7.71986
10
 Atoms. Timestep: 680
C 7.17777 9.15997 7.8489
C 7.87112 8.25502 7.1177
C 7.65087 6.7523 7.01588
C 7.39311 5.85748 7.93604
H 7.50182 10.2086 7.90781
H 6.28799 8.90128 8.41285
H 8.59468 8.64383 6.42929
H 7.68847 6.35688 5.95038
H 7.2773 6.1731 9.01961
H 7.21648 4.78765 7.65792
10
 Atoms. Timestep: 700
C 7.16264 9.14773 7.83647
C 7.83202 8.24116 7.1075
C 7.69011 6.8187 6.99135
C 7.3659 5.85946 7.93953
H 7.36957 10.2244 8.04396
H 6.31886 8.90915 8.43702
H 8.7102 8.53462 6.50419
H 7.79989 6.4928 5.96026
H 7.22767 5.86734 9.00963
H 7.39383 4.78939 7.6849
10
 Atoms. Timestep: 720
C 7.12002 9.1328 7.87332
C 7.84618 8.27364 7.12118
C 7.6462 6.80471 7.02135
C 7.38138 5.84869 7.90081
H 7.45135 10.1727 7.85913
H 6.26285 8.69369 8.45976
H 8.76887 8.63367 6.58936
H 7.98401 6.4823 6.04747
H 7.20259 6.00684 8.94824
H 7.49175 4.87177 7.48506
10
 Atoms. Timestep: 740
C 7.10222 9.10016 7.88468
C 7.86826 8.28144 7.18762
C 7.66388 6.84394 6.99614
C 7.40924 5.82152 7.86159
H 7.33374 10.1343 7.82836
H 6.2283 8.7322 8.44263
H 8.64442 8.75646 6.62998
H 8.09263 6.37353 6.05209
H 7.11018 6.14876 8.9048
H 7.45309 4.79234 7.45096
10
 Atoms. Timestep: 760
C 7.05054 9.11696 7.91845
C 7.87688 8.24325 7.21761
C 7.78643 6.79276 6.95622
C 7.40813 5.85907 7.81834
H 7.14969 10.2206 7.96033
H 6.1662 8.84623 8.45411
H 8.61622 8.76165 6.58285
H 8.0716 6.54421 5.9358
H 7.04465 5.98692 8.82965
H 7.34381 4.78815 7.66259
10
 Atoms. Timestep: 780
C 7.01733 9.10113 7.926
C 7.82123 8.30148 7.24414
C 7.88397 6.78504 6.94291
C 7.37779 5.82214 7.81422
H 7.20371 10.2023 7.95689
H 6.13623 8.73323 8.48267
H 8.65721 8.72101 6.62646
H 8.1167 6.62423 5.89645
H 7.07749 6.12692 8.81343
H 7.33075 4.75359 7.54947
10
 Atoms. Timestep: 800
C 6.98415 9.0667 7.93788
C 7.83858 8.26701 7.20554
C 7.83273 6.83562 7.01697
C 7.40497 5.84599 7.75228
H 7.2384 10.0946 7.94391
H 6.1408 8.60913 8.50116
H 8.63906 8.86435 6.77886
H 8.27214 6.51755 6.02189
H 7.11555 6.21814 8.75426
H 7.35546 4.82437 7.4129
10
 Atoms. Timestep: 820
C 6.98235 9.05683 7.92597
C 7.84227 8.31303 7.23916
C 7.81646 6.87699 6.95868
C 7.42456 5.81133 7.76785
H 7.12431 10.1162 8.05658
H 6.13672 8.65706 8.44763
H 8.655 8.85929 6.76506
H 8.40594 6.51552 6.11627
H 6.98839 5.92915 8.77647
H 7.4198 4.79371 7.37698
10
 Atoms. Timestep: 840
C 6.95619 9.0933 7.9517
C 7.85893 8.34757 7.25304
C 7.83338 6.8165 6.9767
C 7.42445 5.80903 7.75067
H 7.05278 10.2141 8.13744
H 6.04485 8.63686 8.3701
H 8.71356 8.79321 6.68953
H 8.37991 6.65184 6.05407
H 6.88575 5.72996 8.68138
H 7.60954 4.79568 7.36385
10
 Atoms. Timestep: 860
C 6.9643 9.04188 7.95208
C 7.8335 8.30914 7.26226
C 7.8635 6.90695 7.04401
C 7.41086 5.80325 7.69259
H 7.05693 10.1005 8.07754
H 6.03799 8.58667 8.31822
H 8.67615 8.8233 6.79478
H 8.29442 6.63034 6.03221
H 6.83827 5.87276 8.63782
H 7.78726 4.83915 7.32278
10
 Atoms. Timestep: 880
C 6.91146 9.03348 7.95805
C 7.83791 8.32045 7.28782
C 7.87167 6.88445 7.02259
C 7.42877 5.80337 7.65654
H 7.08789 10.0781 8.01997
H 6.03926 8.54693 8.3839
H 8.66939 8.90723 6.91098
H 8.42611 6.66374 6.12456
H 6.90433 5.95121 8.59709
H 7.69821 4.82229 7.30253
10
 Atoms. Timestep: 900
C 6.86077 9.04487 7.96009
C 7.83454 8.34259 7.33895
C 7.93062 6.85271 6.92726
C 7.44447 5.7948 7.6684
H 6.98574 10.1598 8.08743
H 5.98698 8.60859 8.46405
H 8.69275 8.91164 6.92848
H 8.62383 6.69877 6.11917
H 6.92335 5.86449 8.62252
H 7.489 4.76682 7.29915
10
 Atoms. Timestep: 920
C 6.85805 9.01391 7.97138
C 7.82355 8.29271 7.34631
C 7.97132 6.88865 6.96694
C 7.45987 5.83427 7.63078
H 6.88789 10.0881 8.14343
H 5.93321 8.61411 8.39693
H 8.64417 8.9145 6.95538
H 8.63121 6.66939 6.05213
H 6.91803 5.95995 8.58106
H 7.43277 4.7968 7.26763
10
 Atoms. Timestep: 940
C 6.83498 9.00477 7.99735
C 7.82001 8.31442 7.34416
C 7.98989 6.89381 7.03158
C 7.4588 5.80715 7.59517
H 6.98705 10.0588 8.10785
H 5.91988 8.46477 8.2519
H 8.6365 8.92774 6.98396
H 8.47691 6.74607 6.07471
H 6.90284 6.09576 8.49082
H 7.57878 4.80589 7.17026
10
 Atoms. Timestep: 960
C 6.83144 8.986 7.97738
C 7.83374 8.36649 7.37632
C 7.97312 6.91204 6.99997
C 7.45764 5.78326 7.59629
H 6.92971 10.0643 8.14979
H 5.89975 8.46089 8.23485
H 8.69422 8.95046 7.02375
H 8.52888 6.81667 6.08721
H 6.82505 5.82467 8.49919
H 7.67081 4.8163 7.19443
10
 Atoms. Timestep: 980
C 6.81085 9.00672 7.95745
C 7.87608 8.33547 7.38545
C 7.90683 6.93237 6.98611
C 7.47982 5.80693 7.58237
H 6.75628 10.0781 8.24487
H 5.8931 8.51633 8.28813
H 8.74644 8.98145 7.1206
H 8.67208 6.75697 6.1522
H 6.85629 5.57636 8.44346
H 7.75834 4.82187 7.17145
10
 Atoms. Timestep: 1000
C 6.80621 8.99612 7.95334
C 7.82101 8.37151 7.42123
C 7.91409 6.94085 7.00971
C 7.49207 5.78121 7.54779
H 6.83911 10.0383 8.20691
H 5.92345 8.43341 8.21187
H 8.75171 8.87403 7.19622
H 8.6372 6.71578 6.22717
H 6.858 5.71876 8.45066
H 7.91421 4.90165 7.00375
10
 Atoms. Timestep: 1020
C 6.75748 8.96782 7.9889
C 7.82808 8.325 7.41212
C 7.97705 6.95468 7.04222
C 7.49685 5.80292 7.51176
H 6.91478 10.0327 8.18355
H 5.80903 8.39079 8.11088
H 8.75019 8.90432 7.2395
H 8.59106 6.89325 6.17276
H 6.86694 5.79439 8.39096
H 7.83528 4.90199 7.06138
10
 Atoms. Timestep: 1040
C 6.75194 8.94182 7.97788
C 7.80992 8.3375 7.47852
C 8.05696 6.9538 6.99547
C 7.51211 5.78822 7.49947
H 6.75596 9.9978 8.26163
H 5.74371 8.56412 8.09243
H 8.65519 9.01472 7.28367
H 8.6909 6.97477 6.03499
H 6.84977 5.76735 8.37591
H 7.64288 4.77325 7.1323
10
 Atoms. Timestep: 1060
C 6.67733 8.96619 7.98273
C 7.83423 8.33825 7.52508
C 8.06245 6.9058 6.95242
C 7.55268 5.81061 7.47134
H 6.73112 10.0208 8.30888
H 5.7056 8.48325 8.10076
H 8.65266 9.05733 7.38753
H 8.7675 6.84468 6.12751
H 6.91379 5.91884 8.35776
H 7.59319 4.7701 7.01715
10
 Atoms. Timestep: 1080
C 6.68295 8.90273 7.97179
C 7.80334 8.32534 7.52472
C 8.06193 6.99786 6.95827
C 7.52773 5.83241 7.46556
H 6.74018 9.92245 8.28314
H 5.75782 8.31466 8.05957
H 8.72386 8.92097 7.52927
H 8.79262 6.80979 6.19466
H 6.94249 5.9797 8.36869
H 7.71127 4.92237 6.93166
10
 Atoms. Timestep: 1100
C 6.67718 8.92802 7.97429
C 7.81947 8.33826 7.50548
C 8.02193 6.99711 7.01368
C 7.55703 5.80832 7.42425
H 6.62807 9.94506 8.37949
H 5.77552 8.29316 7.94646
H 8.7714 8.88467 7.62719
H 8.78767 7.0483 6.15771
H 6.88652 5.72668 8.29804
H 7.82119 4.89184 6.97388
10
 Atoms. Timestep: 1120
C 6.6822 8.93424 7.95844
C 7.8185 8.40648 7.58181
C 8.00965 6.98041 7.02059
C 7.58599 5.76309 7.39548
H 6.54783 9.90443 8.44774
H 5.73198 8.44455 7.82391
H 8.75386 8.97112 7.59711
H 8.67525 7.10242 6.18827
H 6.83291 5.48534 8.16635
H 8.00418 4.80679 6.92767
10
 Atoms. Timestep: 1140
C 6.63133 8.87265 7.9567
C 7.85027 8.3446 7.6377
C 8.00954 7.05246 7.03486
C 7.58415 5.79588 7.37508
H 6.63773 9.88338 8.39901
H 5.65758 8.42974 7.71984
H 8.7041 9.0411 7.62466
H 8.70103 6.94078 6.19858
H 6.87066 5.5095 8.11748
H 8.10114 5.02196 6.80338
10
 Atoms. Timestep: 1160
C 6.60378 8.88069 7.96745
C 7.77991 8.31493 7.6619
C 8.05587 7.03835 7.0376
C 7.6117 5.82261 7.32326
H 6.62387 9.89764 8.31984
H 5.69189 8.31416 7.73938
H 8.67226 8.94418 7.80427
H 8.89695 7.02599 6.24171
H 6.95622 5.62462 8.17061
H 7.97519 5.07399 6.67195
10
 Atoms. Timestep: 1180
C 6.57274 8.89603 7.96248
C 7.74752 8.3226 7.68314
C 8.15775 7.0298 7.01564
C 7.64056 5.80263 7.26522
H 6.43089 9.91146 8.335
H 5.64746 8.33524 7.8401
H 8.65182 8.83676 7.99628
H 8.93065 7.29185 6.33193
H 6.98159 5.6897 8.16998
H 7.77018 4.84869 6.65682
10
 Atoms. Timestep: 1200
C 6.52865 8.81042 7.94742
C 7.79345 8.29235 7.73226
C 8.19168 7.06741 7.02452
C 7.63645 5.86161 7.22444
H 6.39196 9.80267 8.40971
H 5.55303 8.34295 7.76494
H 8.6419 8.92534 8.06353
H 8.94535 7.27577 6.27423
H 6.94444 5.7845 8.03563
H 7.74596 4.89805 6.76916
10
 Atoms. Timestep: 1220
C 6.51264 8.79965 7.96879
C 7.75335 8.31621 7.7983
C 8.18557 7.09723 7.01914
C 7.6487 5.83234 7.2124
H 6.47339 9.72149 8.55652
H 5.6676 8.25254 7.52502
H 8.55897 9.02534 8.04335
H 8.99952 7.09322 6.20438
H 6.82309 5.87323 7.93836
H 7.99986 4.98159 6.62959
10
 Atoms. Timestep: 1240
C 6.5137 8.82482 8.00088
C 7.75474 8.33307 7.76358
C 8.139 7.06114 7.02724
C 7.69404 5.85255 7.18852
H 6.29679 9.66919 8.63299
H 5.72115 8.30023 7.46241
H 8.56207 8.9664 8.14014
H 9.00446 7.20492 6.40649
H 6.77356 5.58004 7.79687
H 8.15711 5.06971 6.56877
10
 Atoms. Timestep: 1260
C 6.52242 8.79032 7.98511
C 7.75409 8.35283 7.74157
C 8.12526 7.15976 7.0783
C 7.68088 5.81861 7.14076
H 6.1832 9.62942 8.60446
H 5.60066 8.38556 7.56172
H 8.65454 8.75442 8.22633
H 9.06666 7.32961 6.55264
H 6.89294 5.32768 7.68953
H 8.23018 5.06422 6.57991
10
 Atoms. Timestep: 1280
C 6.45429 8.78757 7.97466
C 7.72485 8.35265 7.81485
C 8.12705 7.09412 7.09417
C 7.71541 5.86015 7.06497
H 6.38526 9.70252 8.6132
H 5.5893 8.2587 7.53859
H 8.62254 8.82503 8.28236
H 9.10916 7.2568 6.56049
H 6.93022 5.44905 7.65755
H 8.35792 5.16103 6.54494
10
 Atoms. Timestep: 1300
C 6.46791 8.76274 7.98172
C 7.68279 8.25888 7.8794
C 8.2069 7.14719 7.10752
C 7.72889 5.87679 7.02866
H 6.34019 9.69197 8.50802
H 5.63095 8.24739 7.55156
H 8.37111 9.00339 8.26377
H 9.10957 7.24292 6.51476
H 6.79202 5.60473 7.62156
H 8.36122 5.15602 6.44561
10
 Atoms. Timestep: 1320
C 6.41478 8.72954 7.9931
C 7.70792 8.23729 7.90987
C 8.28254 7.13563 7.11098
C 7.75137 5.91013 7.01432
H 6.16062 9.68078 8.43338
H 5.5159 8.2647 7.55625
H 8.42815 8.9925 8.28044
H 9.17553 7.46662 6.58124
H 6.81091 5.63374 7.46489
H 8.09321 5.10609 6.40314
10
 Atoms. Timestep: 1340
C 6.37545 8.70017 7.99958
C 7.66666 8.31952 7.90856
C 8.3046 7.13558 7.14068
C 7.77213 5.8841 6.96214
H 6.14245 9.67179 8.49307
H 5.53917 8.14644 7.53294
H 8.54737 8.82229 8.35318
H 9.26882 7.51115 6.69345
H 6.83516 5.74192 7.47407
H 8.078 5.09018 6.27657
10
 Atoms. Timestep: 1360
C 6.39227 8.67462 8.00252
C 7.68235 8.29258 7.86486
C 8.25794 7.16552 7.1666
C 7.77254 5.95248 6.92694
H 6.10064 9.52876 8.59466
H 5.66314 8.05773 7.50381
H 8.37694 8.89195 8.47788
H 9.26884 7.29101 6.79929
H 6.8138 5.72761 7.48466
H 8.27005 5.21182 6.26324
10
 Atoms. Timestep: 1380
C 6.38154 8.69121 8.00927
C 7.68485 8.30336 7.91433
C 8.26525 7.17773 7.14396
C 7.76195 5.93058 6.90148
H 6.02399 9.42668 8.72055
H 5.62386 8.11797 7.45921
H 8.33101 8.97928 8.44508
H 9.31048 7.27339 6.84501
H 6.82413 5.5112 7.24062
H 8.44891 5.29417 6.3643
10
 Atoms. Timestep: 1400
C 6.35607 8.67644 8.02053
C 7.64894 8.34429 7.96693
C 8.25374 7.16433 7.15247
C 7.80886 5.90721 6.86436
H 6.02763 9.42696 8.75569
H 5.52989 8.23737 7.42873
H 8.48816 8.92207 8.4008
H 9.29936 7.42201 6.8599
H 6.84469 5.43148 6.98979
H 8.52866 5.22644 6.42833
10
 Atoms. Timestep: 1420
C 6.35313 8.63119 8.0475
C 7.64956 8.26838 7.91144
C 8.20631 7.19876 7.20743
C 7.86386 5.97366 6.83987
H 6.07433 9.50151 8.64617
H 5.569 8.20285 7.43801
H 8.41988 8.84033 8.5057
H 9.22704 7.43917 6.92179
H 6.81783 5.57068 6.92893
H 8.57874 5.23354 6.41092
10
 Atoms. Timestep: 1440
C 6.3368 8.62574 8.052
C 7.5924 8.24335 7.94279
C 8.28443 7.19445 7.18697
C 7.85283 5.98252 6.80257
H 6.11147 9.55706 8.56363
H 5.58773 8.07742 7.49799
H 8.24618 8.79762 8.56826
H 9.33944 7.42162 7.03437
H 6.82639 5.71347 7.01001
H 8.614 5.37648 6.30875
10
 Atoms. Timestep: 1460
C 6.267 8.62292 8.01158
C 7.60626 8.22986 8.01801
C 8.37675 7.18882 7.18884
C 7.85618 6.01687 6.76365
H 5.99915 9.51516 8.59255
H 5.4259 8.05536 7.54359
H 8.28919 8.88415 8.59246
H 9.45702 7.41106 7.09107
H 6.86967 5.66754 7.00371
H 8.44593 5.33588 6.17314
10
 Atoms. Timestep: 1480
C 6.29414 8.57749 7.99917
C 7.58989 8.22623 8.02591
C 8.36695 7.20992 7.27681
C 7.90116 6.04774 6.71909
H 5.8912 9.3583 8.62627
H 5.4504 8.11516 7.49866
H 8.27128 8.94932 8.55794
H 9.42134 7.4219 7.04602
H 6.842 5.73005 6.9754
H 8.33496 5.27692 6.05883
10
 Atoms. Timestep: 1500
C 6.27047 8.56126 8.04056
C 7.59774 8.24474 7.99721
C 8.32569 7.16591 7.28583
C 7.90697 6.04394 6.711
H 5.93868 9.3656 8.72615
H 5.65323 8.01114 7.3206
H 8.19314 8.89702 8.6004
H 9.33726 7.53771 7.10729
H 6.85792 5.87519 6.88822
H 8.53856 5.43821 6.03874
10
 Atoms. Timestep: 1520
C 6.28177 8.53301 8.05483
C 7.57747 8.25467 8.01721
C 8.31688 7.23045 7.25731
C 7.89174 6.04002 6.70272
H 5.88661 9.32043 8.67541
H 5.6438 8.01466 7.31613
H 8.26473 8.782 8.68955
H 9.38984 7.48573 7.19424
H 6.8617 5.70539 6.68742
H 8.67014 5.5629 6.13382
10
 Atoms. Timestep: 1540
C 6.25145 8.55654 8.04797
C 7.59758 8.2324 8.07656
C 8.28311 7.26354 7.21564
C 7.95139 6.07953 6.66681
H 5.76315 9.29869 8.66879
H 5.49166 8.08124 7.42898
H 8.29551 8.76176 8.80454
H 9.36673 7.32617 7.21125
H 6.98248 5.51236 6.52503
H 8.72335 5.44769 6.20852
10
 Atoms. Timestep: 1560
C 6.26866 8.55388 8.04574
C 7.53297 8.22354 8.10864
C 8.27334 7.23369 7.2258
C 7.98227 6.08829 6.59457
H 5.86664 9.29706 8.76487
H 5.54478 8.05576 7.41069
H 8.15549 8.74287 8.79267
H 9.36673 7.43574 7.2269
H 7.00005 5.62044 6.54104
H 8.84689 5.47173 6.3043
10
 Atoms. Timestep: 1580
C 6.2401 8.5012 8.04009
C 7.54566 8.15134 8.06065
C 8.30717 7.24428 7.30155
C 7.96393 6.13808 6.59463
H 5.96536 9.26115 8.77549
H 5.58248 8.04031 7.28082
H 8.11925 8.72912 8.80392
H 9.33271 7.62192 7.27625
H 6.96601 5.77589 6.55569
H 8.81703 5.58223 6.21529
10
 Atoms. Timestep: 1600
C 6.19744 8.48 8.04435
C 7.50403 8.14769 8.08399
C 8.38515 7.24283 7.31307
C 8.02487 6.15905 6.60898
H 5.78916 9.22154 8.69768
H 5.49367 8.1476 7.29028
H 8.15879 8.68036 8.8381
H 9.42797 7.54706 7.296
H 6.93826 5.85298 6.563
H 8.64729 5.59306 5.90161
10
 Atoms. Timestep: 1620
C 6.16788 8.47717 8.03136
C 7.4927 8.15879 8.1453
C 8.43259 7.24301 7.28462
C 8.05257 6.15798 6.57521
H 5.66359 9.19928 8.71651
H 5.45499 8.12132 7.27812
H 8.02258 8.66287 8.91756
H 9.52731 7.44019 7.34718
H 6.98526 5.92157 6.63829
H 8.59583 5.65302 5.77246
10
 Atoms. Timestep: 1640
C 6.19154 8.438 7.99883
C 7.51392 8.12043 8.14789
C 8.40878 7.27527 7.31026
C 8 6.22798 6.53984
H 5.75798 9.08473 8.75683
H 5.59044 7.98368 7.19385
H 7.93059 8.64798 9.02728
H 9.47254 7.52197 7.39408
H 6.98693 5.90654 6.62783
H 8.69999 5.70508 5.90822
10
 Atoms. Timestep: 1660
C 6.1971 8.45574 8.02975
C 7.47885 8.10839 8.15907
C 8.3399 7.2929 7.33245
C 8.05693 6.23196 6.48722
H 5.69527 9.02471 8.79173
H 5.69913 8.01658 7.17481
H 8.05553 8.53371 9.04527
H 9.37053 7.63238 7.36358
H 7.00237 5.83622 6.45347
H 8.86452 5.64243 6.00924
10
 Atoms. Timestep: 1680
C 6.18153 8.46004 8.06482
C 7.47445 8.11222 8.22245
C 8.28696 7.27124 7.26904
C 8.12543 6.23337 6.49798
H 5.55269 9.02216 8.76902
H 5.5985 8.19531 7.1661
H 8.09663 8.42143 9.01475
H 9.32807 7.63498 7.34659
H 7.18076 5.77415 6.20258
H 8.95713 5.71077 6.06421
10
 Atoms. Timestep: 1700
C 6.18365 8.40497 8.04978
C 7.46366 8.06661 8.21629
C 8.29107 7.35951 7.28511
C 8.09788 6.22828 6.49149
H 5.65905 9.01964 8.79365
H 5.60102 8.26841 7.13587
H 7.99431 8.39791 9.13636
H 9.37207 7.55106 7.37603
H 7.21366 5.71794 6.12608
H 9.06631 5.90878 6.06498
10
 Atoms. Timestep: 1720
C 6.14553 8.40243 8.03971
C 7.43195 8.03275 8.20131
C 8.33711 7.31956 7.2846
C 8.12319 6.30575 6.47832
H 5.77716 8.97534 8.88589
H 5.67596 8.19584 7.08426
H 7.82611 8.34775 9.23477
H 9.37534 7.58989 7.439
H 7.19665 5.7643 6.28085
H 9.04617 5.98392 5.94058
10
 Atoms. Timestep: 1740
C 6.1489 8.41103 8.02789
C 7.39006 7.99314 8.22021
C 8.38651 7.3078 7.3664
C 8.18538 6.3432 6.40946
H 5.57052 8.90912 8.83104
H 5.5614 8.21964 7.12287
H 7.83551 8.22035 9.1374
H 9.40866 7.74708 7.44674
H 7.17309 5.91053 6.46378
H 8.90969 5.8823 5.74338
10
 Atoms. Timestep: 1760
C 6.11462 8.38095 7.99261
C 7.41588 7.92243 8.25319
C 8.4444 7.31758 7.36129
C 8.18156 6.40801 6.43144
H 5.46356 8.81422 8.73595
H 5.53176 8.26548 7.06211
H 7.8738 8.18842 9.23434
H 9.39476 7.83233 7.49034
H 7.15478 6.01644 6.43743
H 8.7666 5.92924 5.69771
10
 Atoms. Timestep: 1780
C 6.10163 8.33493 8.013
C 7.36765 7.91617 8.26909
C 8.44666 7.39398 7.33951
C 8.17362 6.38053 6.42297
H 5.53222 8.77323 8.82506
H 5.80062 8.24088 6.96858
H 7.70921 8.14737 9.33951
H 9.47891 7.75266 7.50031
H 7.12156 6.09059 6.3356
H 8.94411 6.06167 5.65249
10
 Atoms. Timestep: 1800
C 6.11649 8.30381 8.0382
C 7.37601 7.94449 8.30224
C 8.35011 7.38989 7.30368
C 8.23379 6.42538 6.4131
H 5.46102 8.71895 8.83104
H 5.84006 8.31221 6.97067
H 7.62336 7.98436 9.31764
H 9.40986 7.63715 7.48761
H 7.25538 6.02483 6.17451
H 9.07589 6.16108 5.76424
10
 Atoms. Timestep: 1820
C 6.10804 8.32982 8.0377
C 7.38259 7.92394 8.31987
C 8.30016 7.38071 7.35691
C 8.27176 6.46339 6.33177
H 5.34417 8.614 8.76837
H 5.63963 8.42254 7.05734
H 7.81295 7.82642 9.35733
H 9.31492 7.746 7.54479
H 7.42499 5.83756 5.97853
H 9.21203 6.18626 5.9051
10
 Atoms. Timestep: 1840
C 6.09981 8.34221 8.04589
C 7.29714 7.84941 8.31598
C 8.33181 7.35159 7.35333
C 8.27953 6.53006 6.30928
H 5.44709 8.52874 8.86798
H 5.69607 8.42426 7.04604
H 7.81078 7.86117 9.32559
H 9.27696 7.84212 7.60132
H 7.53889 5.83763 5.9116
H 9.30451 6.28645 5.98952
10
 Atoms. Timestep: 1860
C 6.08985 8.28886 8.04594
C 7.29982 7.74589 8.28631
C 8.31956 7.3974 7.37671
C 8.33322 6.57958 6.33312
H 5.50597 8.62373 8.95415
H 5.78016 8.39284 6.99212
H 7.48591 7.89301 9.31184
H 9.33689 7.78857 7.61181
H 7.45713 6.04368 5.98408
H 9.30328 6.4078 5.78252
10
 Atoms. Timestep: 1880
C 6.06679 8.21296 8.00656
C 7.26332 7.7176 8.32759
C 8.40548 7.42772 7.40051
C 8.37408 6.60777 6.31487
H 5.45529 8.72058 8.75188
H 5.66987 8.42013 7.02601
H 7.46765 7.69746 9.44798
H 9.37273 7.80642 7.73346
H 7.362 6.24894 6.05791
H 9.13843 6.53019 5.57456
10
 Atoms. Timestep: 1900
C 5.98639 8.2136 7.98455
C 7.27658 7.70955 8.35827
C 8.4884 7.39302 7.4414
C 8.36548 6.68917 6.2922
H 5.28774 8.59484 8.71572
H 5.70961 8.35761 6.92139
H 7.59656 7.47333 9.40063
H 9.37957 7.87461 7.83784
H 7.35711 6.31836 6.0539
H 9.09233 6.5692 5.50095
10
 Atoms. Timestep: 1920
C 6.05024 8.18917 8.03355
C 7.24302 7.71338 8.30238
C 8.43476 7.38511 7.48229
C 8.36493 6.78693 6.26893
H 5.18476 8.26376 8.69884
H 5.89744 8.29166 6.93669
H 7.43884 7.50178 9.31425
H 9.43064 7.80022 7.8081
H 7.40052 6.35163 6.02005
H 9.21412 6.56342 5.58817
10
 Atoms. Timestep: 1940
C 6.0272 8.18161 8.02817
C 7.26634 7.67918 8.34913
C 8.37326 7.42703 7.42145
C 8.41947 6.80494 6.24023
H 5.19196 8.02155 8.75776
H 5.83492 8.43399 6.9979
H 7.35301 7.54257 9.4703
H 9.3482 7.63424 7.8541
H 7.49074 6.41199 5.82445
H 9.38754 6.61908 5.75058
10
 Atoms. Timestep: 1960
C 6.01466 8.11131 8.0138
C 7.20984 7.68103 8.39078
C 8.36439 7.46319 7.42863
C 8.4517 6.80562 6.21117
H 5.25149 8.09916 8.77089
H 5.67433 8.57418 7.10202
H 7.5286 7.42265 9.43367
H 9.31739 7.59539 7.9282
H 7.65282 6.47149 5.52528
H 9.45579 6.69019 5.86265
10
 Atoms. Timestep: 1980
C 5.95575 8.06182 8.0679
C 7.241 7.65796 8.31121
C 8.3431 7.42394 7.44487
C 8.48036 6.88065 6.24558
H 5.21441 8.26706 8.84989
H 5.70333 8.54266 7.0555
H 7.47887 7.32734 9.29556
H 9.32927 7.64556 7.9298
H 7.76946 6.57441 5.47005
H 9.50738 6.71679 5.87084
10
 Atoms. Timestep: 2000
C 5.98459 8.0635 8.05672
C 7.17972 7.60246 8.27474
C 8.37496 7.40323 7.47255
C 8.50582 6.96133 6.21664
H 5.29952 8.2646 8.88674
H 5.71852 8.32833 7.05732
H 7.35768 7.31743 9.33211
H 9.29976 7.66247 7.98848
H 7.63684 6.66857 5.63054
H 9.54111 6.79544 5.86992
10
 Atoms. Timestep: 2020
C 5.98355 8.0915 7.97547
C 7.18827 7.50328 8.33731
C 8.41616 7.41 7.5025
C 8.50674 7.02197 6.20178
H 5.29516 8.1651 8.83226
H 5.58719 8.26106 6.99061
H 7.34214 7.36659 9.44439
H 9.29386 7.62322 8.10294
H 7.58365 6.73312 5.71782
H 9.4537 6.91039 5.69864
10
 Atoms. Timestep: 2040
C 5.97221 8.03919 8.0032
C 7.16808 7.51789 8.34217
C 8.43394 7.38176 7.53142
C 8.53708 7.05721 6.21727
H 5.14363 8.12685 8.70044
H 5.64139 8.31045 6.94732
H 7.3351 7.37615 9.38237
H 9.37438 7.57268 8.11029
H 7.59556 6.79531 5.67298
H 9.36608 7.06231 5.51125
10
 Atoms. Timestep: 2060
C 5.91825 7.9665 8.01518
C 7.18627 7.57983 8.31993
C 8.43229 7.3571 7.5272
C 8.52922 7.0778 6.21072
H 5.08226 8.07779 8.69285
H 5.8883 8.35928 7.00353
H 7.32236 7.28711 9.38767
H 9.35637 7.5289 8.07415
H 7.60981 6.88927 5.66289
H 9.46875 7.1903 5.62972
10
 Atoms. Timestep: 2080
C 5.9511 7.93751 7.97216
C 7.19701 7.56505 8.36586
C 8.38751 7.39089 7.51809
C 8.5173 7.12092 6.18731
H 5.13465 7.96404 8.70068
H 5.79949 8.38693 7.00123
H 7.36167 7.20093 9.40904
H 9.3072 7.48434 8.08671
H 7.65655 6.95672 5.56494
H 9.54694 7.14086 5.86585
10
 Atoms. Timestep: 2100
C 5.95468 7.9693 8.01976
C 7.16053 7.49447 8.37517
C 8.34893 7.44297 7.50189
C 8.59101 7.15942 6.18163
H 5.11038 7.85561 8.73143
H 5.61948 8.31382 7.00871
H 7.33717 7.20841 9.38847
H 9.29958 7.45249 8.08384
H 7.81294 7.00887 5.38608
H 9.61361 6.98391 5.81978
10
 Atoms. Timestep: 2120
C 5.92394 7.95557 8.06284
C 7.14005 7.46551 8.30269