LAMMPS (2 Aug 2023 - Update 2)
#13 Butadiene
units           metal
boundary        p p p
atom_style      atomic

neighbor        2.0 bin
neigh_modify    delay 0 every 1 check yes

read_data       restart.lmp
Reading data file ...
  orthogonal box = (0 0 0) to (15 15 15)
  1 by 1 by 3 MPI processor grid
  reading atoms ...
  10 atoms
  reading velocities ...
  10 velocities
  read_data CPU = 0.001 seconds
mass            1 12.0
mass            2 2

variable        sysvol          equal vol
variable        sysmass         equal mass(all)/6.0221367e+23
variable        sysdensity      equal v_sysmass/v_sysvol/1.0e-24
variable	out_freq 	equal 100

pair_style      deepmd ../files/frozen_model_1_compressed.pb ../files/frozen_model_2_compressed.pb ../files/frozen_model_3_compressed.pb ../files/frozen_model_3_compressed.pb out_file md.out out_freq 10 atomic relative 1.0
Summary of lammps deepmd module ...
  >>> Info of deepmd-kit:
  installed to:       /rs1/researchers/w/wjpfaend/rahul/MLP/DeePMD-kit/deepmd_cpu
  source:             v2.2.8-dirty
  source branch:      master
  source commit:      b875ea8
  source commit at:   2024-01-22 22:28:58 -0500
  support model ver.: 1.1 
  build variant:      cpu
  build with tf inc:  /rs1/researchers/w/wjpfaend/rahul/MLP/DeePMD-kit/tensorflow/lib/python3.11/site-packages/tensorflow/include;/rs1/researchers/w/wjpfaend/rahul/MLP/DeePMD-kit/tensorflow/lib/python3.11/site-packages/tensorflow/include
  build with tf lib:  /rs1/researchers/w/wjpfaend/rahul/MLP/DeePMD-kit/tensorflow/lib/python3.11/site-packages/tensorflow/libtensorflow_cc.so.2
  set tf intra_op_parallelism_threads: 0
  set tf inter_op_parallelism_threads: 0
  >>> Info of lammps module:
  use deepmd-kit at:  /rs1/researchers/w/wjpfaend/rahul/MLP/DeePMD-kit/deepmd_cpu
  source:             v2.2.8-dirty
  source branch:      master
  source commit:      b875ea8
  source commit at:   2024-01-22 22:28:58 -0500
  build float prec:   double
  build with tf inc:  /rs1/researchers/w/wjpfaend/rahul/MLP/DeePMD-kit/tensorflow/lib/python3.11/site-packages/tensorflow/include;/rs1/researchers/w/wjpfaend/rahul/MLP/DeePMD-kit/tensorflow/lib/python3.11/site-packages/tensorflow/include
  build with tf lib:  /rs1/researchers/w/wjpfaend/rahul/MLP/DeePMD-kit/tensorflow/lib/python3.11/site-packages/tensorflow/libtensorflow_cc.so.2
pair_coeff	* *

#
velocity        all create 300.0 2345678 rot no dist gaussian
fix             1 all nvt temp 300.0 300.0 0.05
fix             2 all plumed plumedfile plumed.dat outfile PLUMED.log

timestep        0.0005
thermo_style    custom step pe ke etotal v_sysdensity temp press vol
thermo          10

dump            10 all custom 100 btd.dump id type x y z
dump		101 all xyz 20 btd.xyz
dump_modify	101 element C H

fix		extra all print 20 "$(step), $(ke), $(pe), $(etotal), $(temp), $(press), $(vol)" file logfile screen no

restart	        20000 dump.restart

run             50000

CITE-CITE-CITE-CITE-CITE-CITE-CITE-CITE-CITE-CITE-CITE-CITE-CITE

Your simulation uses code contributions which should be cited:

- USER-DEEPMD package:

@article{Wang_ComputPhysCommun_2018_v228_p178,
  author = {Wang, Han and Zhang, Linfeng and Han, Jiequn and E, Weinan},
  doi = {10.1016/j.cpc.2018.03.016},
  url = {https://doi.org/10.1016/j.cpc.2018.03.016},
  year = 2018,
  month = {jul},
  publisher = {Elsevier {BV}},
  volume = 228,
  journal = {Comput. Phys. Commun.},
  title = {{DeePMD-kit: A deep learning package for many-body potential energy representation and molecular dynamics}},
  pages = {178--184}
}
@misc{Zeng_JChemPhys_2023_v159_p054801,
  title  = {{DeePMD-kit v2: A software package for deep potential models}},
  author =   {Jinzhe Zeng and Duo Zhang and Denghui Lu and Pinghui Mo and Zeyu Li
         and Yixiao Chen and Mari{\'a}n Rynik and Li'ang Huang and Ziyao Li and 
         Shaochen Shi and Yingze Wang and Haotian Ye and Ping Tuo and Jiabin
         Yang and Ye Ding and Yifan Li and Davide Tisi and Qiyu Zeng and Han 
         Bao and Yu Xia and Jiameng Huang and Koki Muraoka and Yibo Wang and 
         Junhan Chang and Fengbo Yuan and Sigbj{\o}rn L{\o}land Bore and Chun
         Cai and Yinnian Lin and Bo Wang and Jiayan Xu and Jia-Xin Zhu and 
         Chenxing Luo and Yuzhi Zhang and Rhys E A Goodall and Wenshuo Liang
         and Anurag Kumar Singh and Sikai Yao and Jingchao Zhang and Renata
         Wentzcovitch and Jiequn Han and Jie Liu and Weile Jia and Darrin M
         York and Weinan E and Roberto Car and Linfeng Zhang and Han Wang},
  journal =  {J. Chem. Phys.},
  volume =   159,
  issue =    5,  
  year =    2023,
  pages  =   054801,
  doi =      {10.1063/5.0155600},
}

CITE-CITE-CITE-CITE-CITE-CITE-CITE-CITE-CITE-CITE-CITE-CITE-CITE

Generated 0 of 1 mixed pair_coeff terms from geometric mixing rule
Neighbor list info ...
  update: every = 1 steps, delay = 0 steps, check = yes
  max neighbors/atom: 2000, page size: 100000
  master list distance cutoff = 8
  ghost atom cutoff = 8
  binsize = 4, bins = 4 4 4
  1 neighbor lists, perpetual/occasional/extra = 1 0 0
  (1) pair deepmd, perpetual
      attributes: full, newton on
      pair build: full/bin/atomonly
      stencil: full/bin/3d
      bin: standard
Per MPI rank memory allocation (min/avg/max) = 2.957 | 2.999 | 3.082 Mbytes
   Step         PotEng         KinEng         TotEng      v_sysdensity       Temp          Press          Volume    
         0  -56.472825      0.34900239    -56.123823      0.029520714    300           -3115.047       3375         
        10  -56.541147      0.56980594    -55.971341      0.029520714    489.80117      194.77885      3375         
        20  -56.442307      0.45832413    -55.983983      0.029520714    393.9722       1774.0487      3375         
        30  -56.238747      0.24884931    -55.989898      0.029520714    213.90912      709.40891      3375         
        40  -56.474649      0.49205586    -55.982593      0.029520714    422.96775      512.45348      3375         
        50  -56.578925      0.56841534    -56.01051       0.029520714    488.60582      275.05772      3375         
        60  -56.276246      0.24987737    -56.026368      0.029520714    214.79283     -1090.4742      3375         
        70  -56.401921      0.36715471    -56.034766      0.029520714    315.60361     -1981.6917      3375         
        80  -56.657006      0.59956116    -56.057445      0.029520714    515.37855     -289.47783      3375         
        90  -56.446492      0.34410232    -56.10239       0.029520714    295.78794      2161.1875      3375         
       100  -56.290079      0.21846112    -56.071618      0.029520714    187.78765      1800.0007      3375         
       110  -56.476337      0.36032481    -56.116012      0.029520714    309.73267     -959.3266       3375         
       120  -56.615425      0.4806634     -56.134761      0.029520714    413.17488     -1493.1385      3375         
       130  -56.487978      0.32538651    -56.162592      0.029520714    279.69996      13.411228      3375         
       140  -56.472393      0.29002007    -56.182373      0.029520714    249.29921      366.92341      3375         
       150  -56.543676      0.34582617    -56.19785       0.029520714    297.26975     -450.27911      3375         
       160  -56.552656      0.33389151    -56.218765      0.029520714    287.01079     -102.01875      3375         
       170  -56.463599      0.22498149    -56.238617      0.029520714    193.3925       1192.0014      3375         
       180  -56.57398       0.33338967    -56.24059       0.029520714    286.57941      617.79268      3375         
       190  -56.536803      0.27931581    -56.257487      0.029520714    240.0979      -664.70837      3375         
       200  -56.522003      0.25588838    -56.266115      0.029520714    219.95985     -783.03755      3375         
       210  -56.588972      0.31582847    -56.273143      0.029520714    271.48393     -265.51526      3375         
       220  -56.574227      0.29664299    -56.277584      0.029520714    254.99223      27.784743      3375         
       230  -56.508824      0.22619558    -56.282628      0.029520714    194.43613     -269.75497      3375         
       240  -56.513438      0.22758045    -56.285857      0.029520714    195.62655      383.5226       3375         
       250  -56.576706      0.28802984    -56.288677      0.029520714    247.58843      1962.5058      3375         
       260  -56.607672      0.33427249    -56.2734        0.029520714    287.33828      608.72869      3375         
       270  -56.541286      0.25465678    -56.286629      0.029520714    218.90118     -2224.6593      3375         
       280  -56.476809      0.20300675    -56.273802      0.029520714    174.50317     -1875.8439      3375         
       290  -56.629169      0.35258511    -56.276584      0.029520714    303.07968      303.33824      3375         
       300  -56.571953      0.30034802    -56.271605      0.029520714    258.17705      1340.0191      3375         
       310  -56.411971      0.1447346     -56.267237      0.029520714    124.41284      1278.1059      3375         
       320  -56.61936       0.35792841    -56.261432      0.029520714    307.67274      586.08289      3375         
       330  -56.62395       0.36773262    -56.256218      0.029520714    316.10037     -270.06682      3375         
       340  -56.442488      0.19115426    -56.251334      0.029520714    164.31486     -1207.7499      3375         
       350  -56.492972      0.24541002    -56.247562      0.029520714    210.95273     -1939.9018      3375         
       360  -56.672986      0.42954626    -56.24344       0.029520714    369.23494     -437.04072      3375         
       370  -56.482025      0.24488644    -56.237139      0.029520714    210.50266      2248.9472      3375         
       380  -56.428468      0.2082724     -56.220196      0.029520714    179.02949      1609.0283      3375         
       390  -56.523796      0.3014737     -56.222322      0.029520714    259.14467     -476.73986      3375         
       400  -56.644906      0.43235568    -56.21255       0.029520714    371.6499      -687.8892       3375         
       410  -56.478518      0.27496101    -56.203557      0.029520714    236.35455     -415.69378      3375         
       420  -56.476649      0.27808508    -56.198563      0.029520714    239.03998     -417.89319      3375         
       430  -56.538034      0.34727236    -56.190762      0.029520714    298.51288     -439.59174      3375         
       440  -56.552511      0.37300593    -56.179505      0.029520714    320.63327     -241.00753      3375         
       450  -56.414158      0.23710554    -56.177053      0.029520714    203.81425      1122.887       3375         
       460  -56.526364      0.36233872    -56.164026      0.029520714    311.46382      1111.2868      3375         
       470  -56.554748      0.39910242    -56.155646      0.029520714    343.06563     -255.94148      3375         
       480  -56.497164      0.35108351    -56.14608       0.029520714    301.78892     -541.88106      3375         
       490  -56.49851       0.35891851    -56.139591      0.029520714    308.52383     -389.69901      3375         
       500  -56.468467      0.33875169    -56.129716      0.029520714    291.18857     -887.7805       3375         
       510  -56.477045      0.35245272    -56.124592      0.029520714    302.96588     -530.21798      3375         
       520  -56.413059      0.29187686    -56.121183      0.029520714    250.8953       994.45691      3375         
       530  -56.524151      0.410603      -56.113548      0.029520714    352.95145      1738.7642      3375         
       540  -56.540243      0.45867034    -56.081573      0.029520714    394.2698       723.58293      3375         
       550  -56.470655      0.36864701    -56.102008      0.029520714    316.88637     -1451.0673      3375         
       560  -56.347369      0.27209655    -56.075273      0.029520714    233.89228     -1832.8261      3375         
       570  -56.587163      0.51172798    -56.075435      0.029520714    439.87777     -388.72859      3375         
       580  -56.461266      0.38526493    -56.076001      0.029520714    331.17102      1089.1031      3375         
       590  -56.271555      0.20465634    -56.066898      0.029520714    175.92115      1293.535       3375         
       600  -56.570624      0.51958568    -56.051039      0.029520714    446.6322       701.83463      3375         
       610  -56.595129      0.54196293    -56.053166      0.029520714    465.86752     -193.744        3375         
       620  -56.348319      0.2974841     -56.050835      0.029520714    255.71524     -1636.6816      3375         
       630  -56.341203      0.30100184    -56.040201      0.029520714    258.73907     -1537.7381      3375         
       640  -56.594341      0.53579939    -56.058542      0.029520714    460.56938      876.63129      3375         
       650  -56.382023      0.34928631    -56.032737      0.029520714    300.24406      1789.265       3375         
       660  -56.389128      0.36483449    -56.024294      0.029520714    313.60916      520.8269       3375         
       670  -56.403413      0.37106338    -56.03235       0.029520714    318.96347     -433.87402      3375         
       680  -56.593326      0.56352416    -56.029802      0.029520714    484.4014      -690.64024      3375         
       690  -56.447912      0.41850747    -56.029404      0.029520714    359.74608     -334.47963      3375         
       700  -56.334097      0.3016396     -56.032457      0.029520714    259.28728     -69.812442      3375         
       710  -56.461302      0.42671215    -56.03459       0.029520714    366.79876     -485.44935      3375         
       720  -56.527001      0.48530562    -56.041696      0.029520714    417.16529      233.65807      3375         
       730  -56.33767       0.28871673    -56.048954      0.029520714    248.17887      954.24207      3375         
       740  -56.431296      0.37614448    -56.055152      0.029520714    323.33115      161.53442      3375         
       750  -56.625646      0.55432119    -56.071325      0.029520714    476.4906       155.9361       3375         
       760  -56.469939      0.38389064    -56.086049      0.029520714    329.9897       161.73553      3375         
       770  -56.390176      0.28857216    -56.101604      0.029520714    248.05459     -1054.8356      3375         
       780  -56.428223      0.31309       -56.115133      0.029520714    269.12996     -1148.144       3375         
       790  -56.58299       0.449439      -56.133551      0.029520714    386.3346      -121.41331      3375         
       800  -56.410141      0.2528725     -56.157268      0.029520714    217.36742      1240.7427      3375         
       810  -56.493185      0.33204524    -56.16114       0.029520714    285.42376      1919.11        3375         
       820  -56.61354       0.43798044    -56.175559      0.029520714    376.4849       370.23645      3375         
       830  -56.513678      0.31101657    -56.202662      0.029520714    267.34765     -1926.9502      3375         
       840  -56.437872      0.2256355     -56.212236      0.029520714    193.95469     -1573.9296      3375         
       850  -56.571558      0.34722184    -56.224336      0.029520714    298.46945     -105.50489      3375         
       860  -56.546817      0.30429332    -56.242524      0.029520714    261.5684       688.5963       3375         
       870  -56.413439      0.16775701    -56.245682      0.029520714    144.20275      1546.8576      3375         
       880  -56.66048       0.40622979    -56.25425       0.029520714    349.19227      1089.0756      3375         
       890  -56.605256      0.33857557    -56.26668       0.029520714    291.03718     -715.29527      3375         
       900  -56.522551      0.24604886    -56.276503      0.029520714    211.50187     -1596.6619      3375         
       910  -56.469526      0.18946776    -56.280058      0.029520714    162.86516     -931.26351      3375         
       920  -56.595257      0.30413751    -56.291119      0.029520714    261.43446      331.23619      3375         
       930  -56.568156      0.28490056    -56.283255      0.029520714    244.89851      1325.0192      3375         
       940  -56.524807      0.23539574    -56.289411      0.029520714    202.34453      534.64087      3375         
       950  -56.495         0.20392205    -56.291078      0.029520714    175.28996     -311.52993      3375         
       960  -56.685456      0.3954156     -56.29004       0.029520714    339.89647      26.90944       3375         
       970  -56.613408      0.32421761    -56.289191      0.029520714    278.69517     -116.61429      3375         
       980  -56.442865      0.15697488    -56.285891      0.029520714    134.9345      -748.62522      3375         
       990  -56.5679        0.28295462    -56.284945      0.029520714    243.2258      -426.56646      3375         
      1000  -56.537421      0.26073321    -56.276687      0.029520714    224.12443      222.66958      3375         
      1010  -56.523195      0.25292108    -56.270273      0.029520714    217.40918      310.03616      3375         
      1020  -56.574716      0.31388867    -56.260827      0.029520714    269.81649      739.46319      3375         
      1030  -56.641441      0.39428681    -56.247155      0.029520714    338.92617      856.93195      3375         
      1040  -56.50531       0.28145095    -56.223859      0.029520714    241.93326     -168.50513      3375         
      1050  -56.511214      0.29446633    -56.216747      0.029520714    253.12119     -1367.5116      3375         
      1060  -56.470519      0.27592123    -56.194598      0.029520714    237.17995     -1417.704       3375         
      1070  -56.527533      0.34677551    -56.180757      0.029520714    298.08579     -116.86867      3375         
      1080  -56.461352      0.2961114     -56.165241      0.029520714    254.53527      1672.9897      3375         
      1090  -56.465783      0.34624707    -56.119536      0.029520714    297.63154      1556.3658      3375         
      1100  -56.605837      0.5135218     -56.092315      0.029520714    441.41973     -12.467966      3375         
      1110  -56.479026      0.40948373    -56.069542      0.029520714    351.98934     -662.00063      3375         
      1120  -56.379442      0.32991181    -56.04953       0.029520714    283.58987     -1184.4824      3375         
      1130  -56.392825      0.36937846    -56.023447      0.029520714    317.51513     -1413.8168      3375         
      1140  -56.454437      0.4379823     -56.016455      0.029520714    376.48651      463.69875      3375         
      1150  -56.334984      0.34186467    -55.99312       0.029520714    293.86446      1983.64        3375         
      1160  -56.572918      0.5979189     -55.974999      0.029520714    513.96688      866.58966      3375         
      1170  -56.501744      0.52814877    -55.973595      0.029520714    453.99297     -781.15412      3375         
      1180  -56.358927      0.39635253    -55.962574      0.029520714    340.70184     -1461.53        3375         
      1190  -56.295724      0.33058945    -55.965135      0.029520714    284.17236     -335.78026      3375         
      1200  -56.440018      0.46687829    -55.97314       0.029520714    401.32529      1083.6607      3375         
      1210  -56.440562      0.48298718    -55.957575      0.029520714    415.17238      332.41725      3375         
      1220  -56.359169      0.39363163    -55.965538      0.029520714    338.36298     -372.41712      3375         
      1230  -56.417558      0.4448547     -55.972703      0.029520714    382.39397      429.51565      3375         
      1240  -56.524126      0.54317661    -55.980949      0.029520714    466.91079      138.23747      3375         
      1250  -56.509384      0.51306325    -55.99632       0.029520714    441.02556     -681.18863      3375         
      1260  -56.241825      0.23633355    -56.005491      0.029520714    203.15065      2.6960549      3375         
      1270  -56.413511      0.40067124    -56.012839      0.029520714    344.41418      318.20615      3375         
      1280  -56.468549      0.4429962     -56.025553      0.029520714    380.79642     -304.61439      3375         
      1290  -56.50601       0.47117418    -56.034836      0.029520714    405.01801     -790.1324       3375         
      1300  -56.466757      0.41645672    -56.0503        0.029520714    357.98327      500.70608      3375         
      1310  -56.479135      0.41442209    -56.064712      0.029520714    356.23431      1548.8047      3375         
      1320  -56.502597      0.43277548    -56.069821      0.029520714    372.01076      368.46161      3375         
      1330  -56.383215      0.2951636     -56.088051      0.029520714    253.72056     -1770.231       3375         
      1340  -56.409336      0.31430104    -56.095035      0.029520714    270.17096     -1504.5861      3375         
      1350  -56.525241      0.41665017    -56.108591      0.029520714    358.14956      783.13239      3375         
      1360  -56.518351      0.40031704    -56.118034      0.029520714    344.10971      1484.7114      3375         
      1370  -56.429047      0.31355008    -56.115497      0.029520714    269.52544      770.61394      3375         
      1380  -56.622669      0.49299938    -56.12967       0.029520714    423.77879      180.97445      3375         
      1390  -56.434649      0.29494976    -56.139699      0.029520714    253.53674     -753.31511      3375         
      1400  -56.421949      0.2715162     -56.150433      0.029520714    233.39341     -1628.2349      3375         
      1410  -56.490857      0.34535265    -56.145504      0.029520714    296.86271     -1025.4788      3375         
      1420  -56.499407      0.34368588    -56.155722      0.029520714    295.42997      702.72816      3375         
      1430  -56.485653      0.3287202     -56.156933      0.029520714    282.56557      2287.3604      3375         
      1440  -56.566893      0.40691818    -56.159975      0.029520714    349.78401      1044.7366      3375         
      1450  -56.503764      0.33901224    -56.164752      0.029520714    291.41254     -1575.043       3375         
      1460  -56.540364      0.3722535     -56.168111      0.029520714    319.98649     -1179.3174      3375         
      1470  -56.446298      0.26996284    -56.176336      0.029520714    232.05816      307.59549      3375         
      1480  -56.422682      0.25690143    -56.165781      0.029520714    220.83066     -33.969597      3375         
      1490  -56.568524      0.39712902    -56.171395      0.029520714    341.36931     -298.29734      3375         
      1500  -56.479515      0.30613192    -56.173383      0.029520714    263.14884      327.48529      3375         
      1510  -56.442575      0.26977309    -56.172802      0.029520714    231.89505      762.30543      3375         
      1520  -56.611335      0.44096417    -56.17037       0.029520714    379.0497       755.68649      3375         
      1530  -56.568764      0.40126922    -56.167495      0.029520714    344.9282      -125.33876      3375         
      1540  -56.400682      0.22976691    -56.170915      0.029520714    197.50602     -954.39585      3375         
      1550  -56.434596      0.26357259    -56.171024      0.029520714    226.56515     -553.8132       3375         
      1560  -56.519246      0.35087374    -56.168372      0.029520714    301.6086      -479.52799      3375         
      1570  -56.48679       0.3260244     -56.160765      0.029520714    280.24828     -547.04787      3375         
      1580  -56.506371      0.33593173    -56.170439      0.029520714    288.76455      1303.026       3375         
      1590  -56.556569      0.40117952    -56.155389      0.029520714    344.85109      2203.0417      3375         
      1600  -56.619946      0.47002803    -56.149918      0.029520714    404.03279      9.3703349      3375         
      1610  -56.388856      0.22965754    -56.159198      0.029520714    197.412       -2070.8802      3375         
      1620  -56.403148      0.25466712    -56.148481      0.029520714    218.91007     -1658.2313      3375         
      1630  -56.479253      0.31510503    -56.164148      0.029520714    270.86207      378.80023      3375         
      1640  -56.518516      0.37135344    -56.147163      0.029520714    319.2128       1389.3519      3375         
      1650  -56.441594      0.31304823    -56.128546      0.029520714    269.09406      546.08499      3375         
      1660  -56.592598      0.45857143    -56.134026      0.029520714    394.18478     -51.932969      3375         
      1670  -56.562017      0.42995445    -56.132062      0.029520714    369.58582      512.34063      3375         
      1680  -56.418602      0.28432932    -56.134273      0.029520714    244.40748     -569.60963      3375         
      1690  -56.412687      0.29298107    -56.119706      0.029520714    251.84446     -1710.4406      3375         
      1700  -56.479457      0.35642346    -56.123034      0.029520714    306.3791      -26.423174      3375         
      1710  -56.413092      0.29585948    -56.117232      0.029520714    254.31872      1825.7162      3375         
      1720  -56.486514      0.38585575    -56.100658      0.029520714    331.67888      609.91286      3375         
      1730  -56.633691      0.5347035     -56.098987      0.029520714    459.62737     -1327.3541      3375         
      1740  -56.525741      0.45506182    -56.07068       0.029520714    391.16794     -547.96965      3375         
      1750  -56.355392      0.28538183    -56.07001       0.029520714    245.31221      842.47159      3375         
      1760  -56.370333      0.3224809     -56.047852      0.029520714    277.20231      403.6051       3375         
      1770  -56.442148      0.41285809    -56.029289      0.029520714    354.88991     -868.7258       3375         
      1780  -56.443116      0.44406381    -55.999052      0.029520714    381.71413     -712.95815      3375         
      1790  -56.356957      0.38663359    -55.970324      0.029520714    332.34751      1291.663       3375         
      1800  -56.508862      0.57680905    -55.932053      0.029520714    495.821        1201.1197      3375         
      1810  -56.453041      0.55499748    -55.898043      0.029520714    477.07193     -998.64159      3375         
      1820  -56.398455      0.53244687    -55.866008      0.029520714    457.68758     -1011.8871      3375         
      1830  -56.132356      0.28362121    -55.848735      0.029520714    243.79879      629.91415      3375         
      1840  -56.353602      0.51544544    -55.838157      0.029520714    443.07327     -108.53845      3375         
      1850  -56.349305      0.53987666    -55.809428      0.029520714    464.07418     -1338.7009      3375         
      1860  -56.416299      0.61933264    -55.796967      0.029520714    532.37398      603.91529      3375         
      1870  -56.360399      0.56853239    -55.791867      0.029520714    488.70644      2418.1494      3375         
      1880  -56.472376      0.6799243     -55.792452      0.029520714    584.45814      189.414        3375         
      1890  -56.191217      0.38709018    -55.804127      0.029520714    332.73999     -2146.7558      3375         
      1900  -56.257293      0.44237556    -55.814918      0.029520714    380.26292     -1526.8624      3375         
      1910  -56.393583      0.54699439    -55.846589      0.029520714    470.19253      1004.2641      3375         
      1920  -56.336983      0.50231053    -55.834673      0.029520714    431.7826       1542.8205      3375         
      1930  -56.384529      0.50548008    -55.879049      0.029520714    434.50712     -118.90447      3375         
      1940  -56.503165      0.5894914     -55.913674      0.029520714    506.72266     -121.47961      3375         
      1950  -56.400554      0.44877666    -55.951778      0.029520714    385.76526      527.23042      3375         
      1960  -56.382661      0.39705164    -55.985609      0.029520714    341.3028      -313.49427      3375         
      1970  -56.408451      0.39205863    -56.016392      0.029520714    337.01084     -1539.6895      3375         
      1980  -56.401196      0.36047369    -56.040722      0.029520714    309.86065     -586.23281      3375         
      1990  -56.427734      0.36154285    -56.066191      0.029520714    310.77969      1715.2593      3375         
      2000  -56.586428      0.49436461    -56.092063      0.029520714    424.95234      716.89953      3375         
      2010  -56.493507      0.37805474    -56.115452      0.029520714    324.9732      -1249.4565      3375         
      2020  -56.522346      0.37423375    -56.148112      0.029520714    321.6887       60.488259      3375         
      2030  -56.425687      0.27402035    -56.151667      0.029520714    235.54596      1137.2753      3375         
      2040  -56.518682      0.35998917    -56.158692      0.029520714    309.44416     -362.04188      3375         
      2050  -56.486662      0.3072595     -56.179402      0.029520714    264.11811     -1412.6083      3375         
      2060  -56.529672      0.34219004    -56.187482      0.029520714    294.14415     -364.06649      3375         
      2070  -56.454247      0.24792739    -56.20632       0.029520714    213.11664      1451.5189      3375         
      2080  -56.569945      0.37887396    -56.191071      0.029520714    325.67739      1191.3292      3375         
      2090  -56.568014      0.36328039    -56.204734      0.029520714    312.27327     -710.13677      3375         
      2100  -56.567748      0.35300042    -56.214748      0.029520714    303.43668     -1047.3885      3375         
      2110  -56.411397      0.19056865    -56.220829      0.029520714    163.81147      342.07256      3375         
      2120  -56.507247      0.28232143    -56.224926      0.029520714    242.68151     -296.71062      3375         
      2130  -56.517726      0.2999237     -56.217803      0.029520714    257.8123      -910.16706      3375         
      2140  -56.570279      0.34242699    -56.227852      0.029520714    294.34783      779.94439      3375         
      2150  -56.52043       0.29433556    -56.226094      0.029520714    253.00878      1905.3888      3375         
      2160  -56.577567      0.35979356    -56.217774      0.029520714    309.27601      111.29259      3375         
      2170  -56.530522      0.30154834    -56.228974      0.029520714    259.20884     -1955.9959      3375         
      2180  -56.515691      0.29717078    -56.21852       0.029520714    255.44591     -1000.3054      3375         
      2190  -56.463931      0.22934188    -56.234589      0.029520714    197.14067      1070.1658      3375         
      2200  -56.502058      0.29531427    -56.206744      0.029520714    253.85007      745.78816      3375         
      2210  -56.486889      0.27652151    -56.210367      0.029520714    237.69594     -691.41445      3375         
      2220  -56.583698      0.3778975     -56.205801      0.029520714    324.83803     -167.82836      3375         
      2230  -56.56195       0.36819238    -56.193758      0.029520714    316.49558      1482.7816      3375         
      2240  -56.572249      0.384364      -56.187885      0.029520714    330.39659      353.0365       3375         
      2250  -56.397704      0.21538651    -56.182317      0.029520714    185.14473     -1867.8598      3375         
      2260  -56.495847      0.33111337    -56.164733      0.029520714    284.62273     -936.46917      3375         
      2270  -56.42266       0.26192087    -56.16074       0.029520714    225.14533      1303.2568      3375         
      2280  -56.57922       0.44132001    -56.1379        0.029520714    379.35557      493.14485      3375         
      2290  -56.45642       0.33639217    -56.120028      0.029520714    289.16034     -856.48582      3375         
      2300  -56.559074      0.46246063    -56.096613      0.029520714    397.5279       397.21889      3375         
      2310  -56.456169      0.38444933    -56.07172       0.029520714    330.46994      1431.7164      3375         
      2320  -56.527474      0.48226686    -56.045208      0.029520714    414.5532      -629.93722      3375         
      2330  -56.257489      0.23111011    -56.026379      0.029520714    198.66063     -2060.3129      3375         
      2340  -56.424363      0.40780018    -56.016563      0.029520714    350.54216     -397.71306      3375         
      2350  -56.419207      0.43712907    -55.982078      0.029520714    375.75307      2159.3536      3375         
      2360  -56.45109       0.52502242    -55.926068      0.029520714    451.30558      1186.4373      3375         
      2370  -56.407451      0.48066119    -55.92679       0.029520714    413.17298     -1525.3545      3375         
      2380  -56.522686      0.63690438    -55.885781      0.029520714    547.47853     -894.37669      3375         
      2390  -56.272334      0.3969799     -55.875354      0.029520714    341.24113      1199.3736      3375         
      2400  -56.274625      0.40852144    -55.866104      0.029520714    351.16216      413.22629      3375         
      2410  -56.37155       0.51639983    -55.855151      0.029520714    443.89366     -1549.3276      3375         
      2420  -56.411571      0.56891457    -55.842657      0.029520714    489.03496     -107.05601      3375         
      2430  -56.252261      0.41190687    -55.840354      0.029520714    354.07225      1741.7255      3375         
      2440  -56.495884      0.65175863    -55.844126      0.029520714    560.24713     -529.61243      3375         
      2450  -56.481373      0.62497131    -55.856402      0.029520714    537.22094     -1504.8721      3375         
      2460  -56.303748      0.41402503    -55.889723      0.029520714    355.893        651.95321      3375         
      2470  -56.271584      0.39220343    -55.879381      0.029520714    337.13531      1269.9824      3375         
      2480  -56.39479       0.48559198    -55.909198      0.029520714    417.41145     -333.07904      3375         
      2490  -56.271621      0.33377877    -55.937843      0.029520714    286.91388     -838.19726      3375         
      2500  -56.527846      0.54790037    -55.979945      0.029520714    470.9713       166.25092      3375         
      2510  -56.456614      0.44081236    -56.015802      0.029520714    378.9192       1038.9528      3375         
      2520  -56.46496       0.4117741     -56.053186      0.029520714    353.95812      151.21458      3375         
      2530  -56.47536       0.36596384    -56.109396      0.029520714    314.57994     -1527.2826      3375         
      2540  -56.540686      0.40524812    -56.135438      0.029520714    348.34843     -608.47696      3375         
      2550  -56.403331      0.23455545    -56.168776      0.029520714    201.62221      1367.5643      3375         
      2560  -56.480209      0.2900825     -56.190127      0.029520714    249.35288      154.98127      3375         
      2570  -56.521422      0.31896618    -56.202456      0.029520714    274.18108     -319.17871      3375         
      2580  -56.547206      0.33004056    -56.217165      0.029520714    283.70054      678.88404      3375         
      2590  -56.561184      0.33832702    -56.222857      0.029520714    290.82352     -102.97563      3375         
      2600  -56.566085      0.33502541    -56.231059      0.029520714    287.98548     -1116.1343      3375         
      2610  -56.50658       0.27027831    -56.236302      0.029520714    232.32934     -515.04916      3375         
      2620  -56.521235      0.27798265    -56.243252      0.029520714    238.95193      420.14132      3375         
      2630  -56.51384       0.26728127    -56.246559      0.029520714    229.7531       1213.9445      3375         
      2640  -56.500122      0.27119962    -56.228922      0.029520714    233.12129      424.83307      3375         
      2650  -56.572087      0.33324982    -56.238837      0.029520714    286.4592      -966.21061      3375         
      2660  -56.595403      0.35927265    -56.23613       0.029520714    308.82824     -151.6666       3375         
      2670  -56.524909      0.28831089    -56.236598      0.029520714    247.83001      605.21206      3375         
      2680  -56.527356      0.29570088    -56.231655      0.029520714    254.18239     -643.35166      3375         
      2690  -56.542481      0.31443885    -56.228042      0.029520714    270.28943     -810.15549      3375         
      2700  -56.475428      0.25251606    -56.222912      0.029520714    217.06103      533.33492      3375         
      2710  -56.482953      0.25923246    -56.223721      0.029520714    222.8344       900.91601      3375         
      2720  -56.587306      0.37886787    -56.208438      0.029520714    325.67216      20.049232      3375         
      2730  -56.583289      0.38125247    -56.202036      0.029520714    327.72194     -473.32433      3375         
      2740  -56.520107      0.32180031    -56.198307      0.029520714    276.61728      94.665643      3375         
      2750  -56.461858      0.27769341    -56.184165      0.029520714    238.7033       277.062        3375         
      2760  -56.50043       0.32288828    -56.177542      0.029520714    277.55249     -547.72958      3375         
      2770  -56.419171      0.24649753    -56.172674      0.029520714    211.88755     -954.79932      3375         
      2780  -56.524619      0.36997949    -56.15464       0.029520714    318.03177      240.34879      3375         
      2790  -56.516587      0.37657132    -56.140015      0.029520714    323.69805      1802.1003      3375         
      2800  -56.552458      0.42795891    -56.124499      0.029520714    367.87047      420.84098      3375         
      2810  -56.497375      0.37755258    -56.119823      0.029520714    324.54154     -1527.4089      3375         
      2820  -56.491259      0.40136634    -56.089892      0.029520714    345.01168     -576.68016      3375         
      2830  -56.353667      0.26426225    -56.089405      0.029520714    227.15797      540.06338      3375         
      2840  -56.387671      0.30961853    -56.078053      0.029520714    266.14591      315.46261      3375         
      2850  -56.492233      0.42873294    -56.0635        0.029520714    368.53582     -25.880015      3375         
      2860  -56.548193      0.50073226    -56.04746       0.029520714    430.42592     -106.73812      3375         
      2870  -56.441942      0.41163172    -56.03031       0.029520714    353.83573      160.60015      3375         
      2880  -56.499037      0.47797137    -56.021066      0.029520714    410.86083     -383.55922      3375         
      2890  -56.482383      0.4652018     -56.017182      0.029520714    399.8842      -772.89148      3375         
      2900  -56.338639      0.31788059    -56.020758      0.029520714    273.24792      911.24223      3375         
      2910  -56.299106      0.32235005    -55.976756      0.029520714    277.08983      1333.395       3375         
      2920  -56.360909      0.37332688    -55.987582      0.029520714    320.90916     -741.93753      3375         
      2930  -56.476212      0.49622319    -55.979989      0.029520714    426.54996     -1096.0911      3375         
      2940  -56.611511      0.6371573     -55.974353      0.029520714    547.69593     -66.688924      3375         
      2950  -56.404363      0.42908967    -55.975274      0.029520714    368.84246      501.36386      3375         
      2960  -56.366025      0.39168393    -55.974341      0.029520714    336.68875      801.2685       3375         
      2970  -56.43971       0.45366533    -55.986045      0.029520714    389.96753     -157.86063      3375         
      2980  -56.333102      0.34172839    -55.991373      0.029520714    293.74732     -787.03607      3375         
      2990  -56.320895      0.33184864    -55.989047      0.029520714    285.25476     -124.19505      3375         
      3000  -56.515669      0.51279321    -56.002876      0.029520714    440.79344     -67.440731      3375         
      3010  -56.494815      0.4649375     -56.029877      0.029520714    399.657        404.10371      3375         
      3020  -56.498281      0.45105354    -56.047227      0.029520714    387.72245      798.89547      3375         
      3030  -56.477058      0.40394448    -56.073113      0.029520714    347.22783     -367.31517      3375         
      3040  -56.436634      0.32894559    -56.107689      0.029520714    282.75932     -924.81824      3375         
      3050  -56.360623      0.23127767    -56.129345      0.029520714    198.80466      177.05907      3375         
      3060  -56.468731      0.31390143    -56.154829      0.029520714    269.82746      480.98671      3375         
      3070  -56.526222      0.34094041    -56.185281      0.029520714    293.06998      323.19764      3375         
      3080  -56.569708      0.37039626    -56.199312      0.029520714    318.39002     -79.193605      3375         
      3090  -56.60376       0.36690054    -56.236859      0.029520714    315.38512     -693.92105      3375         
      3100  -56.563298      0.3030685     -56.260229      0.029520714    260.51555     -62.902857      3375         
      3110  -56.499012      0.21889283    -56.280119      0.029520714    188.15873      615.41288      3375         
      3120  -56.445689      0.16524042    -56.280449      0.029520714    142.0395       396.23859      3375         
      3130  -56.608488      0.31635623    -56.292132      0.029520714    271.93759      94.392539      3375         
      3140  -56.555914      0.25433667    -56.301577      0.029520714    218.62601     -494.77238      3375         
      3150  -56.570204      0.26693856    -56.303265      0.029520714    229.45851     -1072.4351      3375         
      3160  -56.646243      0.33614758    -56.310095      0.029520714    288.95009     -143.603        3375         
      3170  -56.660776      0.34994616    -56.310829      0.029520714    300.81126      875.57246      3375         
      3180  -56.494738      0.17660209    -56.318136      0.029520714    151.80592      714.80197      3375         
      3190  -56.498901      0.18851589    -56.310385      0.029520714    162.04693      243.77478      3375         
      3200  -56.515498      0.20432451    -56.311173      0.029520714    175.63591     -324.21927      3375         
      3210  -56.567763      0.25552274    -56.31224       0.029520714    219.64555     -672.4778       3375         
      3220  -56.656515      0.35933147    -56.297184      0.029520714    308.87881     -240.45173      3375         
      3230  -56.605394      0.31151437    -56.293879      0.029520714    267.77556      302.42452      3375         
      3240  -56.559676      0.27260506    -56.28707       0.029520714    234.32939      217.84539      3375         
      3250  -56.547034      0.26158023    -56.285454      0.029520714    224.85253     -17.613259      3375         
      3260  -56.518124      0.24976209    -56.268362      0.029520714    214.69374     -87.75425       3375         
      3270  -56.449278      0.18525264    -56.264025      0.029520714    159.24187      20.141671      3375         
      3280  -56.554874      0.30142687    -56.253447      0.029520714    259.10442      148.9712       3375         
      3290  -56.591341      0.35265495    -56.238686      0.029520714    303.13972      276.44993      3375         
      3300  -56.605668      0.38611532    -56.219553      0.029520714    331.90202     -257.92714      3375         
      3310  -56.543339      0.34030353    -56.203035      0.029520714    292.52252     -649.52314      3375         
      3320  -56.490006      0.29075307    -56.199253      0.029520714    249.92929      15.536925      3375         
      3330  -56.436443      0.25931476    -56.177128      0.029520714    222.90514      94.437282      3375         
      3340  -56.405618      0.24537416    -56.160244      0.029520714    210.9219       261.9241       3375         
      3350  -56.49778       0.35171214    -56.146068      0.029520714    302.32928      766.23109      3375         
      3360  -56.570625      0.44070548    -56.129919      0.029520714    378.82733     -82.043895      3375         
      3370  -56.595535      0.48432809    -56.111207      0.029520714    416.32502     -602.14093      3375         
      3380  -56.42481       0.32655118    -56.098259      0.029520714    280.70109     -122.65633      3375         
      3390  -56.423925      0.33372001    -56.090205      0.029520714    286.86338     -186.4723       3375         
      3400  -56.432462      0.34937572    -56.083086      0.029520714    300.32091      492.15448      3375         
      3410  -56.458191      0.38361577    -56.074575      0.029520714    329.75342      349.94557      3375         
      3420  -56.350656      0.27550845    -56.075148      0.029520714    236.82513     -1034.2213      3375         
      3430  -56.517088      0.46454714    -56.052541      0.029520714    399.32145     -392.44231      3375         
      3440  -56.639046      0.57951538    -56.05953       0.029520714    498.14734      645.81757      3375         
      3450  -56.471707      0.40233081    -56.069376      0.029520714    345.84074      539.21191      3375         
      3460  -56.330718      0.26689859    -56.063819      0.029520714    229.42415      827.0982       3375         
      3470  -56.389792      0.34784453    -56.041947      0.029520714    299.00471     -145.87945      3375         
      3480  -56.423845      0.36308455    -56.060761      0.029520714    312.10492     -1453.0503      3375         
      3490  -56.423801      0.36354402    -56.060257      0.029520714    312.49988     -413.28469      3375         
      3500  -56.643436      0.58053371    -56.062902      0.029520714    499.02269      22.729826      3375         
      3510  -56.477985      0.40226338    -56.075721      0.029520714    345.78277      391.90585      3375         
      3520  -56.428621      0.36107654    -56.067545      0.029520714    310.37885      1135.0127      3375         
      3530  -56.445146      0.36533792    -56.079808      0.029520714    314.0419       651.59623      3375         
      3540  -56.458661      0.37232507    -56.086336      0.029520714    320.04801     -661.75173      3375         
      3550  -56.342244      0.24793397    -56.09431       0.029520714    213.1223      -1232.8998      3375         
      3560  -56.471784      0.3915631     -56.080221      0.029520714    336.58489     -466.78111      3375         
      3570  -56.608376      0.50414545    -56.10423       0.029520714    433.35988      741.07334      3375         
      3580  -56.575506      0.47722758    -56.098279      0.029520714    410.22147      506.43482      3375         
      3590  -56.408516      0.29589441    -56.112622      0.029520714    254.34876     -409.93479      3375         
      3600  -56.421999      0.29984143    -56.122157      0.029520714    257.74159      156.85304      3375         
      3610  -56.480407      0.3603797     -56.120027      0.029520714    309.77986      848.00092      3375         
      3620  -56.41048       0.28070402    -56.129776      0.029520714    241.2912       18.197604      3375         
      3630  -56.448175      0.31775463    -56.13042       0.029520714    273.13964     -989.51582      3375         
      3640  -56.572859      0.43861707    -56.134242      0.029520714    377.03215     -691.89749      3375         
      3650  -56.583054      0.43931914    -56.143735      0.029520714    377.63564      144.45295      3375         
      3660  -56.452562      0.30724172    -56.14532       0.029520714    264.10282      492.31642      3375         
      3670  -56.436283      0.28171871    -56.154564      0.029520714    242.16342      648.03518      3375         
      3680  -56.507887      0.3510571     -56.15683       0.029520714    301.76621      934.96803      3375         
      3690  -56.513227      0.34850578    -56.164721      0.029520714    299.57311     -112.12492      3375         
      3700  -56.399834      0.23373051    -56.166103      0.029520714    200.9131      -1590.1199      3375         
      3710  -56.511471      0.34663625    -56.164835      0.029520714    297.96608     -1386.3966      3375         
      3720  -56.663105      0.48829444    -56.17481       0.029520714    419.73446      491.73934      3375         
      3730  -56.508184      0.32771164    -56.180472      0.029520714    281.69862      1769.9912      3375         
      3740  -56.424001      0.24504004    -56.178961      0.029520714    210.63469      683.48493      3375         
      3750  -56.490718      0.3046258     -56.186093      0.029520714    261.85419     -593.6184       3375         
      3760  -56.55012       0.35568294    -56.194437      0.029520714    305.74255     -338.89002      3375         
      3770  -56.472579      0.27794369    -56.194636      0.029520714    238.91844     -428.07487      3375         
      3780  -56.540724      0.34379253    -56.196931      0.029520714    295.52164     -697.09452      3375         
      3790  -56.550717      0.34384302    -56.206874      0.029520714    295.56504      139.14204      3375         
      3800  -56.545426      0.33508231    -56.210343      0.029520714    288.0344       946.55721      3375         
      3810  -56.531218      0.31036819    -56.22085       0.029520714    266.79031      757.57116      3375         
      3820  -56.509311      0.28019604    -56.229115      0.029520714    240.85455     -145.55839      3375         
      3830  -56.472876      0.23599894    -56.236877      0.029520714    202.86303     -917.45457      3375         
      3840  -56.527998      0.284683      -56.243315      0.029520714    244.71151     -265.24461      3375         
      3850  -56.61978       0.36433034    -56.255449      0.029520714    313.17579      345.12423      3375         
      3860  -56.545196      0.27672017    -56.268476      0.029520714    237.86671     -526.06474      3375         
      3870  -56.553518      0.27620753    -56.277311      0.029520714    237.42605     -289.50674      3375         
      3880  -56.573375      0.27964925    -56.293725      0.029520714    240.38452      973.61075      3375         
      3890  -56.535688      0.24025355    -56.295435      0.029520714    206.52026      517.48758      3375         
      3900  -56.493886      0.19205121    -56.301834      0.029520714    165.08587     -81.378525      3375         
      3910  -56.556858      0.24977848    -56.30708       0.029520714    214.70782     -383.39685      3375         
      3920  -56.609769      0.29461136    -56.315158      0.029520714    253.24585     -642.88032      3375         
      3930  -56.607257      0.28474166    -56.322516      0.029520714    244.76193      128.61972      3375         
      3940  -56.586346      0.26226715    -56.324079      0.029520714    225.443        153.92831      3375         
      3950  -56.515651      0.18672735    -56.328923      0.029520714    160.50952     -104.87576      3375         
      3960  -56.576818      0.24976805    -56.32705       0.029520714    214.69886      737.88336      3375         
      3970  -56.596911      0.26808302    -56.328828      0.029520714    230.44228      485.81453      3375         
      3980  -56.537308      0.21020443    -56.327104      0.029520714    180.69025     -1070.1204      3375         
      3990  -56.532428      0.21443636    -56.317992      0.029520714    184.32799     -938.99452      3375         
      4000  -56.658886      0.34555679    -56.313329      0.029520714    297.03819      325.13237      3375         
      4010  -56.584638      0.26371396    -56.320924      0.029520714    226.68666      1089.4582      3375         
      4020  -56.500524      0.21617372    -56.28435       0.029520714    185.82141      593.91981      3375         
      4030  -56.560274      0.27692869    -56.283345      0.029520714    238.04595     -586.28832      3375         
      4040  -56.565302      0.29488646    -56.270416      0.029520714    253.48232     -741.17349      3375         
      4050  -56.511075      0.25482691    -56.256248      0.029520714    219.04742     -173.76033      3375         
      4060  -56.54638       0.30801822    -56.238362      0.029520714    264.7703      -79.706102      3375         
      4070  -56.543101      0.3177621     -56.225339      0.029520714    273.14606      272.12781      3375         
      4080  -56.555619      0.36814412    -56.187475      0.029520714    316.4541       925.92951      3375         
      4090  -56.491479      0.31776064    -56.173719      0.029520714    273.14481      797.5539       3375         
      4100  -56.456729      0.30223433    -56.154494      0.029520714    259.7985      -718.89749      3375         
      4110  -56.543244      0.40103308    -56.142211      0.029520714    344.72522     -1745.2123      3375         
      4120  -56.523159      0.42410886    -56.09905       0.029520714    364.56099     -304.12894      3375         
      4130  -56.467329      0.37213597    -56.095193      0.029520714    319.88546      922.85544      3375         
      4140  -56.424303      0.34884546    -56.075458      0.029520714    299.86511      593.43848      3375         
      4150  -56.438624      0.37159177    -56.067032      0.029520714    319.41767      240.41399      3375         
      4160  -56.500458      0.45049243    -56.049965      0.029520714    387.24012      312.60772      3375         
      4170  -56.472507      0.43299518    -56.039512      0.029520714    372.19961      211.69495      3375         
      4180  -56.368905      0.33597861    -56.032926      0.029520714    288.80485     -519.74197      3375         
      4190  -56.39567       0.3694822     -56.026187      0.029520714    317.6043      -1314.6881      3375         
      4200  -56.595498      0.5730015     -56.022497      0.029520714    492.54806     -411.79854      3375         
      4210  -56.445611      0.42804403    -56.017567      0.029520714    367.94363      568.00666      3375         
      4220  -56.304934      0.28775098    -56.017183      0.029520714    247.34872      524.6847       3375         
      4230  -56.383084      0.36342118    -56.019662      0.029520714    312.39429      1233.0741      3375         
      4240  -56.55662       0.5395356     -56.017084      0.029520714    463.78101      975.87848      3375         
      4250  -56.473872      0.44497307    -56.028899      0.029520714    382.49572     -913.84462      3375         
      4260  -56.27394       0.24919572    -56.024744      0.029520714    214.20688     -1815.438       3375         
      4270  -56.415691      0.38563538    -56.030056      0.029520714    331.48946     -1152.8921      3375         
      4280  -56.545428      0.5073136     -56.038114      0.029520714    436.0832       645.88938      3375         
      4290  -56.429371      0.37922639    -56.050144      0.029520714    325.98034      1725.4896      3375         
      4300  -56.410234      0.3578827     -56.052351      0.029520714    307.63345      858.04329      3375         
      4310  -56.585163      0.51727382    -56.067889      0.029520714    444.64493     -102.0528       3375         
      4320  -56.451005      0.36572051    -56.085284      0.029520714    314.37078     -642.32052      3375         
      4330  -56.360819      0.26310882    -56.09771       0.029520714    226.16649     -1396.1777      3375         
      4340  -56.441311      0.32622766    -56.115083      0.029520714    280.423       -409.15973      3375         
      4350  -56.535262      0.41690025    -56.118362      0.029520714    358.36452      881.49416      3375         
      4360  -56.498164      0.35916975    -56.138994      0.029520714    308.73979      733.88392      3375         
      4370  -56.515231      0.35554058    -56.15969       0.029520714    305.62018      445.99692      3375         
      4380  -56.638509      0.45296799    -56.185541      0.029520714    389.3681      -67.385498      3375         
      4390  -56.531798      0.32359043    -56.208208      0.029520714    278.15605     -511.07178      3375         
      4400  -56.456662      0.2258808     -56.230781      0.029520714    194.16555     -184.72047      3375         
      4410  -56.491625      0.24468476    -56.24694       0.029520714    210.3293      -194.51888      3375         
      4420  -56.542246      0.27972819    -56.262518      0.029520714    240.45238     -467.08986      3375         
      4430  -56.540669      0.25831724    -56.282352      0.029520714    222.04768      175.91877      3375         
      4440  -56.65874       0.35625326    -56.302486      0.029520714    306.23279      493.49244      3375         
      4450  -56.616904      0.28954497    -56.327359      0.029520714    248.89082      342.10435      3375         
      4460  -56.526258      0.19412679    -56.332131      0.029520714    166.87003      213.8586       3375         
      4470  -56.562919      0.21684528    -56.346073      0.029520714    186.39867     -394.31111      3375         
      4480  -56.615992      0.25709535    -56.358896      0.029520714    220.99735     -525.89907      3375         
      4490  -56.546422      0.1827525     -56.36367       0.029520714    157.09277     -8.4170627      3375         
      4500  -56.514229      0.14576777    -56.368461      0.029520714    125.30095      174.83204      3375         
      4510  -56.652027      0.27849185    -56.373536      0.029520714    239.38964      320.07722      3375         
      4520  -56.671005      0.30471734    -56.366288      0.029520714    261.93288      445.05684      3375         
      4530  -56.585535      0.21099596    -56.374539      0.029520714    181.37064     -178.797        3375         
      4540  -56.488209      0.11577816    -56.372431      0.029520714    99.522095     -705.08175      3375         
      4550  -56.626614      0.25782993    -56.368784      0.029520714    221.62879     -527.14367      3375         
      4560  -56.609559      0.24833965    -56.361219      0.029520714    213.47102      384.46487      3375         
      4570  -56.540629      0.17715083    -56.363478      0.029520714    152.27761      927.44991      3375         
      4580  -56.562928      0.21479592    -56.348132      0.029520714    184.63706      389.19634      3375         
      4590  -56.668883      0.32279102    -56.346092      0.029520714    277.46889     -556.88653      3375         
      4600  -56.573996      0.2358963     -56.3381        0.029520714    202.7748      -769.22499      3375         
      4610  -56.504092      0.17008802    -56.334004      0.029520714    146.20647     -381.22553      3375         
      4620  -56.588641      0.25318226    -56.335459      0.029520714    217.63369      328.72706      3375         
      4630  -56.568698      0.24756795    -56.32113       0.029520714    212.80767      529.25963      3375         
      4640  -56.553601      0.23878907    -56.314812      0.029520714    205.2614       491.26401      3375         
      4650  -56.56177       0.25422826    -56.307542      0.029520714    218.53282      363.31008      3375         
      4660  -56.621044      0.31881063    -56.302233      0.029520714    274.04738     -429.45849      3375         
      4670  -56.570957      0.27700783    -56.293949      0.029520714    238.11398     -914.09222      3375         
      4680  -56.551804      0.26742295    -56.284381      0.029520714    229.87489     -412.43488      3375         
      4690  -56.511415      0.23297123    -56.278443      0.029520714    200.26043      344.7004       3375         
      4700  -56.512024      0.24109437    -56.27093       0.029520714    207.24302      719.64752      3375         
      4710  -56.538142      0.27797307    -56.260169      0.029520714    238.94369      11.70985       3375         
      4720  -56.619832      0.37257759    -56.247254      0.029520714    320.26508     -348.5943       3375         
      4730  -56.566648      0.33083827    -56.23581       0.029520714    284.38625      574.37117      3375         
      4740  -56.506442      0.28795452    -56.218488      0.029520714    247.52368      152.37735      3375         
      4750  -56.578053      0.36983869    -56.208215      0.029520714    317.91074     -937.54699      3375         
      4760  -56.514354      0.31760138    -56.196753      0.029520714    273.00791     -462.75904      3375         
      4770  -56.395901      0.21374356    -56.182158      0.029520714    183.73246      144.5878       3375         
      4780  -56.448594      0.27304334    -56.175551      0.029520714    234.70614      703.47285      3375         
      4790  -56.623555      0.47219975    -56.151355      0.029520714    405.89958      881.28239      3375         
      4800  -56.594604      0.45978971    -56.134815      0.029520714    395.232       -163.83696      3375         
      4810  -56.490878      0.37113476    -56.119744      0.029520714    319.02482     -612.35538      3375         
      4820  -56.386142      0.27434361    -56.111799      0.029520714    235.82384     -654.04946      3375         
      4830  -56.462084      0.36381982    -56.098264      0.029520714    312.73695     -932.79301      3375         
      4840  -56.450948      0.36693578    -56.084013      0.029520714    315.41542      615.92673      3375         
      4850  -56.389629      0.31543425    -56.074194      0.029520714    271.14506      1784.4843      3375         
      4860  -56.456078      0.39316337    -56.062915      0.029520714    337.96047      661.37446      3375         
      4870  -56.548497      0.50089129    -56.047605      0.029520714    430.56263     -829.70947      3375         
      4880  -56.522194      0.48573124    -56.036462      0.029520714    417.53115     -1424.4998      3375         
      4890  -56.381708      0.34648722    -56.035221      0.029520714    297.83798     -615.59871      3375         
      4900  -56.308748      0.28355639    -56.025192      0.029520714    243.74308      586.79995      3375         
      4910  -56.41194       0.40162417    -56.010316      0.029520714    345.23331      416.87328      3375         
      4920  -56.494074      0.48244398    -56.01163       0.029520714    414.70545      184.05169      3375         
      4930  -56.383251      0.37922946    -56.004022      0.029520714    325.98297      926.75174      3375         
      4940  -56.486706      0.48680517    -55.9999        0.029520714    418.4543       491.88182      3375         
      4950  -56.527239      0.52642828    -56.000811      0.029520714    452.51404     -726.99735      3375         
      4960  -56.398184      0.39307004    -56.005114      0.029520714    337.88024     -1040.9025      3375         
      4970  -56.249842      0.24148193    -56.00836       0.029520714    207.57617     -278.26373      3375         
      4980  -56.407536      0.39901227    -56.008524      0.029520714    342.98814      149.79867      3375         
      4990  -56.586086      0.5682848     -56.017801      0.029520714    488.49362     -71.20629       3375         
      5000  -56.497263      0.46961438    -56.027649      0.029520714    403.67721      553.10683      3375         
      5010  -56.427812      0.37491072    -56.052901      0.029520714    322.27062      1145.4677      3375         
      5020  -56.573429      0.51349404    -56.059935      0.029520714    441.39586      133.13943      3375         
      5030  -56.501527      0.40679555    -56.094732      0.029520714    349.67859     -1256.9628      3375         
      5040  -56.316536      0.19437075    -56.122165      0.029520714    167.07973     -828.49866      3375         
      5050  -56.391876      0.25569156    -56.136184      0.029520714    219.79066      451.61037      3375         
      5060  -56.527492      0.36959839    -56.157894      0.029520714    317.70417      667.08994      3375         
      5070  -56.596794      0.42046255    -56.176331      0.029520714    361.42665     -209.82955      3375         
      5080  -56.609277      0.38590553    -56.223372      0.029520714    331.72168     -294.95752      3375         
      5090  -56.559091      0.30669936    -56.252391      0.029520714    263.63661      564.28646      3375         
      5100  -56.497906      0.22405793    -56.273848      0.029520714    192.59862      357.19591      3375         
      5110  -56.524659      0.23913559    -56.285524      0.029520714    205.55927     -719.60345      3375         
      5120  -56.527636      0.23004379    -56.297592      0.029520714    197.74403     -376.40085      3375         
      5130  -56.507286      0.19989752    -56.307388      0.029520714    171.8305       609.67079      3375         
      5140  -56.600163      0.28669932    -56.313463      0.029520714    246.44472      295.46765      3375         
      5150  -56.65579       0.33646274    -56.319327      0.029520714    289.221       -769.76657      3375         
      5160  -56.66085       0.33450384    -56.326347      0.029520714    287.53714     -644.60892      3375         
      5170  -56.497507      0.16271313    -56.334794      0.029520714    139.86706      730.34585      3375         
      5180  -56.485788      0.15718547    -56.328603      0.029520714    135.11552      805.00512      3375         
      5190  -56.548288      0.22261283    -56.325675      0.029520714    191.35642     -243.88987      3375         
      5200  -56.585296      0.25556599    -56.32973       0.029520714    219.68272     -165.31217      3375         
      5210  -56.549692      0.23538772    -56.314304      0.029520714    202.33762      293.28693      3375         
      5220  -56.62282       0.30989809    -56.312922      0.029520714    266.38621     -101.71391      3375         
      5230  -56.643918      0.33596769    -56.30795       0.029520714    288.79546     -888.12458      3375         
      5240  -56.554277      0.25500294    -56.299274      0.029520714    219.19873     -818.12973      3375         
      5250  -56.483767      0.1924074     -56.29136       0.029520714    165.39204      839.07946      3375         
      5260  -56.474336      0.18704018    -56.287296      0.029520714    160.77842      1542.182       3375         
      5270  -56.539249      0.25841683    -56.280832      0.029520714    222.13329     -327.60782      3375         
      5280  -56.587797      0.32522435    -56.262573      0.029520714    279.56056     -819.63369      3375         
      5290  -56.618731      0.36461987    -56.254112      0.029520714    313.42467      289.27986      3375         
      5300  -56.565026      0.32791295    -56.237113      0.029520714    281.87166     -187.74785      3375         
      5310  -56.547889      0.32032183    -56.227567      0.029520714    275.34639     -800.94707      3375         
      5320  -56.493931      0.27675245    -56.217178      0.029520714    237.89446     -323.40729      3375         
      5330  -56.442573      0.22981492    -56.212758      0.029520714    197.54729      618.13998      3375         
      5340  -56.427283      0.23158696    -56.195696      0.029520714    199.07052      1528.6481      3375         
      5350  -56.603788      0.42497474    -56.178813      0.029520714    365.30529      210.85465      3375         
      5360  -56.633517      0.46322156    -56.170296      0.029520714    398.18199     -1220.1474      3375         
      5370  -56.545691      0.38575576    -56.159935      0.029520714    331.59294     -273.65684      3375         
      5380  -56.455273      0.30150425    -56.153769      0.029520714    259.17093      260.26157      3375         
      5390  -56.467952      0.32004369    -56.147908      0.029520714    275.1073      -770.67224      3375         
      5400  -56.399648      0.25928678    -56.140361      0.029520714    222.88109     -311.51424      3375         
      5410  -56.399934      0.26601099    -56.133923      0.029520714    228.66118      1309.3692      3375         
      5420  -56.583769      0.45623562    -56.127533      0.029520714    392.17693      980.20745      3375         
      5430  -56.628128      0.5067491     -56.121379      0.029520714    435.59796     -1031.4177      3375         
      5440  -56.504663      0.39116394    -56.1135        0.029520714    336.24177     -1075.9145      3375         
      5450  -56.409694      0.27781752    -56.131877      0.029520714    238.80998      767.96677      3375         
      5460  -56.460334      0.36085082    -56.099483      0.029520714    310.18482      738.81293      3375         
      5470  -56.398208      0.28861074    -56.109597      0.029520714    248.08776     -747.41217      3375         
      5480  -56.330406      0.21950862    -56.110898      0.029520714    188.68807     -632.41889      3375         
      5490  -56.518833      0.41336441    -56.105468      0.029520714    355.32514      581.13318      3375         
      5500  -56.638563      0.53829919    -56.100263      0.029520714    462.7182       999.84912      3375         
      5510  -56.552191      0.45324457    -56.098946      0.029520714    389.60585     -426.11818      3375         
      5520  -56.433228      0.32657384    -56.106654      0.029520714    280.72058     -1007.3098      3375         
      5530  -56.402368      0.30091816    -56.10145       0.029520714    258.66714      563.75464      3375         
      5540  -56.364917      0.25816936    -56.106748      0.029520714    221.92057      611.57941      3375         
      5550  -56.445672      0.34108909    -56.104583      0.029520714    293.19778     -807.66089      3375         
      5560  -56.515029      0.41552624    -56.099503      0.029520714    357.18343     -11.683249      3375         
      5570  -56.529963      0.42749965    -56.102464      0.029520714    367.4757       904.8195       3375         
      5580  -56.501955      0.3986718     -56.103283      0.029520714    342.69548     -213.43515      3375         
      5590  -56.523049      0.41569679    -56.107352      0.029520714    357.33004     -1280.7508      3375         
      5600  -56.513172      0.39721084    -56.115962      0.029520714    341.43964     -209.79844      3375         
      5610  -56.364781      0.23738566    -56.127395      0.029520714    204.05504      1385.7352      3375         
      5620  -56.384371      0.28007413    -56.104296      0.029520714    240.74975      875.01413      3375         
      5630  -56.5191        0.40556214    -56.113538      0.029520714    348.61836     -1004.1173      3375         
      5640  -56.576744      0.45699152    -56.119752      0.029520714    392.8267      -983.84469      3375         
      5650  -56.4751        0.34892629    -56.126174      0.029520714    299.93458      781.53821      3375         
      5660  -56.565851      0.43326809    -56.132583      0.029520714    372.4342       761.15059      3375         
      5670  -56.471049      0.33288488    -56.138164      0.029520714    286.1455      -684.28665      3375         
      5680  -56.434378      0.29089369    -56.143484      0.029520714    250.05017     -525.93045      3375         
      5690  -56.4109        0.26215549    -56.148745      0.029520714    225.34701      761.99003      3375         
      5700  -56.622001      0.46573543    -56.156266      0.029520714    400.3429       56.305815      3375         
      5710  -56.51103       0.34360237    -56.167427      0.029520714    295.35818     -1035.312       3375         
      5720  -56.545467      0.3675451     -56.177922      0.029520714    315.93918     -63.605418      3375         
      5730  -56.523767      0.32003623    -56.203731      0.029520714    275.1009       1211.185       3375         
      5740  -56.521313      0.31711409    -56.204199      0.029520714    272.58904      248.35052      3375         
      5750  -56.458018      0.22491322    -56.233104      0.029520714    193.33382     -807.1506       3375         
      5760  -56.479642      0.22792084    -56.251721      0.029520714    195.91915     -300.09442      3375         
      5770  -56.549373      0.28115239    -56.268221      0.029520714    241.67662      483.17514      3375         
      5780  -56.638492      0.34067656    -56.297816      0.029520714    292.84318      363.78216      3375         
      5790  -56.643455      0.30809138    -56.335363      0.029520714    264.83318     -806.76561      3375         
      5800  -56.563947      0.20816382    -56.355783      0.029520714    178.93615     -687.16745      3375         
      5810  -56.54979       0.17396204    -56.375828      0.029520714    149.53654      1164.2586      3375         
      5820  -56.553021      0.16913693    -56.383884      0.029520714    145.38892      1027.7495      3375         
      5830  -56.599683      0.20367383    -56.39601       0.029520714    175.07659     -736.11592      3375         
      5840  -56.626033      0.22439528    -56.401638      0.029520714    192.88861     -725.45461      3375         
      5850  -56.618519      0.20942287    -56.409096      0.029520714    180.01842      2.6078145      3375         
      5860  -56.664271      0.25028685    -56.413984      0.029520714    215.14481     -207.50422      3375         
      5870  -56.656681      0.23909392    -56.417587      0.029520714    205.52345     -243.08739      3375         
      5880  -56.590216      0.16955819    -56.420658      0.029520714    145.75103      282.98586      3375         
      5890  -56.510816      0.087588339   -56.423227      0.029520714    75.29032       1129.7308      3375         
      5900  -56.593652      0.19143295    -56.402219      0.029520714    164.55442      718.21215      3375         
      5910  -56.642988      0.23479934    -56.408189      0.029520714    201.83186     -1127.615       3375         
      5920  -56.671198      0.27181162    -56.399387      0.029520714    233.64736     -1229.8822      3375         
      5930  -56.641419      0.25253024    -56.388889      0.029520714    217.07322      377.02013      3375         
      5940  -56.621546      0.24363505    -56.377911      0.029520714    209.42698      690.09411      3375         
      5950  -56.547626      0.18043647    -56.36719       0.029520714    155.10192     -186.34142      3375         
      5960  -56.569939      0.20973367    -56.360205      0.029520714    180.28559     -211.96351      3375         
      5970  -56.540381      0.20115656    -56.339225      0.029520714    172.91276      732.01349      3375         
      5980  -56.594633      0.26644476    -56.328188      0.029520714    229.03404      241.54447      3375         
      5990  -56.601336      0.29439017    -56.306946      0.029520714    253.05572     -1007.9621      3375         
      6000  -56.659186      0.36753921    -56.291647      0.029520714    315.93412     -394.74127      3375         
      6010  -56.58387       0.31413215    -56.269737      0.029520714    270.02578      708.28346      3375         
      6020  -56.484189      0.23934788    -56.244841      0.029520714    205.74175      146.58405      3375         
      6030  -56.472585      0.2323149     -56.24027       0.029520714    199.69626     -675.57289      3375         
      6040  -56.492768      0.26245876    -56.230309      0.029520714    225.6077      -121.54054      3375         
      6050  -56.538099      0.32066857    -56.21743       0.029520714    275.64445      984.68794      3375         
      6060  -56.536125      0.3406885     -56.195437      0.029520714    292.85344      926.03102      3375         
      6070  -56.588467      0.39858846    -56.189879      0.029520714    342.62383     -1043.5306      3375         
      6080  -56.526777      0.35236279    -56.174415      0.029520714    302.88857     -1326.6935      3375         
      6090  -56.440151      0.27170019    -56.168451      0.029520714    233.55157      931.29506      3375         
      6100  -56.472063      0.30806798    -56.163995      0.029520714    264.81307      976.69624      3375         
      6110  -56.460183      0.30572712    -56.154456      0.029520714    262.80088     -603.63299      3375         
      6120  -56.486752      0.34374988    -56.143002      0.029520714    295.48497     -518.73048      3375         
      6130  -56.399063      0.26177144    -56.137291      0.029520714    225.01688      237.1953       3375         
      6140  -56.60301       0.47428032    -56.128729      0.029520714    407.68803     -296.1056       3375         
      6150  -56.550524      0.43003176    -56.120492      0.029520714    369.65228     -605.10614      3375         
      6160  -56.4974        0.37490911    -56.122491      0.029520714    322.26923      884.00909      3375         
      6170  -56.340014      0.22554504    -56.114469      0.029520714    193.87693      1788.9043      3375         
      6180  -56.422574      0.33094612    -56.091628      0.029520714    284.47896     -298.32451      3375         
      6190  -56.368542      0.26856447    -56.099978      0.029520714    230.85613     -1880.9932      3375         
      6200  -56.498572      0.40488699    -56.093685      0.029520714    348.03801     -922.98688      3375         
      6210  -56.562888      0.47983203    -56.083056      0.029520714    412.46023      830.12232      3375         
      6220  -56.554395      0.47797017    -56.076425      0.029520714    410.8598       1183.8861      3375         
      6230  -56.497639      0.41969946    -56.077939      0.029520714    360.7707      -74.37823       3375         
      6240  -56.413659      0.33958028    -56.074079      0.029520714    291.90082     -284.58881      3375         
      6250  -56.40776       0.33718785    -56.070572      0.029520714    289.8443       331.02274      3375         
      6260  -56.394005      0.32166129    -56.072344      0.029520714    276.49778     -444.83485      3375         
      6270  -56.391208      0.32069767    -56.07051       0.029520714    275.66946     -853.6899       3375         
      6280  -56.569786      0.49925093    -56.070535      0.029520714    429.15259      442.49135      3375         
      6290  -56.62851       0.55924227    -56.069267      0.029520714    480.72072      550.04206      3375         
      6300  -56.446015      0.36968413    -56.076331      0.029520714    317.77788     -527.98767      3375         
      6310  -56.467632      0.37714289    -56.09049       0.029520714    324.18937     -44.094765      3375         
      6320  -56.407303      0.31023404    -56.097069      0.029520714    266.675        754.20752      3375         
      6330  -56.354705      0.26584295    -56.088862      0.029520714    228.51673      615.13156      3375         
      6340  -56.503324      0.40565385    -56.09767       0.029520714    348.69719     -296.96514      3375         
      6350  -56.526677      0.40587089    -56.120806      0.029520714    348.88376     -1602.7658      3375         
      6360  -56.539415      0.41098444    -56.128431      0.029520714    353.27933     -660.99682      3375         
[...]
     48420  -56.376739      0.22368341    -56.153055      0.029520714    192.27669      33.269727      3375         
     48430  -56.562809      0.41246006    -56.150349      0.029520714    354.54777      1512.2174      3375         
     48440  -56.524805      0.38201641    -56.142789      0.029520714    328.37862      332.86135      3375         
     48450  -56.520893      0.38460064    -56.136292      0.029520714    330.6         -212.41898      3375         
     48460  -56.516987      0.38703824    -56.129948      0.029520714    332.69534      75.473074      3375         
     48470  -56.449589      0.32568107    -56.123908      0.029520714    279.95316     -856.30148      3375         
     48480  -56.522984      0.40432835    -56.118656      0.029520714    347.5578      -811.7236       3375         
     48490  -56.492615      0.38042996    -56.112185      0.029520714    327.01492      625.34267      3375         
     48500  -56.331893      0.23318923    -56.098704      0.029520714    200.44782      1071.1136      3375         
     48510  -56.41214       0.33459593    -56.077544      0.029520714    287.61631      658.04927      3375         
     48520  -56.603671      0.53068401    -56.072987      0.029520714    456.17224     -807.78893      3375         
     48530  -56.504147      0.4572119     -56.046936      0.029520714    393.01613     -1628.2691      3375         
     48540  -56.494589      0.45983465    -56.034755      0.029520714    395.27063      234.11068      3375         
     48550  -56.405855      0.38882873    -56.017026      0.029520714    334.23444      1657.6412      3375         
     48560  -56.321112      0.31368632    -56.007426      0.029520714    269.64255      374.12481      3375         
     48570  -56.343166      0.34785839    -55.995308      0.029520714    299.01663     -796.57384      3375         
     48580  -56.529861      0.55726943    -55.972591      0.029520714    479.02488     -710.94342      3375         
     48590  -56.485063      0.53214884    -55.952914      0.029520714    457.43139     -225.57952      3375         
     48600  -56.351987      0.41174797    -55.940239      0.029520714    353.93566      282.89432      3375         
     48610  -56.457518      0.52835528    -55.929163      0.029520714    454.17048      303.18978      3375         
     48620  -56.40756       0.48455246    -55.923007      0.029520714    416.51788      40.713194      3375         
     48630  -56.33471       0.4196853     -55.915025      0.029520714    360.75853      537.36138      3375         
     48640  -56.333472      0.41952188    -55.91395       0.029520714    360.61805      130.98628      3375         
     48650  -56.284825      0.36890339    -55.915921      0.029520714    317.10676     -703.19998      3375         
     48660  -56.425764      0.51588799    -55.909876      0.029520714    443.45369      145.52607      3375         
     48670  -56.602397      0.68632714    -55.91607       0.029520714    589.96198      453.04993      3375         
     48680  -56.416309      0.47901221    -55.937297      0.029520714    411.75552     -970.14822      3375         
     48690  -56.246242      0.29641219    -55.94983       0.029520714    254.79384     -904.17769      3375         
     48700  -56.382227      0.42571175    -55.956516      0.029520714    365.93883      911.89875      3375         
     48710  -56.367719      0.3869333     -55.980785      0.029520714    332.60514      1478.1124      3375         
     48720  -56.516766      0.51287496    -56.003891      0.029520714    440.86371      480.40678      3375         
     48730  -56.499379      0.46142425    -56.037955      0.029520714    396.63704     -983.98103      3375         
     48740  -56.390519      0.33269211    -56.057827      0.029520714    285.9798      -1356.1306      3375         
     48750  -56.509648      0.4183177     -56.091331      0.029520714    359.58295      54.011328      3375         
     48760  -56.580384      0.45368762    -56.126697      0.029520714    389.98669      408.87556      3375         
     48770  -56.402864      0.25098953    -56.151875      0.029520714    215.74883     -64.801498      3375         
     48780  -56.471958      0.30646336    -56.165495      0.029520714    263.43375      893.80282      3375         
     48790  -56.517131      0.33573234    -56.181399      0.029520714    288.59316      700.7054       3375         
     48800  -56.524202      0.32097215    -56.20323       0.029520714    275.9054      -1120.8907      3375         
     48810  -56.625794      0.40582171    -56.219973      0.029520714    348.84148     -782.27968      3375         
     48820  -56.594133      0.35657183    -56.237561      0.029520714    306.50664      557.53626      3375         
     48830  -56.462056      0.21707574    -56.24498       0.029520714    186.59678      559.25857      3375         
     48840  -56.53217       0.27689388    -56.255276      0.029520714    238.01603      105.10168      3375         
     48850  -56.5474        0.28791033    -56.259489      0.029520714    247.48569     -647.88315      3375         
     48860  -56.537391      0.27750374    -56.259888      0.029520714    238.54026     -390.91582      3375         
     48870  -56.6184        0.35176294    -56.266637      0.029520714    302.37294      714.09581      3375         
     48880  -56.547699      0.27945202    -56.268247      0.029520714    240.21499      128.43469      3375         
     48890  -56.538429      0.26878652    -56.269643      0.029520714    231.047       -645.05735      3375         
     48900  -56.619834      0.34814303    -56.271691      0.029520714    299.2613       342.18228      3375         
     48910  -56.546063      0.27867349    -56.267389      0.029520714    239.54577      254.9637       3375         
     48920  -56.445385      0.18000929    -56.265376      0.029520714    154.73472     -568.16108      3375         
     48930  -56.507423      0.24301986    -56.264403      0.029520714    208.89816      216.93059      3375         
     48940  -56.595589      0.33667782    -56.258911      0.029520714    289.40588      451.90034      3375         
     48950  -56.574508      0.32565354    -56.248855      0.029520714    279.92949     -93.240415      3375         
     48960  -56.578508      0.33477939    -56.243729      0.029520714    287.77401     -273.79663      3375         
     48970  -56.511257      0.27425308    -56.237004      0.029520714    235.74602     -677.43304      3375         
     48980  -56.462329      0.23300632    -56.229323      0.029520714    200.29059      170.51835      3375         
     48990  -56.533657      0.31423963    -56.219417      0.029520714    270.11818      1458.5208      3375         
     49000  -56.578581      0.36868673    -56.209894      0.029520714    316.92052     -10.391442      3375         
     49010  -56.440745      0.24391984    -56.196825      0.029520714    209.67178     -1329.4596      3375         
     49020  -56.478036      0.29352713    -56.184509      0.029520714    252.31385     -225.4862       3375         
     49030  -56.589554      0.41627307    -56.17328       0.029520714    357.82541      84.793739      3375         
     49040  -56.519814      0.36458394    -56.15523       0.029520714    313.39379     -59.143647      3375         
     49050  -56.426124      0.28928144    -56.136842      0.029520714    248.66429      877.00346      3375         
     49060  -56.481397      0.3582016     -56.123195      0.029520714    307.90757      476.60172      3375         
     49070  -56.462362      0.3578737     -56.104488      0.029520714    307.62571     -271.91122      3375         
     49080  -56.466548      0.37631118    -56.090237      0.029520714    323.47444     -385.7584       3375         
     49090  -56.51463       0.4425117     -56.072118      0.029520714    380.37994     -1057.3352      3375         
     49100  -56.451549      0.39295701    -56.058592      0.029520714    337.78308      58.687658      3375         
     49110  -56.403849      0.36366306    -56.040186      0.029520714    312.6022       1729.0143      3375         
     49120  -56.440297      0.40883393    -56.031463      0.029520714    351.43077      20.863716      3375         
     49130  -56.406845      0.38743516    -56.01941       0.029520714    333.03654     -1410.0526      3375         
     49140  -56.481678      0.48145942    -56.000219      0.029520714    413.85913      13.215043      3375         
     49150  -56.487757      0.49139051    -55.996367      0.029520714    422.39582      388.19813      3375         
     49160  -56.395308      0.40839994    -55.986908      0.029520714    351.05771     -74.975365      3375         
     49170  -56.490628      0.50617632    -55.984452      0.029520714    435.1056       382.16383      3375         
     49180  -56.430672      0.44664875    -55.984023      0.029520714    383.93613     -40.056027      3375         
     49190  -56.329747      0.34658166    -55.983165      0.029520714    297.91915     -328.67779      3375         
     49200  -56.432757      0.44484674    -55.98791       0.029520714    382.38713      286.40685      3375         
     49210  -56.420284      0.430389      -55.989895      0.029520714    369.95936     -383.53174      3375         
     49220  -56.42916       0.43507138    -55.994088      0.029520714    373.9843      -157.49192      3375         
     49230  -56.564624      0.55570495    -56.008919      0.029520714    477.68006      938.04897      3375         
     49240  -56.442965      0.40992508    -56.03304       0.029520714    352.36871     -291.35685      3375         
     49250  -56.337695      0.28418991    -56.053505      0.029520714    244.28765     -999.57846      3375         
     49260  -56.488088      0.40495485    -56.083133      0.029520714    348.09634      543.27965      3375         
     49270  -56.490201      0.35832434    -56.131876      0.029520714    308.01308      849.42844      3375         
     49280  -56.453609      0.2813208     -56.172288      0.029520714    241.82138      77.03771       3375         
     49290  -56.492151      0.27645113    -56.2157        0.029520714    237.63545     -634.76583      3375         
     49300  -56.568146      0.31784045    -56.250306      0.029520714    273.21341     -1090.945       3375         
     49310  -56.592354      0.30820394    -56.28415       0.029520714    264.92994      108.94507      3375         
     49320  -56.581437      0.26984361    -56.311593      0.029520714    231.95566      1171.1997      3375         
     49330  -56.540869      0.2171171     -56.323752      0.029520714    186.63233      257.16161      3375         
     49340  -56.569821      0.23749582    -56.332325      0.029520714    204.14973      110.00861      3375         
     49350  -56.565663      0.22570342    -56.33996       0.029520714    194.01308      220.72769      3375         
     49360  -56.562879      0.21693937    -56.345939      0.029520714    186.47956     -967.66652      3375         
     49370  -56.60841       0.25866597    -56.349744      0.029520714    222.34744     -879.51668      3375         
     49380  -56.59207       0.23993376    -56.352136      0.029520714    206.24537      472.8494       3375         
     49390  -56.588763      0.23830174    -56.350462      0.029520714    204.8425       676.47504      3375         
     49400  -56.616318      0.26586575    -56.350452      0.029520714    228.53633      452.88896      3375         
     49410  -56.589015      0.24054326    -56.348471      0.029520714    206.76929     -87.234028      3375         
     49420  -56.561286      0.21959064    -56.341695      0.029520714    188.75857     -685.72789      3375         
     49430  -56.579683      0.24196522    -56.337718      0.029520714    207.9916      -3.7109807      3375         
     49440  -56.575989      0.2434332     -56.332556      0.029520714    209.25346      455.06529      3375         
     49450  -56.595576      0.27440492    -56.321171      0.029520714    235.87654     -357.24494      3375         
     49460  -56.630963      0.32329512    -56.307668      0.029520714    277.90221     -196.08995      3375         
     49470  -56.555403      0.25787862    -56.297525      0.029520714    221.67065      283.41356      3375         
     49480  -56.478502      0.19260858    -56.285894      0.029520714    165.56498     -194.31681      3375         
     49490  -56.506213      0.23466427    -56.271548      0.029520714    201.71576      141.92878      3375         
     49500  -56.615643      0.36089685    -56.254746      0.029520714    310.2244       533.70644      3375         
     49510  -56.562375      0.33138155    -56.230994      0.029520714    284.85325     -128.48918      3375         
     49520  -56.489353      0.27539579    -56.213958      0.029520714    236.72828     -257.1448       3375         
     49530  -56.511147      0.31559372    -56.195553      0.029520714    271.28214     -451.89263      3375         
     49540  -56.519565      0.34114737    -56.178418      0.029520714    293.24788     -407.51888      3375         
     49550  -56.458613      0.30007209    -56.158541      0.029520714    257.93986      1024.1397      3375         
     49560  -56.496456      0.35658404    -56.139872      0.029520714    306.51713      865.17525      3375         
     49570  -56.443825      0.31554237    -56.128283      0.029520714    271.238       -1038.1045      3375         
     49580  -56.390476      0.28252287    -56.107953      0.029520714    242.85467     -917.70031      3375         
     49590  -56.554419      0.4608692     -56.09355       0.029520714    396.15992      141.1634       3375         
     49600  -56.561705      0.47930878    -56.082396      0.029520714    412.01045      508.73238      3375         
     49610  -56.433445      0.37377672    -56.059668      0.029520714    321.29584      981.64503      3375         
     49620  -56.345966      0.29711892    -56.048847      0.029520714    255.40133      166.28883      3375         
     49630  -56.38752       0.3435448     -56.043975      0.029520714    295.30869     -1129.3406      3375         
     49640  -56.419324      0.38188394    -56.03744       0.029520714    328.26475     -320.09866      3375         
     49650  -56.474032      0.44573149    -56.0283        0.029520714    383.14765     -98.787764      3375         
     49660  -56.451684      0.43004755    -56.021637      0.029520714    369.66585     -414.96783      3375         
     49670  -56.403096      0.38487765    -56.018218      0.029520714    330.83812      1217.4104      3375         
     49680  -56.402663      0.39224286    -56.01042       0.029520714    337.1692       1346.4405      3375         
     49690  -56.482966      0.46851199    -56.014454      0.029520714    402.72961     -856.61031      3375         
     49700  -56.497188      0.48681025    -56.010378      0.029520714    418.45866     -1298.4376      3375         
     49710  -56.318897      0.30757933    -56.011318      0.029520714    264.39302     -229.00665      3375         
     49720  -56.280492      0.26297835    -56.017514      0.029520714    226.05434      407.60499      3375         
     49730  -56.512797      0.49744865    -56.015349      0.029520714    427.60336      576.5911       3375         
     49740  -56.533114      0.50962659    -56.023487      0.029520714    438.07143     -345.59912      3375         
     49750  -56.378768      0.34552353    -56.033245      0.029520714    297.0096      -201.91897      3375         
     49760  -56.36131       0.32042146    -56.040889      0.029520714    275.43203      1152.7434      3375         
     49770  -56.476014      0.42606177    -56.049952      0.029520714    366.2397      -26.207076      3375         
     49780  -56.441584      0.3804729     -56.061111      0.029520714    327.05183     -1190.2297      3375         
     49790  -56.461844      0.38350249    -56.078342      0.029520714    329.65604      148.86904      3375         
     49800  -56.452423      0.35653241    -56.09589       0.029520714    306.47275      272.02325      3375         
     49810  -56.404869      0.29294424    -56.111925      0.029520714    251.81281     -590.26676      3375         
     49820  -56.40337       0.27612889    -56.127241      0.029520714    237.35845      405.81421      3375         
     49830  -56.597927      0.44255525    -56.155372      0.029520714    380.41738      828.3697       3375         
     49840  -56.559094      0.38021201    -56.178882      0.029520714    326.82757      227.20014      3375         
     49850  -56.404308      0.19584201    -56.208466      0.029520714    168.34441     -501.17421      3375         
     49860  -56.480142      0.25569409    -56.224448      0.029520714    219.79284     -1224.0201      3375         
     49870  -56.638754      0.38828594    -56.250469      0.029520714    333.76786     -343.55948      3375         
     49880  -56.538705      0.26092052    -56.277785      0.029520714    224.28545      1334.5957      3375         
     49890  -56.485581      0.19087076    -56.29471       0.029520714    164.07116      543.09391      3375         
     49900  -56.563119      0.25846449    -56.304655      0.029520714    222.17425     -421.18545      3375         
     49910  -56.578195      0.25888628    -56.319309      0.029520714    222.53683      121.71689      3375         
     49920  -56.588999      0.25650526    -56.332494      0.029520714    220.49012     -370.76877      3375         
     49930  -56.636622      0.2964239     -56.340198      0.029520714    254.8039      -739.3595       3375         
     49940  -56.584695      0.23724657    -56.347448      0.029520714    203.93548      355.83902      3375         
     49950  -56.530305      0.17782186    -56.352483      0.029520714    152.85442      573.32551      3375         
     49960  -56.600337      0.24834418    -56.351993      0.029520714    213.47491      277.92023      3375         
     49970  -56.607551      0.25381093    -56.35374       0.029520714    218.17409      77.259556      3375         
     49980  -56.584877      0.23415331    -56.350723      0.029520714    201.27654     -727.97888      3375         
     49990  -56.583289      0.23367762    -56.349612      0.029520714    200.86764     -312.47537      3375         
     50000  -56.584712      0.23908403    -56.345628      0.029520714    205.51495      580.61377      3375         
Loop time of 82.8396 on 3 procs for 50000 steps with 10 atoms

Performance: 26.074 ns/day, 0.920 hours/ns, 603.576 timesteps/s, 6.036 katom-step/s
168.3% CPU use with 3 MPI tasks x no OpenMP threads

MPI task timing breakdown:
Section |  min time  |  avg time  |  max time  |%varavg| %total
---------------------------------------------------------------
Pair    | 28.411     | 46.067     | 78.742     | 340.8 | 55.61
Neigh   | 0.00096338 | 0.0012371  | 0.0017723  |   1.1 |  0.00
Comm    | 1.3941     | 33.995     | 51.577     | 395.8 | 41.04
Output  | 0.56931    | 0.60011    | 0.61669    |   2.8 |  0.72
Modify  | 1.8539     | 1.9571     | 2.1031     |   7.6 |  2.36
Other   |            | 0.2196     |            |       |  0.27

Nlocal:        3.33333 ave          10 max           0 min
Histogram: 2 0 0 0 0 0 0 0 0 1
Nghost:             86 ave         107 max          54 min
Histogram: 1 0 0 0 0 0 0 0 1 1
Neighs:              0 ave           0 max           0 min
Histogram: 3 0 0 0 0 0 0 0 0 0
FullNghs:           30 ave          90 max           0 min
Histogram: 2 0 0 0 0 0 0 0 0 1

Total # of neighbors = 90
Ave neighs/atom = 9
Neighbor list builds = 197
Dangerous builds = 0

write_data	restart.data
System init for write_data ...
Generated 0 of 1 mixed pair_coeff terms from geometric mixing rule
#
Total wall time: 0:01:24
