ITEM: TIMESTEP
0
ITEM: NUMBER OF ATOMS
10
ITEM: BOX BOUNDS pp pp pp
0.0000000000000000e+00 1.5000000000000000e+01
0.0000000000000000e+00 1.5000000000000000e+01
0.0000000000000000e+00 1.5000000000000000e+01
ITEM: ATOMS id type x y z
10 2 7.12547 7.26558 9.28573
4 1 7.02495 7.97871 8.42579
7 2 8.10426 6.27778 5.87004
8 2 5.53231 6.80312 6.87485
9 2 6.58666 8.94134 8.6733
1 1 8.55798 7.84964 7.54249
3 1 6.57137 7.1412 7.19354
2 1 7.77032 6.94138 6.67089
6 2 9.47683 7.61012 8.15551
5 2 8.75079 8.85651 7.03331
ITEM: TIMESTEP
100
ITEM: NUMBER OF ATOMS
10
ITEM: BOX BOUNDS pp pp pp
0.0000000000000000e+00 1.5000000000000000e+01
0.0000000000000000e+00 1.5000000000000000e+01
0.0000000000000000e+00 1.5000000000000000e+01
ITEM: ATOMS id type x y z
10 2 6.80207 7.68715 9.36924
4 1 7.0093 7.93241 8.33355
7 2 8.11631 6.84204 5.55791
8 2 5.76318 6.42101 6.99748
9 2 6.55461 8.96543 8.15973
1 1 8.4929 7.85237 7.69112
3 1 6.63042 6.96874 7.25638
2 1 7.8252 7.13373 6.57236
6 2 9.14873 7.18743 8.25342
5 2 8.99217 8.79345 7.4307
ITEM: TIMESTEP
200
ITEM: NUMBER OF ATOMS
10
ITEM: BOX BOUNDS pp pp pp
0.0000000000000000e+00 1.5000000000000000e+01
0.0000000000000000e+00 1.5000000000000000e+01
0.0000000000000000e+00 1.5000000000000000e+01
ITEM: ATOMS id type x y z
10 2 6.90345 7.32032 9.31484
4 1 6.96516 7.84944 8.34082
7 2 8.39731 6.54197 5.76981
8 2 5.64012 6.67252 6.725
9 2 6.48751 8.80853 8.4957
1 1 8.44741 7.95365 7.74396
3 1 6.62983 7.07874 7.10597
2 1 7.88938 7.01869 6.62756
6 2 9.2928 7.54735 8.25061
5 2 8.81221 8.92622 7.42319
ITEM: TIMESTEP
300
ITEM: NUMBER OF ATOMS
10
ITEM: BOX BOUNDS pp pp pp
0.0000000000000000e+00 1.5000000000000000e+01
0.0000000000000000e+00 1.5000000000000000e+01
0.0000000000000000e+00 1.5000000000000000e+01
ITEM: ATOMS id type x y z
10 2 6.86498 7.20341 9.23653
4 1 6.89628 7.8148 8.34083
7 2 8.49644 6.6736 5.88193
8 2 5.75922 6.65168 6.66476
9 2 6.36101 8.77354 8.43005
1 1 8.49511 7.95068 7.73249
3 1 6.65715 7.05363 7.0447
2 1 7.91167 7.09178 6.66556
6 2 9.2129 7.44377 8.42405
5 2 8.66824 9.00863 7.55022
ITEM: TIMESTEP
400
ITEM: NUMBER OF ATOMS
10
ITEM: BOX BOUNDS pp pp pp
0.0000000000000000e+00 1.5000000000000000e+01
0.0000000000000000e+00 1.5000000000000000e+01
0.0000000000000000e+00 1.5000000000000000e+01
ITEM: ATOMS id type x y z
10 2 6.6932 7.44322 9.33432
4 1 6.81015 7.81697 8.30061
7 2 8.52685 6.97276 5.64789
8 2 5.79025 6.35675 6.7372
9 2 6.35323 8.83455 8.16813
1 1 8.4564 7.92504 7.85221
3 1 6.71431 6.90544 7.04844
2 1 7.96342 7.24382 6.58457
6 2 9.17813 7.28959 8.43739
5 2 8.91669 8.97552 7.84906
ITEM: TIMESTEP
500
ITEM: NUMBER OF ATOMS
10
ITEM: BOX BOUNDS pp pp pp
0.0000000000000000e+00 1.5000000000000000e+01
0.0000000000000000e+00 1.5000000000000000e+01
0.0000000000000000e+00 1.5000000000000000e+01
ITEM: ATOMS id type x y z
10 2 6.83104 7.01615 9.12506
4 1 6.84615 7.72941 8.28388
7 2 8.72321 6.66509 5.98464
8 2 5.86139 6.71798 6.31311
9 2 6.1506 8.51455 8.49474
1 1 8.37074 7.99003 7.87246
3 1 6.68836 7.07783 6.96731
2 1 8.0762 7.14599 6.67644
6 2 9.18562 7.60383 8.52088
5 2 8.48347 9.04278 7.64997
ITEM: TIMESTEP
600
ITEM: NUMBER OF ATOMS
10
ITEM: BOX BOUNDS pp pp pp
0.0000000000000000e+00 1.5000000000000000e+01
0.0000000000000000e+00 1.5000000000000000e+01
0.0000000000000000e+00 1.5000000000000000e+01
ITEM: ATOMS id type x y z
10 2 6.57316 7.15131 9.25106
4 1 6.7678 7.66129 8.28
7 2 8.80041 6.99752 5.80266
8 2 6.07487 6.51084 6.31471
9 2 6.07139 8.51736 8.20944
1 1 8.32397 8.01125 7.9647
3 1 6.81904 6.99965 6.89837
2 1 8.08254 7.25167 6.65066
6 2 8.98855 7.44444 8.57607
5 2 8.65551 9.05534 7.97266
ITEM: TIMESTEP
700
ITEM: NUMBER OF ATOMS
10
ITEM: BOX BOUNDS pp pp pp
0.0000000000000000e+00 1.5000000000000000e+01
0.0000000000000000e+00 1.5000000000000000e+01
0.0000000000000000e+00 1.5000000000000000e+01
ITEM: ATOMS id type x y z
10 2 6.36859 7.21099 9.22912
4 1 6.64882 7.60697 8.22442
7 2 8.71943 7.33966 5.81674
8 2 6.25028 6.31702 6.24306
9 2 5.99367 8.5248 8.01093
1 1 8.31054 8.00204 8.0591
3 1 6.95987 6.9004 6.83461
2 1 8.11059 7.40018 6.66098
6 2 8.94986 7.35387 8.68912
5 2 8.66326 9.01611 8.22538
ITEM: TIMESTEP
800
ITEM: NUMBER OF ATOMS
10
ITEM: BOX BOUNDS pp pp pp
0.0000000000000000e+00 1.5000000000000000e+01
0.0000000000000000e+00 1.5000000000000000e+01
0.0000000000000000e+00 1.5000000000000000e+01
ITEM: ATOMS id type x y z
10 2 6.67302 6.68038 8.88731
4 1 6.66207 7.53427 8.17758
7 2 9.02688 6.99079 6.09425
8 2 6.33945 6.76445 5.8452
9 2 5.78002 8.16574 8.31863
1 1 8.25648 8.04581 8.07783
3 1 6.88091 7.03478 6.78715
2 1 8.22829 7.33677 6.77562
6 2 8.95932 7.75961 8.90338
5 2 8.17884 9.14928 7.93114
ITEM: TIMESTEP
900
ITEM: NUMBER OF ATOMS
10
ITEM: BOX BOUNDS pp pp pp
0.0000000000000000e+00 1.5000000000000000e+01
0.0000000000000000e+00 1.5000000000000000e+01
0.0000000000000000e+00 1.5000000000000000e+01
ITEM: ATOMS id type x y z
10 2 6.36128 6.87723 8.96063
4 1 6.61905 7.49487 8.1186
7 2 9.03815 7.3889 5.9457
8 2 6.42153 6.40186 5.98935
9 2 5.90492 8.3007 8.08909
1 1 8.16035 8.04839 8.17936
3 1 6.96412 6.92549 6.75239
2 1 8.27682 7.46885 6.73817
6 2 8.85715 7.49342 8.82255
5 2 8.41896 9.1323 8.35061
ITEM: TIMESTEP
1000
ITEM: NUMBER OF ATOMS
10
ITEM: BOX BOUNDS pp pp pp
0.0000000000000000e+00 1.5000000000000000e+01
0.0000000000000000e+00 1.5000000000000000e+01
0.0000000000000000e+00 1.5000000000000000e+01
ITEM: ATOMS id type x y z
10 2 6.27045 6.73014 8.87281
4 1 6.60309 7.44296 8.09421
7 2 9.1078 7.55607 6.12671
8 2 6.51682 6.37244 5.92785
9 2 5.88146 8.28263 7.9963
1 1 8.16 8.06491 8.16394
3 1 7.06092 6.96443 6.72687
2 1 8.24457 7.48946 6.7928
6 2 8.71008 7.41087 8.86066
5 2 8.22592 9.09726 8.43775
ITEM: TIMESTEP
1100
ITEM: NUMBER OF ATOMS
10
ITEM: BOX BOUNDS pp pp pp
0.0000000000000000e+00 1.5000000000000000e+01
0.0000000000000000e+00 1.5000000000000000e+01
0.0000000000000000e+00 1.5000000000000000e+01
ITEM: ATOMS id type x y z
10 2 6.55327 6.45818 8.6912
4 1 6.56765 7.39243 8.05221
7 2 9.28107 7.30632 6.39691
8 2 6.49276 6.76849 5.83046
9 2 5.67871 8.02434 8.28597
1 1 8.08859 8.05604 8.20884
3 1 7.08755 7.04986 6.63736
2 1 8.33258 7.45232 6.83932
6 2 8.71537 7.80885 9.05379
5 2 7.94461 9.14997 8.20434
ITEM: TIMESTEP
1200
ITEM: NUMBER OF ATOMS
10
ITEM: BOX BOUNDS pp pp pp
0.0000000000000000e+00 1.5000000000000000e+01
0.0000000000000000e+00 1.5000000000000000e+01
0.0000000000000000e+00 1.5000000000000000e+01
ITEM: ATOMS id type x y z
10 2 6.19276 6.66076 8.6907
4 1 6.55676 7.37365 7.96603
7 2 9.28273 7.84015 6.23229
8 2 6.68741 6.30978 5.85261
9 2 5.80826 8.20984 7.95863
1 1 8.01576 7.99467 8.28106
3 1 7.17734 6.90373 6.69833
2 1 8.3276 7.68354 6.82738
6 2 8.64792 7.38863 8.97305
5 2 8.04014 9.07735 8.54492
ITEM: TIMESTEP
1300
ITEM: NUMBER OF ATOMS
10
ITEM: BOX BOUNDS pp pp pp
0.0000000000000000e+00 1.5000000000000000e+01
0.0000000000000000e+00 1.5000000000000000e+01
0.0000000000000000e+00 1.5000000000000000e+01
ITEM: ATOMS id type x y z
10 2 6.22915 6.40864 8.54785
4 1 6.54909 7.25378 7.95077
7 2 9.356 7.83762 6.49558
8 2 6.87541 6.47044 5.69455
9 2 5.76837 7.97369 7.85798
1 1 7.97673 8.07311 8.28671
3 1 7.17162 7.01495 6.60111
2 1 8.40508 7.63243 6.93038
6 2 8.50482 7.56719 9.14847
5 2 7.77516 9.11677 8.53083
ITEM: TIMESTEP
1400
ITEM: NUMBER OF ATOMS
10
ITEM: BOX BOUNDS pp pp pp
0.0000000000000000e+00 1.5000000000000000e+01
0.0000000000000000e+00 1.5000000000000000e+01
0.0000000000000000e+00 1.5000000000000000e+01
ITEM: ATOMS id type x y z
10 2 6.44229 6.23002 8.48736
4 1 6.52514 7.15963 7.8559
7 2 9.42623 7.70587 6.56973
8 2 6.91002 6.67239 5.60107
9 2 5.5963 7.746 7.95171
1 1 7.88273 8.06662 8.37481
3 1 7.2994 7.13135 6.51477
2 1 8.40672 7.62343 7.02549
6 2 8.40916 7.81392 9.28312
5 2 7.65602 9.16562 8.37017
ITEM: TIMESTEP
1500
ITEM: NUMBER OF ATOMS
10
ITEM: BOX BOUNDS pp pp pp
0.0000000000000000e+00 1.5000000000000000e+01
0.0000000000000000e+00 1.5000000000000000e+01
0.0000000000000000e+00 1.5000000000000000e+01
ITEM: ATOMS id type x y z
10 2 6.15213 6.31989 8.32476
4 1 6.51602 7.22425 7.8063
7 2 9.22936 8.15666 6.52125
8 2 7.3658 6.38544 5.69998
9 2 5.65297 7.94445 7.57385
1 1 7.85266 7.98134 8.40513
3 1 7.39299 6.9806 6.60209
2 1 8.34866 7.81062 6.98687
6 2 8.38927 7.43562 9.23498
5 2 7.67248 8.99709 8.73187
ITEM: TIMESTEP
1600
ITEM: NUMBER OF ATOMS
10
ITEM: BOX BOUNDS pp pp pp
0.0000000000000000e+00 1.5000000000000000e+01
0.0000000000000000e+00 1.5000000000000000e+01
0.0000000000000000e+00 1.5000000000000000e+01
ITEM: ATOMS id type x y z
10 2 6.37513 6.16575 8.23631
4 1 6.52237 7.15482 7.77353
7 2 9.46028 7.96854 6.61723
8 2 7.35803 6.62667 5.52992
9 2 5.50053 7.56767 7.73205
1 1 7.758 8.01866 8.42183
3 1 7.37586 7.10316 6.52355
2 1 8.45251 7.74208 7.0954
6 2 8.28475 7.69605 9.33927
5 2 7.49288 9.08299 8.54843
ITEM: TIMESTEP
1700
ITEM: NUMBER OF ATOMS
10
ITEM: BOX BOUNDS pp pp pp
0.0000000000000000e+00 1.5000000000000000e+01
0.0000000000000000e+00 1.5000000000000000e+01
0.0000000000000000e+00 1.5000000000000000e+01
ITEM: ATOMS id type x y z
10 2 6.47024 6.06532 8.17363
4 1 6.49025 7.0666 7.71674
7 2 9.38781 8.07502 6.71077
8 2 7.41997 6.65639 5.54316
9 2 5.55208 7.57809 7.66055
1 1 7.70902 8.04017 8.42819
3 1 7.44805 7.15644 6.51506
2 1 8.47049 7.75608 7.15056
6 2 8.18406 7.61756 9.29913
5 2 7.40299 9.11191 8.63849
ITEM: TIMESTEP
1800
ITEM: NUMBER OF ATOMS
10
ITEM: BOX BOUNDS pp pp pp
0.0000000000000000e+00 1.5000000000000000e+01
0.0000000000000000e+00 1.5000000000000000e+01
0.0000000000000000e+00 1.5000000000000000e+01
ITEM: ATOMS id type x y z
10 2 6.08564 6.14229 7.99981
4 1 6.51654 7.08842 7.64441
7 2 9.18198 8.58409 6.80876
8 2 7.68493 6.44111 5.62723
9 2 5.64121 7.77856 7.41869
1 1 7.70261 7.99141 8.46138
3 1 7.59944 7.02368 6.57456
2 1 8.36822 7.91179 7.12521
6 2 8.05969 7.25965 9.30344
5 2 7.34966 8.92248 8.89773
ITEM: TIMESTEP
1900
ITEM: NUMBER OF ATOMS
10
ITEM: BOX BOUNDS pp pp pp
0.0000000000000000e+00 1.5000000000000000e+01
0.0000000000000000e+00 1.5000000000000000e+01
0.0000000000000000e+00 1.5000000000000000e+01
ITEM: ATOMS id type x y z
10 2 6.70217 6.01092 8.02466
4 1 6.58421 7.01542 7.5681
7 2 9.49608 8.22539 7.12927
8 2 7.48854 6.87968 5.47296
9 2 5.5497 7.32387 7.59776
1 1 7.50162 7.94672 8.47076
3 1 7.57681 7.183 6.46778
2 1 8.4854 7.87004 7.27391
6 2 7.76781 7.68142 9.49728
5 2 7.23144 9.00764 8.4838
ITEM: TIMESTEP
2000
ITEM: NUMBER OF ATOMS
10
ITEM: BOX BOUNDS pp pp pp
0.0000000000000000e+00 1.5000000000000000e+01
0.0000000000000000e+00 1.5000000000000000e+01
0.0000000000000000e+00 1.5000000000000000e+01
ITEM: ATOMS id type x y z
10 2 6.49191 5.93608 7.91944
4 1 6.59842 6.97563 7.53768
7 2 9.37438 8.54472 7.23843
8 2 7.79522 6.70612 5.43747
9 2 5.59668 7.38168 7.31079
1 1 7.49187 7.95612 8.48763
3 1 7.66442 7.17653 6.48909
2 1 8.43267 7.94572 7.30472
6 2 7.68951 7.40756 9.37856
5 2 7.05199 8.91987 8.68959
ITEM: TIMESTEP
2100
ITEM: NUMBER OF ATOMS
10
ITEM: BOX BOUNDS pp pp pp
0.0000000000000000e+00 1.5000000000000000e+01
0.0000000000000000e+00 1.5000000000000000e+01
0.0000000000000000e+00 1.5000000000000000e+01
ITEM: ATOMS id type x y z
10 2 6.30084 5.93929 7.85159
4 1 6.56549 6.92125 7.44869
7 2 9.18429 8.74245 7.17995
8 2 7.98212 6.6378 5.63941
9 2 5.66474 7.50863 7.15064
1 1 7.4676 7.93717 8.50311
3 1 7.76858 7.15834 6.52142
2 1 8.40242 8.02903 7.32563
6 2 7.7832 7.27211 9.37519
5 2 6.98426 8.84501 8.89912
ITEM: TIMESTEP
2200
ITEM: NUMBER OF ATOMS
10
ITEM: BOX BOUNDS pp pp pp
0.0000000000000000e+00 1.5000000000000000e+01
0.0000000000000000e+00 1.5000000000000000e+01
0.0000000000000000e+00 1.5000000000000000e+01
ITEM: ATOMS id type x y z
10 2 6.77892 5.88599 7.82369
4 1 6.58991 6.90359 7.419
7 2 9.45409 8.46048 7.36141
8 2 7.95146 6.99162 5.44927
9 2 5.54945 7.05379 7.19494
1 1 7.37284 7.90903 8.49056
3 1 7.73373 7.29761 6.51415
2 1 8.45556 7.94545 7.4214
6 2 7.63245 7.55932 9.50007
5 2 6.8454 8.93478 8.48901
ITEM: TIMESTEP
2300
ITEM: NUMBER OF ATOMS
10
ITEM: BOX BOUNDS pp pp pp
0.0000000000000000e+00 1.5000000000000000e+01
0.0000000000000000e+00 1.5000000000000000e+01
0.0000000000000000e+00 1.5000000000000000e+01
ITEM: ATOMS id type x y z
10 2 6.46565 5.87957 7.56987
4 1 6.59856 6.9454 7.40114
7 2 9.20897 8.76674 7.34086
8 2 8.32007 6.85022 5.64287
9 2 5.6096 7.21875 6.9382
1 1 7.33528 7.85608 8.49092
3 1 7.83986 7.18458 6.54621
2 1 8.40358 8.09618 7.418
6 2 7.69109 7.32543 9.39334
5 2 6.76492 8.68594 8.86628
ITEM: TIMESTEP
2400
ITEM: NUMBER OF ATOMS
10
ITEM: BOX BOUNDS pp pp pp
0.0000000000000000e+00 1.5000000000000000e+01
0.0000000000000000e+00 1.5000000000000000e+01
0.0000000000000000e+00 1.5000000000000000e+01
ITEM: ATOMS id type x y z
10 2 6.54144 5.77076 7.55433
4 1 6.66045 6.85111 7.27739
7 2 9.18859 8.78947 7.32086
8 2 8.33314 6.95415 5.60392
9 2 5.73683 7.28772 6.92812
1 1 7.25 7.85246 8.49496
3 1 7.92112 7.27332 6.58066
2 1 8.33711 8.07887 7.52435
6 2 7.64036 7.38466 9.39713
5 2 6.67157 8.69868 8.82047
ITEM: TIMESTEP
2500
ITEM: NUMBER OF ATOMS
10
ITEM: BOX BOUNDS pp pp pp
0.0000000000000000e+00 1.5000000000000000e+01
0.0000000000000000e+00 1.5000000000000000e+01
0.0000000000000000e+00 1.5000000000000000e+01
ITEM: ATOMS id type x y z
10 2 6.90553 5.72336 7.5132
4 1 6.70484 6.76036 7.27873
7 2 9.29157 8.54882 7.76178
8 2 8.31795 7.34974 5.5054
9 2 5.69255 6.89036 6.80532
1 1 7.16695 7.89042 8.50975
3 1 7.92574 7.39711 6.51573
2 1 8.39878 8.03348 7.57494
6 2 7.27639 7.4751 9.55338
5 2 6.4621 8.74441 8.47495
ITEM: TIMESTEP
2600
ITEM: NUMBER OF ATOMS
10
ITEM: BOX BOUNDS pp pp pp
0.0000000000000000e+00 1.5000000000000000e+01
0.0000000000000000e+00 1.5000000000000000e+01
0.0000000000000000e+00 1.5000000000000000e+01
ITEM: ATOMS id type x y z
10 2 6.55348 5.735 7.38524
4 1 6.74752 6.82298 7.17971
7 2 9.10918 8.95432 7.76476
8 2 8.62518 7.03907 5.71414
9 2 5.8727 7.21806 6.67915
1 1 7.14952 7.75976 8.4735
3 1 8.03568 7.26238 6.62448
2 1 8.25119 8.24668 7.57549
6 2 7.45902 7.18047 9.37744
5 2 6.401 8.54228 8.84921
ITEM: TIMESTEP
2700
ITEM: NUMBER OF ATOMS
10
ITEM: BOX BOUNDS pp pp pp
0.0000000000000000e+00 1.5000000000000000e+01
0.0000000000000000e+00 1.5000000000000000e+01
0.0000000000000000e+00 1.5000000000000000e+01
ITEM: ATOMS id type x y z
10 2 6.7405 5.73575 7.4112
4 1 6.78685 6.77399 7.1672
7 2 9.13547 8.82588 7.95421
8 2 8.50205 7.19263 5.63606
9 2 5.8806 7.04813 6.6278
1 1 7.07588 7.74525 8.43721
3 1 8.06224 7.37359 6.61274
2 1 8.28271 8.21636 7.66964
6 2 7.27531 7.23242 9.37345
5 2 6.34401 8.53004 8.56556
ITEM: TIMESTEP
2800
ITEM: NUMBER OF ATOMS
10
ITEM: BOX BOUNDS pp pp pp
0.0000000000000000e+00 1.5000000000000000e+01
0.0000000000000000e+00 1.5000000000000000e+01
0.0000000000000000e+00 1.5000000000000000e+01
ITEM: ATOMS id type x y z
10 2 6.90214 5.67192 7.43711
4 1 6.79563 6.73517 7.15443
7 2 9.09041 8.80242 8.11776
8 2 8.53163 7.31573 5.61584
9 2 5.89115 6.92389 6.52628
1 1 7.0455 7.78028 8.43624
3 1 8.06051 7.46165 6.60579
2 1 8.32297 8.15517 7.68976
6 2 7.14934 7.23816 9.37638
5 2 6.21175 8.47431 8.49826
ITEM: TIMESTEP
2900
ITEM: NUMBER OF ATOMS
10
ITEM: BOX BOUNDS pp pp pp
0.0000000000000000e+00 1.5000000000000000e+01
0.0000000000000000e+00 1.5000000000000000e+01
0.0000000000000000e+00 1.5000000000000000e+01
ITEM: ATOMS id type x y z
10 2 6.64183 5.71179 7.35105
4 1 6.83766 6.78583 7.05727
7 2 8.93036 9.04904 7.94204
8 2 8.69918 7.13738 5.80771
9 2 5.98225 7.13739 6.48586
1 1 7.02597 7.71017 8.44062
3 1 8.13934 7.36689 6.67703
2 1 8.21543 8.25282 7.7059
6 2 7.40358 7.13411 9.30062
5 2 6.15642 8.35604 8.71685
ITEM: TIMESTEP
3000
ITEM: NUMBER OF ATOMS
10
ITEM: BOX BOUNDS pp pp pp
0.0000000000000000e+00 1.5000000000000000e+01
0.0000000000000000e+00 1.5000000000000000e+01
0.0000000000000000e+00 1.5000000000000000e+01
ITEM: ATOMS id type x y z
10 2 7.00974 5.7699 7.3528
4 1 6.8368 6.7632 7.08341
7 2 9.02527 8.87644 8.19039
8 2 8.71519 7.53978 5.63041
9 2 6.00359 6.80598 6.35893
1 1 6.97233 7.70579 8.42407
3 1 8.13097 7.42869 6.62896
2 1 8.26445 8.20129 7.77739
6 2 7.04497 7.27226 9.45923
5 2 6.09791 8.36183 8.41432
ITEM: TIMESTEP
3100
ITEM: NUMBER OF ATOMS
10
ITEM: BOX BOUNDS pp pp pp
0.0000000000000000e+00 1.5000000000000000e+01
0.0000000000000000e+00 1.5000000000000000e+01
0.0000000000000000e+00 1.5000000000000000e+01
ITEM: ATOMS id type x y z
10 2 6.9987 5.66158 7.29802
4 1 6.90248 6.73195 7.02403
7 2 8.9436 8.89622 8.11886
8 2 8.74072 7.56265 5.79682
9 2 6.12772 6.88134 6.29914
1 1 6.90165 7.67752 8.40191
3 1 8.19478 7.50066 6.6901
2 1 8.19794 8.19662 7.81457
6 2 7.09634 7.19767 9.36342
5 2 6.03583 8.38008 8.42906
ITEM: TIMESTEP
3200
ITEM: NUMBER OF ATOMS
10
ITEM: BOX BOUNDS pp pp pp
0.0000000000000000e+00 1.5000000000000000e+01
0.0000000000000000e+00 1.5000000000000000e+01
0.0000000000000000e+00 1.5000000000000000e+01
ITEM: ATOMS id type x y z
10 2 6.78068 5.59587 7.03268
4 1 6.96877 6.7119 6.95273
7 2 8.76794 9.14848 8.09849
8 2 9.03779 7.42374 6.0382
9 2 6.24513 7.12053 6.16422
1 1 6.86637 7.6419 8.36691
3 1 8.24996 7.48754 6.80805
2 1 8.10824 8.28611 7.79913
6 2 7.17378 7.02155 9.24926
5 2 5.95861 8.14515 8.74518
ITEM: TIMESTEP
3300
ITEM: NUMBER OF ATOMS
10
ITEM: BOX BOUNDS pp pp pp
0.0000000000000000e+00 1.5000000000000000e+01
0.0000000000000000e+00 1.5000000000000000e+01
0.0000000000000000e+00 1.5000000000000000e+01
ITEM: ATOMS id type x y z
10 2 7.30668 5.66029 7.18569
4 1 7.00286 6.68908 6.9818
7 2 8.8687 8.7823 8.49121
8 2 8.91955 7.86874 5.93502
9 2 6.32447 6.64507 6.06623
1 1 6.78756 7.61459 8.31961
3 1 8.22278 7.58779 6.72125
2 1 8.15046 8.25968 7.94613
6 2 6.73362 7.04644 9.24659
5 2 5.98899 8.3103 8.15152
ITEM: TIMESTEP
3400
ITEM: NUMBER OF ATOMS
10
ITEM: BOX BOUNDS pp pp pp
0.0000000000000000e+00 1.5000000000000000e+01
0.0000000000000000e+00 1.5000000000000000e+01
0.0000000000000000e+00 1.5000000000000000e+01
ITEM: ATOMS id type x y z
10 2 7.20377 5.64555 7.08023
4 1 7.08354 6.71475 6.8677
7 2 8.72858 9.07611 8.44818
8 2 9.07926 7.64769 6.04513
9 2 6.36924 6.90017 6.12008
1 1 6.77753 7.53603 8.27619
3 1 8.30625 7.58031 6.84029
2 1 8.01592 8.31024 7.96192
6 2 6.78313 6.95623 9.20066
5 2 5.86065 8.14627 8.31815
ITEM: TIMESTEP
3500
ITEM: NUMBER OF ATOMS
10
ITEM: BOX BOUNDS pp pp pp
0.0000000000000000e+00 1.5000000000000000e+01
0.0000000000000000e+00 1.5000000000000000e+01
0.0000000000000000e+00 1.5000000000000000e+01
ITEM: ATOMS id type x y z
10 2 7.17865 5.62617 6.86881
4 1 7.11224 6.71873 6.86883
7 2 8.39291 9.13788 8.47563
8 2 9.1989 7.59998 6.20035
9 2 6.42597 7.00343 6.04734
1 1 6.7372 7.54421 8.28915
3 1 8.37035 7.60819 6.88193
2 1 8.01235 8.3107 7.93786
6 2 6.85098 6.79503 9.12978
5 2 5.68376 7.96656 8.30049
ITEM: TIMESTEP
3600
ITEM: NUMBER OF ATOMS
10
ITEM: BOX BOUNDS pp pp pp
0.0000000000000000e+00 1.5000000000000000e+01
0.0000000000000000e+00 1.5000000000000000e+01
0.0000000000000000e+00 1.5000000000000000e+01
ITEM: ATOMS id type x y z
10 2 7.51233 5.71753 7.1723
4 1 7.19434 6.72092 6.8602
7 2 8.47737 8.95419 8.74705
8 2 9.04715 7.8603 6.0475
9 2 6.44011 6.76077 6.03486
1 1 6.68045 7.50878 8.20862
3 1 8.30019 7.70773 6.84776
2 1 8.04756 8.21248 8.05404
6 2 6.51628 6.91628 9.1402
5 2 5.79552 8.11144 7.92336
ITEM: TIMESTEP
3700
ITEM: NUMBER OF ATOMS
10
ITEM: BOX BOUNDS pp pp pp
0.0000000000000000e+00 1.5000000000000000e+01
0.0000000000000000e+00 1.5000000000000000e+01
0.0000000000000000e+00 1.5000000000000000e+01
ITEM: ATOMS id type x y z
10 2 7.34078 5.69376 6.86543
4 1 7.20993 6.78238 6.80299
7 2 8.23977 9.22128 8.62693
8 2 9.29687 7.63699 6.29686
9 2 6.51573 6.8886 5.99031
1 1 6.69394 7.43897 8.19192
3 1 8.41819 7.63817 6.93574
2 1 7.89969 8.32805 8.05786
6 2 6.68782 6.82319 9.05004
5 2 5.71252 7.83074 8.12836
ITEM: TIMESTEP
3800
ITEM: NUMBER OF ATOMS
10
ITEM: BOX BOUNDS pp pp pp
0.0000000000000000e+00 1.5000000000000000e+01
0.0000000000000000e+00 1.5000000000000000e+01
0.0000000000000000e+00 1.5000000000000000e+01
ITEM: ATOMS id type x y z
10 2 7.56834 5.6864 6.85045
4 1 7.22964 6.72495 6.76663
7 2 8.14368 9.177 8.70308
8 2 9.39034 7.79429 6.46551
9 2 6.66124 6.96254 5.85893
1 1 6.66449 7.43438 8.17277
3 1 8.40732 7.69788 6.99885
2 1 7.87621 8.31181 8.08012
6 2 6.6282 6.71243 8.99051
5 2 5.6662 7.87327 7.91033
ITEM: TIMESTEP
3900
ITEM: NUMBER OF ATOMS
10
ITEM: BOX BOUNDS pp pp pp
0.0000000000000000e+00 1.5000000000000000e+01
0.0000000000000000e+00 1.5000000000000000e+01
0.0000000000000000e+00 1.5000000000000000e+01
ITEM: ATOMS id type x y z
10 2 7.7211 5.69592 6.9794
4 1 7.38414 6.69484 6.72743
7 2 8.29269 8.94277 8.88212
8 2 9.23908 8.04914 6.49963
9 2 6.72094 6.63905 5.82896
1 1 6.57909 7.40083 8.06917
3 1 8.34822 7.84965 7.02068
2 1 7.8766 8.23655 8.16943
6 2 6.28787 6.74395 8.98531
5 2 5.73404 8.05796 7.79327
ITEM: TIMESTEP
4000
ITEM: NUMBER OF ATOMS
10
ITEM: BOX BOUNDS pp pp pp
0.0000000000000000e+00 1.5000000000000000e+01
0.0000000000000000e+00 1.5000000000000000e+01
0.0000000000000000e+00 1.5000000000000000e+01
ITEM: ATOMS id type x y z
10 2 7.68097 5.68477 6.54233
4 1 7.37493 6.75888 6.72473
7 2 7.95314 9.20221 8.73924
8 2 9.54323 7.9729 6.95676
9 2 6.91456 7.04154 5.78475
1 1 6.60085 7.33448 8.06119
3 1 8.43658 7.74772 7.10822
2 1 7.73638 8.32786 8.11262
6 2 6.57438 6.5628 8.82945
5 2 5.56525 7.74215 7.99592
ITEM: TIMESTEP
4100
ITEM: NUMBER OF ATOMS
10
ITEM: BOX BOUNDS pp pp pp
0.0000000000000000e+00 1.5000000000000000e+01
0.0000000000000000e+00 1.5000000000000000e+01
0.0000000000000000e+00 1.5000000000000000e+01
ITEM: ATOMS id type x y z
10 2 7.87824 5.77649 6.83517
4 1 7.44434 6.75815 6.71439
7 2 7.96079 9.05268 8.88842
8 2 9.40352 8.18129 6.80723
9 2 6.97177 6.91803 5.71349
1 1 6.55622 7.28176 7.97941
3 1 8.4506 7.84301 7.13043
2 1 7.69749 8.25481 8.19783
6 2 6.32078 6.58895 8.76487
5 2 5.69705 7.87617 7.74737
ITEM: TIMESTEP
4200
ITEM: NUMBER OF ATOMS
10
ITEM: BOX BOUNDS pp pp pp
0.0000000000000000e+00 1.5000000000000000e+01
0.0000000000000000e+00 1.5000000000000000e+01
0.0000000000000000e+00 1.5000000000000000e+01
ITEM: ATOMS id type x y z
10 2 7.91931 5.74871 6.84044
4 1 7.5262 6.77592 6.68649
7 2 7.83163 9.01465 9.00416
8 2 9.40022 8.24446 6.75836
9 2 7.0436 6.76001 5.68927
1 1 6.52728 7.28852 7.95526
3 1 8.43558 7.90042 7.18915
2 1 7.69886 8.21619 8.2192
6 2 6.15459 6.52683 8.68794
5 2 5.64709 7.83898 7.60818
ITEM: TIMESTEP
4300
ITEM: NUMBER OF ATOMS
10
ITEM: BOX BOUNDS pp pp pp
0.0000000000000000e+00 1.5000000000000000e+01
0.0000000000000000e+00 1.5000000000000000e+01
0.0000000000000000e+00 1.5000000000000000e+01
ITEM: ATOMS id type x y z
10 2 7.91949 5.7663 6.64477
4 1 7.54162 6.81689 6.66282
7 2 7.49976 9.10225 8.81582
8 2 9.5146 8.03249 7.12542
9 2 7.0923 7.15013 5.72966
1 1 6.54412 7.27505 7.9327
3 1 8.47335 7.81656 7.26283
2 1 7.61416 8.29028 8.19583
6 2 6.59056 6.41269 8.62015
5 2 5.46777 7.56346 7.62809
ITEM: TIMESTEP
4400
ITEM: NUMBER OF ATOMS
10
ITEM: BOX BOUNDS pp pp pp
0.0000000000000000e+00 1.5000000000000000e+01
0.0000000000000000e+00 1.5000000000000000e+01
0.0000000000000000e+00 1.5000000000000000e+01
ITEM: ATOMS id type x y z
10 2 8.00326 5.85113 6.91063
4 1 7.61906 6.81181 6.66774
7 2 7.56521 8.98863 9.22462
8 2 9.45111 8.23728 6.87688
9 2 7.20264 6.72691 5.65871
1 1 6.52652 7.2255 7.78356
3 1 8.44414 7.97557 7.25781
2 1 7.5876 8.19154 8.33794
6 2 6.20933 6.44318 8.5101
5 2 5.62851 7.74632 7.42577
ITEM: TIMESTEP
4500
ITEM: NUMBER OF ATOMS
10
ITEM: BOX BOUNDS pp pp pp
0.0000000000000000e+00 1.5000000000000000e+01
0.0000000000000000e+00 1.5000000000000000e+01
0.0000000000000000e+00 1.5000000000000000e+01
ITEM: ATOMS id type x y z
10 2 8.14888 5.87222 6.83885
4 1 7.65916 6.85476 6.64824
7 2 7.30552 8.89271 9.07357
8 2 9.42063 8.33375 7.14024
9 2 7.37444 6.96077 5.59077
1 1 6.53721 7.21444 7.80681
3 1 8.45129 7.92837 7.35033
2 1 7.50925 8.20676 8.30005
6 2 6.22355 6.32181 8.30428
5 2 5.70953 7.61276 7.30873
ITEM: TIMESTEP
4600
ITEM: NUMBER OF ATOMS
10
ITEM: BOX BOUNDS pp pp pp
0.0000000000000000e+00 1.5000000000000000e+01
0.0000000000000000e+00 1.5000000000000000e+01
0.0000000000000000e+00 1.5000000000000000e+01
ITEM: ATOMS id type x y z
10 2 8.14865 5.82417 6.57688
4 1 7.76275 6.90119 6.63357
7 2 7.17639 9.0487 8.94876
8 2 9.54412 8.17273 7.46821
9 2 7.42116 7.25215 5.60608
1 1 6.49315 7.11708 7.72918
3 1 8.45347 7.93026 7.5004
2 1 7.43286 8.2511 8.23246
6 2 6.48269 6.26013 8.38208
5 2 5.49764 7.46442 7.33333
ITEM: TIMESTEP
4700
ITEM: NUMBER OF ATOMS
10
ITEM: BOX BOUNDS pp pp pp
0.0000000000000000e+00 1.5000000000000000e+01
0.0000000000000000e+00 1.5000000000000000e+01
0.0000000000000000e+00 1.5000000000000000e+01
ITEM: ATOMS id type x y z
10 2 8.27796 5.89566 6.8622
4 1 7.8367 6.87052 6.68349
7 2 7.27833 8.76581 9.22971
8 2 9.347 8.57571 7.39368
9 2 7.6735 7.01571 5.60382
1 1 6.48977 7.14119 7.62362
3 1 8.41981 8.06068 7.42821
2 1 7.40398 8.10362 8.34693
6 2 6.01358 6.27174 8.1574
5 2 5.63199 7.63933 7.14873
ITEM: TIMESTEP
4800
ITEM: NUMBER OF ATOMS
10
ITEM: BOX BOUNDS pp pp pp
0.0000000000000000e+00 1.5000000000000000e+01
0.0000000000000000e+00 1.5000000000000000e+01
0.0000000000000000e+00 1.5000000000000000e+01
ITEM: ATOMS id type x y z
10 2 8.38326 5.98901 6.64257
4 1 7.8311 6.92013 6.66445
7 2 7.13943 8.84756 9.08721
8 2 9.42112 8.55561 7.66043
9 2 7.74344 7.22099 5.64116
1 1 6.50669 7.10003 7.62032
3 1 8.44419 7.98748 7.53531
2 1 7.3114 8.14594 8.27817
6 2 6.26198 6.1893 8.17638
5 2 5.61454 7.49605 7.09176
ITEM: TIMESTEP
4900
ITEM: NUMBER OF ATOMS
10
ITEM: BOX BOUNDS pp pp pp
0.0000000000000000e+00 1.5000000000000000e+01
0.0000000000000000e+00 1.5000000000000000e+01
0.0000000000000000e+00 1.5000000000000000e+01
ITEM: ATOMS id type x y z
10 2 8.38426 5.95231 6.66752
4 1 7.90605 6.94706 6.62169
7 2 7.06935 8.84798 9.12041
8 2 9.37931 8.4498 7.70739
9 2 7.70844 7.27467 5.57124
1 1 6.50539 7.05224 7.55065
3 1 8.42049 7.99983 7.63363
2 1 7.29601 8.1863 8.28057
6 2 6.2595 6.20285 8.18783
5 2 5.55551 7.3798 7.11539
ITEM: TIMESTEP
5000
ITEM: NUMBER OF ATOMS
10
ITEM: BOX BOUNDS pp pp pp
0.0000000000000000e+00 1.5000000000000000e+01
0.0000000000000000e+00 1.5000000000000000e+01
0.0000000000000000e+00 1.5000000000000000e+01
ITEM: ATOMS id type x y z
10 2 8.49997 5.99541 6.89411
4 1 7.92827 6.94568 6.67934
7 2 7.01983 8.55894 9.28392
8 2 9.27077 8.69411 7.63444
9 2 7.93252 7.04703 5.55227
1 1 6.4851 7.12662 7.52486
3 1 8.36949 8.0627 7.56337
2 1 7.29367 8.06268 8.34227
6 2 6.18248 6.18565 8.00882
5 2 5.75926 7.55276 6.85636
ITEM: TIMESTEP
5100
ITEM: NUMBER OF ATOMS
10
ITEM: BOX BOUNDS pp pp pp
0.0000000000000000e+00 1.5000000000000000e+01
0.0000000000000000e+00 1.5000000000000000e+01
0.0000000000000000e+00 1.5000000000000000e+01
ITEM: ATOMS id type x y z
10 2 8.47769 6.0145 6.59077
4 1 7.97434 6.99339 6.65724
7 2 6.76272 8.79659 9.07833
8 2 9.41841 8.48152 7.81711
9 2 7.79846 7.41068 5.67875
1 1 6.55027 7.05737 7.45845
3 1 8.43813 8.00309 7.69825
2 1 7.15933 8.13519 8.31707
6 2 6.33183 6.18176 8.04903
5 2 5.60245 7.20071 6.88893
ITEM: TIMESTEP
5200
ITEM: NUMBER OF ATOMS
10
ITEM: BOX BOUNDS pp pp pp
0.0000000000000000e+00 1.5000000000000000e+01
0.0000000000000000e+00 1.5000000000000000e+01
0.0000000000000000e+00 1.5000000000000000e+01
ITEM: ATOMS id type x y z
10 2 8.48846 6.07599 6.71042
4 1 8.01663 7.04045 6.68205
7 2 6.65232 8.62303 9.17899
8 2 9.36456 8.58436 7.8272
9 2 7.96445 7.4687 5.65879
1 1 6.53552 7.01223 7.40249
3 1 8.39323 8.04994 7.77531
2 1 7.14487 8.07931 8.2916
6 2 6.34961 6.02022 7.92789
5 2 5.76313 7.35608 6.677
ITEM: TIMESTEP
5300
ITEM: NUMBER OF ATOMS
10
ITEM: BOX BOUNDS pp pp pp
0.0000000000000000e+00 1.5000000000000000e+01
0.0000000000000000e+00 1.5000000000000000e+01
0.0000000000000000e+00 1.5000000000000000e+01
ITEM: ATOMS id type x y z
10 2 8.51068 6.0599 6.97702
4 1 8.10652 7.08212 6.73833
7 2 6.6393 8.18424 9.19331
8 2 9.11749 8.8078 7.88428
9 2 8.28812 7.34812 5.67104
1 1 6.52191 7.02026 7.349
3 1 8.30691 8.14406 7.75281
2 1 7.14935 7.98738 8.34132
6 2 6.13533 6.00435 7.53815
5 2 5.92493 7.41267 6.53644
ITEM: TIMESTEP
5400
ITEM: NUMBER OF ATOMS
10
ITEM: BOX BOUNDS pp pp pp
0.0000000000000000e+00 1.5000000000000000e+01
0.0000000000000000e+00 1.5000000000000000e+01
0.0000000000000000e+00 1.5000000000000000e+01
ITEM: ATOMS id type x y z
10 2 8.62109 6.15157 6.51969
4 1 8.15104 7.13101 6.73834
7 2 6.41372 8.59369 9.06803
8 2 9.26639 8.5771 8.24258
9 2 8.15774 7.73238 5.80677
1 1 6.60612 6.92613 7.23284
3 1 8.31481 8.07673 7.93831
2 1 7.00573 8.02935 8.24699
6 2 6.41386 6.01999 7.74733
5 2 5.78504 7.16599 6.56571
ITEM: TIMESTEP
5500
ITEM: NUMBER OF ATOMS
10
ITEM: BOX BOUNDS pp pp pp
0.0000000000000000e+00 1.5000000000000000e+01
0.0000000000000000e+00 1.5000000000000000e+01
0.0000000000000000e+00 1.5000000000000000e+01
ITEM: ATOMS id type x y z
10 2 8.75744 6.19658 6.82255
4 1 8.1723 7.12843 6.73151
7 2 6.38427 8.29974 9.12474
8 2 9.01803 8.77203 8.35803
9 2 8.41133 7.68118 5.81667
1 1 6.62411 6.98887 7.21102
3 1 8.28893 8.1123 7.90461
2 1 6.95597 7.94072 8.28719
6 2 6.37206 5.96648 7.54276
5 2 5.933 7.28204 6.41829
ITEM: TIMESTEP
5600
ITEM: NUMBER OF ATOMS
10
ITEM: BOX BOUNDS pp pp pp
0.0000000000000000e+00 1.5000000000000000e+01
0.0000000000000000e+00 1.5000000000000000e+01
0.0000000000000000e+00 1.5000000000000000e+01
ITEM: ATOMS id type x y z
10 2 8.78553 6.23476 6.88461
4 1 8.27943 7.1952 6.75847
7 2 6.4112 8.17215 9.21878
8 2 8.92984 8.87841 8.33695
9 2 8.55251 7.51613 5.74412
1 1 6.62669 6.97291 7.13968
3 1 8.19917 8.12264 7.95214
2 1 6.94105 7.89278 8.29802
6 2 6.27033 5.94423 7.43611
5 2 5.89657 7.37312 6.37862
ITEM: TIMESTEP
5700
ITEM: NUMBER OF ATOMS
10
ITEM: BOX BOUNDS pp pp pp
0.0000000000000000e+00 1.5000000000000000e+01
0.0000000000000000e+00 1.5000000000000000e+01
0.0000000000000000e+00 1.5000000000000000e+01
ITEM: ATOMS id type x y z
10 2 8.9912 6.41527 6.7043
4 1 8.29886 7.24441 6.73885
7 2 6.20875 8.4007 8.92922
8 2 8.8185 8.66332 8.62045
9 2 8.30738 7.94032 5.89236
1 1 6.66488 6.91375 7.09915
3 1 8.19565 8.01042 8.10159
2 1 6.90102 7.95321 8.19551
6 2 6.54097 5.94141 7.61194
5 2 5.89475 7.12827 6.3201
ITEM: TIMESTEP
5800
ITEM: NUMBER OF ATOMS
10
ITEM: BOX BOUNDS pp pp pp
0.0000000000000000e+00 1.5000000000000000e+01
0.0000000000000000e+00 1.5000000000000000e+01
0.0000000000000000e+00 1.5000000000000000e+01
ITEM: ATOMS id type x y z
10 2 9.06022 6.42167 6.94661