10
 Atoms. Timestep: 0
C 8.55798 7.84964 7.54249
C 7.77032 6.94138 6.67089
C 6.57137 7.1412 7.19354
C 7.02495 7.97871 8.42579
H 8.75079 8.85651 7.03331
H 9.47683 7.61012 8.15551
H 8.10426 6.27778 5.87004
H 5.53231 6.80312 6.87485
H 6.58666 8.94134 8.6733
H 7.12547 7.26558 9.28573
10
 Atoms. Timestep: 20
C 8.48272 7.88388 7.61245
C 7.79164 6.95382 6.64648
C 6.5698 7.14215 7.23022
C 7.10339 7.96952 8.3397
H 8.75832 8.77013 7.11463
H 9.26219 7.45734 8.22055
H 8.17146 6.44568 5.77504
H 5.62077 6.64948 6.97556
H 6.59066 8.87862 8.61571
H 7.03531 7.32253 9.21443
10
 Atoms. Timestep: 40
C 8.55551 7.89999 7.60457
C 7.78535 6.98719 6.61726
C 6.58347 7.07191 7.18662
C 6.97715 7.92534 8.37692
H 8.94616 8.89947 7.24959
H 9.24861 7.33806 8.27086
H 8.17114 6.53708 5.70226
H 5.63989 6.62939 7.09904
H 6.6327 9.04441 8.46447
H 7.07665 7.465 9.39049
10
 Atoms. Timestep: 60
C 8.46216 7.87903 7.6604
C 7.81645 7.07237 6.57988
C 6.59063 7.01073 7.21426
C 7.05362 7.94745 8.36042
H 9.03499 8.80474 7.45918
H 9.25676 7.34131 8.20921
H 8.11992 6.55875 5.64574
H 5.57638 6.52553 7.00837
H 6.60854 8.89705 8.2741
H 6.99031 7.63512 9.40268
10
 Atoms. Timestep: 80
C 8.56506 7.84583 7.65138
C 7.75148 7.11434 6.56589
C 6.65384 6.98699 7.25623
C 6.97956 7.95068 8.36626
H 8.93786 8.85757 7.45745
H 9.19447 7.17763 8.26303
H 8.1522 6.70496 5.64343
H 5.74386 6.48008 6.9014
H 6.52457 8.935 8.14337
H 6.87148 7.67772 9.44172
10
 Atoms. Timestep: 100
C 8.4929 7.85237 7.69112
C 7.8252 7.13373 6.57236
C 6.63042 6.96874 7.25638
C 7.0093 7.93241 8.33355
H 8.99217 8.79345 7.4307
H 9.14873 7.18743 8.25342
H 8.11631 6.84204 5.55791
H 5.76318 6.42101 6.99748
H 6.55461 8.96543 8.15973
H 6.80207 7.68715 9.36924
10
 Atoms. Timestep: 120
C 8.50116 7.8894 7.68853
C 7.82446 7.09905 6.58445
C 6.64432 6.96502 7.17318
C 6.94858 7.9321 8.35433
H 9.13009 8.7791 7.47299
H 9.17176 7.2628 8.32247
H 8.14188 6.93224 5.56245
H 5.70382 6.37392 7.12559
H 6.6387 8.9435 8.19717
H 6.82664 7.61505 9.40536
10
 Atoms. Timestep: 140
C 8.51328 7.89494 7.7016
C 7.83122 7.09636 6.56922
C 6.622 7.00207 7.20207
C 6.96669 7.91172 8.33619
H 9.03341 8.83819 7.47907
H 9.11551 7.28984 8.37538
H 8.25036 6.84262 5.57684
H 5.724 6.33845 6.98041
H 6.55621 8.92749 8.24565
H 6.84539 7.55286 9.37715
10
 Atoms. Timestep: 160
C 8.49133 7.87871 7.70099
C 7.83724 7.12421 6.59023
C 6.64612 7.00443 7.17716
C 6.9916 7.91224 8.33801
H 8.85014 8.90047 7.47721
H 9.14244 7.295 8.35846
H 8.24631 6.64279 5.70231
H 5.79517 6.49433 6.85512
H 6.42156 8.8802 8.32371
H 6.87066 7.48962 9.33385
10
 Atoms. Timestep: 180
C 8.49853 7.91425 7.69881
C 7.88723 7.09024 6.59522
C 6.64438 7.02517 7.13441
C 6.91379 7.89155 8.37664
H 8.84531 8.92624 7.47685
H 9.29422 7.37415 8.28482
H 8.27519 6.50959 5.76558
H 5.68995 6.61343 6.77949
H 6.42848 8.87169 8.38904
H 6.92733 7.39766 9.36279
10
 Atoms. Timestep: 200
C 8.44741 7.95365 7.74396
C 7.88938 7.01869 6.62756
C 6.62983 7.07874 7.10597
C 6.96516 7.84944 8.34082
H 8.81221 8.92622 7.42319
H 9.2928 7.54735 8.25061
H 8.39731 6.54197 5.76981
H 5.64012 6.67252 6.725
H 6.48751 8.80853 8.4957
H 6.90345 7.32032 9.31484
10
 Atoms. Timestep: 220
C 8.51912 7.9332 7.69003
C 7.89861 7.00546 6.68755
C 6.61657 7.1003 7.0634
C 6.92779 7.83847 8.36229
H 8.61432 9.00904 7.3049
H 9.29471 7.59238 8.44467
H 8.41749 6.62318 5.80345
H 5.68899 6.7209 6.70633
H 6.44631 8.84033 8.57339
H 6.88959 7.16958 9.23658
10
 Atoms. Timestep: 240
C 8.43551 7.92113 7.74382
C 7.93966 7.02017 6.67084
C 6.62884 7.11177 7.07019
C 6.96935 7.85253 8.3442
H 8.58863 8.88989 7.30245
H 9.28395 7.71421 8.40415
H 8.36417 6.5473 5.80349
H 5.71385 6.74528 6.62587
H 6.42368 8.73598 8.61758
H 6.90955 7.15371 9.16121
10
 Atoms. Timestep: 260
C 8.49095 7.96046 7.75219
C 7.91438 7.01507 6.62416
C 6.67975 7.10237 7.05797
C 6.86035 7.82302 8.37247
H 8.67774 8.96466 7.36541
H 9.34623 7.68011 8.36874
H 8.398 6.44295 5.82378
H 5.7127 6.786 6.56978
H 6.36591 8.78575 8.63335
H 6.95087 7.15504 9.28726
10
 Atoms. Timestep: 280
C 8.42434 7.96087 7.75482
C 7.95773 7.05716 6.65193
C 6.63149 7.0824 7.05103
C 6.95386 7.8158 8.35153
H 8.69039 9.03079 7.48145
H 9.27027 7.54396 8.33451
H 8.44378 6.45636 5.84039
H 5.70583 6.75497 6.57459
H 6.33028 8.7063 8.53332
H 6.87889 7.23024 9.26881
10
 Atoms. Timestep: 300
C 8.49511 7.95068 7.73249
C 7.91167 7.09178 6.66556
C 6.65715 7.05363 7.0447
C 6.89628 7.8148 8.34083
H 8.66824 9.00863 7.55022
H 9.2129 7.44377 8.42405
H 8.49644 6.6736 5.88193
H 5.75922 6.65168 6.66476
H 6.36101 8.77354 8.43005
H 6.86498 7.20341 9.23653
10
 Atoms. Timestep: 320
C 8.44261 7.92904 7.81846
C 7.95588 7.12291 6.60128
C 6.65189 7.03077 7.08197
C 6.88942 7.83771 8.30463
H 8.80607 8.91887 7.54772
H 9.20837 7.49442 8.43974
H 8.4858 6.78746 5.70093
H 5.75355 6.44867 6.6911
H 6.42051 8.80602 8.42832
H 6.81097 7.24201 9.24312
10
 Atoms. Timestep: 340
C 8.44775 7.92205 7.8212
C 7.93423 7.15262 6.59406
C 6.72332 6.98726 7.03734
C 6.85783 7.83916 8.3365
H 8.91231 8.93077 7.57136
H 9.15803 7.41154 8.51842
H 8.36588 6.86835 5.60854
H 5.84677 6.40114 6.75047
H 6.38071 8.85111 8.39438
H 6.68151 7.35053 9.31121
10
 Atoms. Timestep: 360
C 8.46773 7.93191 7.78981
C 7.96906 7.1962 6.59813
C 6.69165 6.97102 7.09507
C 6.87174 7.82089 8.33164
H 8.86539 8.92861 7.7029
H 9.0038 7.28031 8.4838
H 8.37926 6.92782 5.62128
H 5.90989 6.37852 6.66754
H 6.3486 8.77997 8.21482
H 6.61596 7.40464 9.31071
10
 Atoms. Timestep: 380
C 8.4362 7.94225 7.82822
C 7.91545 7.20779 6.58831
C 6.72813 6.94761 7.09683
C 6.88309 7.81534 8.29293
H 8.8866 8.92772 7.84664
H 9.04806 7.24667 8.41845
H 8.48178 6.99102 5.71583
H 5.88851 6.39458 6.66834
H 6.3705 8.74845 8.1005
H 6.67135 7.43361 9.30153
10
 Atoms. Timestep: 400
C 8.4564 7.92504 7.85221
C 7.96342 7.24382 6.58457
C 6.71431 6.90544 7.04844
C 6.81015 7.81697 8.30061
H 8.91669 8.97552 7.84906
H 9.17813 7.28959 8.43739
H 8.52685 6.97276 5.64789
H 5.79025 6.35675 6.7372
H 6.35323 8.83455 8.16813
H 6.6932 7.44322 9.33432
10
 Atoms. Timestep: 420
C 8.40964 7.92469 7.86921
C 7.98697 7.22225 6.6044
C 6.72243 6.95955 7.03965
C 6.86529 7.80287 8.29067
H 8.80174 8.90616 7.70997
H 9.09155 7.37193 8.47604
H 8.4724 6.99173 5.65778
H 5.92263 6.33443 6.67891
H 6.34568 8.76403 8.28063
H 6.58405 7.39554 9.26209
10
 Atoms. Timestep: 440
C 8.46455 7.95692 7.82584
C 7.98748 7.16037 6.62218
C 6.7301 7.03044 7.03593
C 6.80697 7.77293 8.32683
H 8.74773 9.00861 7.63769
H 9.04295 7.39312 8.60764
H 8.48947 6.97839 5.71389
H 6.01481 6.38076 6.54625
H 6.33022 8.75808 8.27294
H 6.56425 7.17706 9.24585
10
 Atoms. Timestep: 460
C 8.36894 7.96906 7.86615
C 8.03557 7.15785 6.64896
C 6.71053 7.01099 6.98357
C 6.86388 7.76994 8.31057
H 8.75612 9.00665 7.70013
H 9.13351 7.56146 8.57084
H 8.57584 6.83243 5.71236
H 5.83118 6.52789 6.48519
H 6.27154 8.70129 8.39645
H 6.68226 7.14321 9.16854
10
 Atoms. Timestep: 480
C 8.4487 7.99466 7.88581
C 8.00977 7.15163 6.65393
C 6.73381 7.00224 6.92898
C 6.77376 7.7412 8.28155
H 8.60842 9.06219 7.69913
H 9.20463 7.58821 8.5336
H 8.69652 6.71751 5.89619
H 5.79333 6.73679 6.49716
H 6.18989 8.65508 8.54663
H 6.83498 7.12186 9.21464
10
 Atoms. Timestep: 500
C 8.37074 7.99003 7.87246
C 8.0762 7.14599 6.67644
C 6.68836 7.07783 6.96731
C 6.84615 7.72941 8.28388
H 8.48347 9.04278 7.64997
H 9.18562 7.60383 8.52088
H 8.72321 6.66509 5.98464
H 5.86139 6.71798 6.31311
H 6.1506 8.51455 8.49474
H 6.83104 7.01615 9.12506
10
 Atoms. Timestep: 520
C 8.39576 8.0044 7.84267
C 8.02872 7.11382 6.70797
C 6.77028 7.12598 6.89947
C 6.7928 7.68908 8.35102
H 8.505 9.09497 7.59514
H 9.18246 7.72412 8.61969
H 8.67559 6.67783 5.95074
H 5.97463 6.66195 6.30605
H 6.11182 8.57256 8.53063
H 6.74914 6.88892 9.08
10
 Atoms. Timestep: 540
C 8.368 8.02128 7.93143
C 8.11867 7.12134 6.69822
C 6.71582 7.10287 6.89408
C 6.79188 7.68861 8.2877
H 8.54331 9.03522 7.55978
H 9.15719 7.82272 8.5991
H 8.68452 6.68985 5.77795
H 5.91421 6.63373 6.32079
H 6.19603 8.53122 8.68459
H 6.66254 6.90266 9.07823
10
 Atoms. Timestep: 560
C 8.38075 8.00529 7.94845
C 8.05806 7.15286 6.67596
C 6.78523 7.03826 6.89773
C 6.77007 7.69943 8.24291
H 8.45447 9.06172 7.6474
H 9.16671 7.73534 8.69867
H 8.72477 6.86417 5.93115
H 5.89598 6.71104 6.38411
H 6.20693 8.53678 8.5934
H 6.71044 6.9359 9.044
10
 Atoms. Timestep: 580
C 8.37553 7.98609 7.89646
C 8.11733 7.22915 6.68513
C 6.74493 7.0003 6.93182
C 6.77613 7.68516 8.28262
H 8.45853 9.08197 7.85379
H 9.04724 7.56643 8.69554
H 8.83103 6.94276 5.91404
H 5.90043 6.65294 6.26913
H 6.08229 8.6035 8.29853
H 6.72094 6.96821 9.08175
10
 Atoms. Timestep: 600
C 8.32397 8.01125 7.9647
C 8.08254 7.25167 6.65066
C 6.81904 6.99965 6.89837
C 6.7678 7.66129 8.28
H 8.65551 9.05534 7.97266
H 8.98855 7.44444 8.57607
H 8.80041 6.99752 5.80266
H 6.07487 6.51084 6.31471
H 6.07139 8.51736 8.20944
H 6.57316 7.15131 9.25106
10
 Atoms. Timestep: 620
C 8.36135 8.00606 8.01455
C 8.1226 7.33408 6.61953
C 6.83061 6.94741 6.90427
C 6.67879 7.65954 8.23904
H 8.78098 9.05632 8.00065
H 9.02299 7.34466 8.63176
H 8.67223 7.11247 5.71564
H 6.15172 6.26137 6.38033
H 6.10191 8.55651 8.25783
H 6.43406 7.20614 9.23845
10
 Atoms. Timestep: 640
C 8.31504 7.95054 8.00154
C 8.09354 7.39704 6.64001
C 6.85434 6.9005 6.93206
C 6.74893 7.70636 8.21134
H 8.69124 8.94676 8.09122
H 8.90578 7.34886 8.72926
H 8.69395 7.32322 5.7563
H 6.21818 6.12749 6.46466
H 6.15236 8.68516 8.14938
H 6.39136 7.06185 8.98847
10
 Atoms. Timestep: 660
C 8.3732 7.96737 8.00386
C 8.07478 7.38611 6.63426
C 6.87819 6.89591 6.93355
C 6.68629 7.67441 8.19508
H 8.63262 9.03556 8.17587
H 8.78814 7.27103 8.71948
H 8.81832 7.52457 5.80044
H 6.23809 6.15717 6.50999
H 6.23248 8.66262 8.03708
H 6.33963 7.02623 9.04564
10
 Atoms. Timestep: 680
C 8.26762 7.99519 8.04346
C 8.17917 7.41594 6.6471
C 6.8616 6.89127 6.89736
C 6.71924 7.61379 8.19747
H 8.69662 9.01536 8.21576
H 8.84511 7.25944 8.65032
H 8.76476 7.45719 5.70149
H 6.17871 6.18384 6.39448
H 6.17091 8.51746 8.0535
H 6.30212 7.28962 9.1611
10
 Atoms. Timestep: 700
C 8.31054 8.00204 8.0591
C 8.11059 7.40018 6.66098
C 6.95987 6.9004 6.83461
C 6.64882 7.60697 8.22442
H 8.66326 9.01611 8.22538
H 8.94986 7.35387 8.68912
H 8.71943 7.33966 5.81674
H 6.25028 6.31702 6.24306
H 5.99367 8.5248 8.01093
H 6.36859 7.21099 9.22912
10
 Atoms. Timestep: 720
C 8.28469 7.98693 8.06418
C 8.16911 7.42419 6.68647
C 6.85401 6.89897 6.89139
C 6.69394 7.6333 8.19532
H 8.50696 9.05513 8.13033
H 8.93638 7.44019 8.73955
H 8.91863 7.28648 5.83978
H 6.3263 6.3657 6.07291
H 5.97749 8.45564 8.07478
H 6.44776 6.9566 9.00749
10
 Atoms. Timestep: 740
C 8.28316 8.03111 8.05811
C 8.14488 7.33501 6.71251
C 6.93129 6.98983 6.81048
C 6.67128 7.57863 8.17173
H 8.39246 9.15841 8.0536
H 8.89811 7.51447 8.8392
H 8.96464 7.2935 6.00315
H 6.21353 6.40565 6.23293
H 6.03839 8.44209 8.31068
H 6.43322 6.7984 8.93245
10
 Atoms. Timestep: 760
C 8.22702 8.05535 8.06948
C 8.28404 7.31955 6.74721
C 6.86142 7.04287 6.74523
C 6.6701 7.52832 8.18233
H 8.37713 9.11835 8.01305
H 8.8907 7.68909 8.85125
H 9.01652 7.16287 5.94219
H 6.11322 6.41936 6.21845
H 6.0005 8.39688 8.45229
H 6.47046 6.75688 8.94627
10
 Atoms. Timestep: 780
C 8.24142 8.04459 8.08621
C 8.20082 7.3011 6.73226
C 6.92267 7.06817 6.76555
C 6.65784 7.53025 8.19304
H 8.2782 9.14052 7.95795
H 8.92178 7.77709 8.89519
H 9.01701 7.06207 6.05418
H 6.28338 6.59734 6.03935
H 5.87099 8.26683 8.37358
H 6.61619 6.71152 8.90645
10
 Atoms. Timestep: 800
C 8.25648 8.04581 8.07783
C 8.22829 7.33677 6.77562
C 6.88091 7.03478 6.78715
C 6.66207 7.53427 8.17758
H 8.17884 9.14928 7.93114
H 8.95932 7.75961 8.90338
H 9.02688 6.99079 6.09425
H 6.33945 6.76445 5.8452
H 5.78002 8.16574 8.31863
H 6.67302 6.68038 8.88731
10
 Atoms. Timestep: 820
C 8.20449 8.07734 8.09695
C 8.24701 7.30617 6.79163
C 6.93458 7.0421 6.72279
C 6.66507 7.49955 8.16223
H 8.23155 9.14937 7.99876
H 8.94157 7.78465 8.8413
H 9.04324 7.06634 6.11537
H 6.18651 6.77697 5.95963
H 5.81161 8.18614 8.40642
H 6.60263 6.70554 8.9259
10
 Atoms. Timestep: 840
C 8.19794 8.07827 8.11103
C 8.27933 7.2929 6.76672
C 6.92897 7.06968 6.71712
C 6.62053 7.47299 8.15733
H 8.25782 9.19384 8.01826
H 8.89157 7.77741 8.90809
H 9.13468 7.20958 6.09695
H 6.20622 6.62872 6.07965
H 5.92081 8.27024 8.39338
H 6.55231 6.65722 8.87949
10
 Atoms. Timestep: 860
C 8.20331 8.0154 8.10622
C 8.26537 7.37199 6.77414
C 6.92145 7.04906 6.76012
C 6.6596 7.51947 8.15148
H 8.20141 9.11421 8.00436
H 8.79327 7.71503 8.99258
H 9.10615 7.27097 6.05224
H 6.35445 6.46027 6.00793
H 5.89465 8.28887 8.29231
H 6.47567 6.63511 8.78781
10
 Atoms. Timestep: 880
C 8.24397 8.02276 8.14556
C 8.20968 7.43483 6.75453
C 6.99753 6.98654 6.74829
C 6.6176 7.51972 8.13351
H 8.25777 9.09891 8.11603
H 8.82058 7.59778 8.9842
H 8.98623 7.28998 6.02577
H 6.43465 6.41219 5.96654
H 5.82066 8.3115 8.22065
H 6.39142 6.7265 8.88453
10
 Atoms. Timestep: 900
C 8.16035 8.04839 8.17936
C 8.27682 7.46885 6.73817
C 6.96412 6.92549 6.75239
C 6.61905 7.49487 8.1186
H 8.41896 9.1323 8.35061
H 8.85715 7.49342 8.82255
H 9.03815 7.3889 5.9457
H 6.42153 6.40186 5.98935
H 5.90492 8.3007 8.08909
H 6.36128 6.87723 8.96063
10
 Atoms. Timestep: 920
C 8.18011 8.05476 8.13903
C 8.21935 7.46137 6.73738
C 7.0459 6.93168 6.76547
C 6.60223 7.48316 8.11057
H 8.37547 9.0995 8.4798
H 8.75427 7.36044 8.79451
H 9.04407 7.59069 6.04674
H 6.41932 6.37185 6.11249
H 5.94336 8.35768 7.95266
H 6.30192 6.85399 8.98812
10
 Atoms. Timestep: 940
C 8.1952 7.99487 8.14657
C 8.26484 7.54838 6.75354
C 7.00455 6.90205 6.79775
C 6.62554 7.51852 8.10002
H 8.28843 9.02641 8.37132
H 8.67192 7.35092 8.88111
H 9.0534 7.68465 5.97184
H 6.45199 6.18887 6.06028
H 5.90182 8.35563 7.96075
H 6.21568 6.83057 8.85644
10
 Atoms. Timestep: 960
C 8.1878 7.98672 8.22227
C 8.21141 7.52569 6.71499
C 7.07528 6.92591 6.74986
C 6.57802 7.50435 8.08025
H 8.37343 9.09796 8.32878
H 8.75258 7.40364 8.98305
H 8.96027 7.66195 5.96212
H 6.60447 6.20302 6.13482
H 5.92807 8.37052 8.04795
H 6.1901 6.82684 8.82811
10
 Atoms. Timestep: 980
C 8.13777 8.02591 8.20684
C 8.28693 7.53595 6.77166
C 7.00588 6.92864 6.72864
C 6.5922 7.46242 8.08017
H 8.42227 9.08143 8.42447
H 8.77288 7.47449 8.90817
H 8.99838 7.58436 5.92729
H 6.61622 6.222 6.01584
H 5.96603 8.37219 8.02602
H 6.21153 6.76799 8.86336
10
 Atoms. Timestep: 1000
C 8.16 8.06491 8.16394
C 8.24457 7.48946 6.7928
C 7.06092 6.96443 6.72687
C 6.60309 7.44296 8.09421
H 8.22592 9.09726 8.43775
H 8.71008 7.41087 8.86066
H 9.1078 7.55607 6.12671
H 6.51682 6.37244 5.92785
H 5.88146 8.28263 7.9963
H 6.27045 6.73014 8.87281
10
 Atoms. Timestep: 1020
C 8.13901 8.0333 8.18668
C 8.30674 7.50285 6.77624
C 7.03394 6.95429 6.72534
C 6.6013 7.45863 8.08164
H 8.08614 9.14869 8.33298
H 8.73532 7.48824 8.9441
H 9.23193 7.48973 6.19529
H 6.43176 6.53829 5.89985
H 5.76384 8.15082 8.06999
H 6.38905 6.70984 8.82744
10
 Atoms. Timestep: 1040
C 8.11613 8.02507 8.22211
C 8.33006 7.48026 6.7988
C 7.04959 7.00854 6.68096
C 6.56632 7.42653 8.05936
H 8.14751 9.13551 8.22114
H 8.75668 7.73627 9.05437
H 9.18535 7.4048 6.13525
H 6.4577 6.58049 5.92765
H 5.71676 8.13305 8.17803
H 6.48735 6.58747 8.80521
10
 Atoms. Timestep: 1060
C 8.10772 8.07195 8.20973
C 8.31516 7.41392 6.86519
C 7.04694 7.09895 6.65088
C 6.59411 7.38122 8.07253
H 8.12243 9.14284 8.13665
H 8.708 7.80283 9.10547
H 9.12844 7.37717 6.12709
H 6.55724 6.53412 5.8068
H 5.7708 8.08682 8.23601
H 6.45351 6.47996 8.68695
10
 Atoms. Timestep: 1080
C 8.10789 8.09086 8.20154
C 8.33606 7.40301 6.8778
C 7.00684 7.09742 6.65218
C 6.61561 7.37729 8.07542
H 7.98298 9.20781 8.10268
H 8.67174 7.74244 9.0882
H 9.24329 7.36276 6.2459
H 6.61431 6.621 5.72644
H 5.76252 8.02723 8.27949
H 6.45077 6.44726 8.60465
10
 Atoms. Timestep: 1100
C 8.08859 8.05604 8.20884
C 8.33258 7.45232 6.83932
C 7.08755 7.04986 6.63736
C 6.56765 7.39243 8.05221
H 7.94461 9.14997 8.20434
H 8.71537 7.80885 9.05379
H 9.28107 7.30632 6.39691
H 6.49276 6.76849 5.83046
H 5.67871 8.02434 8.28597
H 6.55327 6.45818 8.6912
10
 Atoms. Timestep: 1120
C 8.05641 8.04403 8.2285
C 8.38592 7.51205 6.85805
C 7.06559 7.03083 6.65016
C 6.55834 7.37139 8.02812
H 7.99349 9.11261 8.2651
H 8.75251 7.78672 9.05441
H 9.33622 7.29259 6.30696
H 6.40899 6.73583 5.76417
H 5.66877 7.98345 8.14995
H 6.56642 6.55899 8.75947
10
 Atoms. Timestep: 1140
C 8.08481 8.07836 8.24842
C 8.30033 7.46053 6.85554
C 7.10925 7.08169 6.65385
C 6.58776 7.34583 8.03334
H 8.00077 9.20206 8.28185
H 8.65669 7.61975 9.0955
H 9.2182 7.49618 6.23819
H 6.6536 6.58497 5.77792
H 5.68474 7.98524 8.0121
H 6.41711 6.53326 8.73658
10
 Atoms. Timestep: 1160
C 8.07059 8.05372 8.25018
C 8.36771 7.52148 6.88502
C 7.05929 7.01683 6.634
C 6.59243 7.3739 8.04304
H 8.07518 9.14856 8.35047
H 8.55947 7.6058 9.08915
H 9.13867 7.69067 6.13492
H 6.78775 6.42485 5.78762
H 5.74553 8.09654 8.03319
H 6.27732 6.45801 8.62023
10
 Atoms. Timestep: 1180
C 8.05619 8.01525 8.27491
C 8.31333 7.58745 6.82016
C 7.19686 6.9587 6.66214
C 6.5069 7.38119 7.98708
H 8.10915 9.0848 8.44894
H 8.62849 7.57101 9.12456
H 9.16519 7.80553 6.20524
H 6.70285 6.3569 5.87911
H 5.82506 8.21281 8.13283
H 6.25366 6.5334 8.63254
10
 Atoms. Timestep: 1200
C 8.01576 7.99467 8.28106
C 8.3276 7.68354 6.82738
C 7.17734 6.90373 6.69833
C 6.55676 7.37365 7.96603
H 8.04014 9.07735 8.54492
H 8.64792 7.38863 8.97305
H 9.28273 7.84015 6.23229
H 6.68741 6.30978 5.85261
H 5.80826 8.20984 7.95863
H 6.19276 6.66076 8.6907
10
 Atoms. Timestep: 1220
C 8.07355 8.04666 8.27345
C 8.29363 7.66167 6.85587
C 7.18527 6.94553 6.66374
C 6.5507 7.34317 7.99536
H 8.0067 9.05267 8.7329
H 8.56209 7.29772 8.87536
H 9.16643 7.84632 6.26325
H 6.86455 6.31226 5.90075
H 5.8073 8.08496 7.6196
H 6.09808 6.64394 8.76656
10
 Atoms. Timestep: 1240
C 8.00314 8.03647 8.3023
C 8.33269 7.66506 6.85539
C 7.18422 6.9529 6.65986
C 6.55351 7.35309 7.97342
H 8.1289 9.00413 8.77042
H 8.56384 7.35917 9.00084
H 9.09836 7.88531 6.15042
H 6.98318 6.24568 5.85515
H 5.77166 8.03885 7.697
H 6.13672 6.64175 8.6693
10
 Atoms. Timestep: 1260
C 7.99651 8.0082 8.34549
C 8.35093 7.68482 6.85379
C 7.24395 6.93299 6.66674
C 6.49087 7.34873 7.90869
H 8.11533 9.09443 8.5899
H 8.51906 7.40201 9.11737
H 9.17547 7.95421 6.12699
H 6.90509 6.2382 5.8318
H 5.7112 8.16365 7.99659
H 6.20427 6.51901 8.57804
10
 Atoms. Timestep: 1280
C 7.9784 8.00629 8.29234
C 8.34427 7.66615 6.89977
C 7.2571 6.95555 6.6333
C 6.53634 7.34073 7.94019
H 7.90993 9.08933 8.46655
H 8.42003 7.45311 9.09222
H 9.25821 7.9465 6.36418
H 6.86206 6.3686 5.85074
H 5.76572 8.13425 8.04868
H 6.21143 6.41585 8.47306
10
 Atoms. Timestep: 1300
C 7.97673 8.07311 8.28671
C 8.40508 7.63243 6.93038
C 7.17162 7.01495 6.60111
C 6.54909 7.25378 7.95077
H 7.77516 9.11677 8.53083
H 8.50482 7.56719 9.14847
H 9.356 7.83762 6.49558
H 6.87541 6.47044 5.69455
H 5.76837 7.97369 7.85798
H 6.22915 6.40864 8.54785
10
 Atoms. Timestep: 1320
C 7.92144 8.07074 8.36075
C 8.37651 7.58149 6.92281
C 7.25003 7.08719 6.57874
C 6.55096 7.22356 7.9263
H 7.7581 9.15684 8.51863
H 8.61454 7.77198 9.1684
H 9.35718 7.64041 6.42708
H 6.86201 6.64012 5.62027
H 5.5949 7.82454 7.77255
H 6.34356 6.40827 8.65042
10
 Atoms. Timestep: 1340
C 7.91139 8.0426 8.35661
C 8.43761 7.62895 7.00448
C 7.23126 7.05989 6.57437
C 6.52818 7.26326 7.8891
H 7.70345 9.13017 8.33583
H 8.50496 7.79953 9.22042
H 9.35971 7.54193 6.33916
H 6.86664 6.77164 5.58365
H 5.50326 7.67636 7.9385
H 6.53541 6.33213 8.52408
10
 Atoms. Timestep: 1360
C 7.92886 8.07691 8.30929
C 8.41234 7.56845 6.97598
C 7.26304 7.10524 6.59032
C 6.51402 7.23381 7.89625
H 7.65901 9.12424 8.2713
H 8.28735 7.74419 9.3245
H 9.39609 7.70216 6.60354
H 6.92654 6.80277 5.64892
H 5.55542 7.68621 8.0833
H 6.59005 6.25398 8.32644
10
 Atoms. Timestep: 1380
C 7.85884 8.07321 8.30819
C 8.46738 7.57467 7.01528
C 7.2126 7.13489 6.53512
C 6.5752 7.19319 7.90773
H 7.69317 9.16483 8.32146
H 8.24704 7.79062 9.30354
H 9.48317 7.78013 6.67907
H 6.89635 6.68176 5.53347
H 5.62381 7.76507 8.08934
H 6.49635 6.1818 8.36424
10
 Atoms. Timestep: 1400
C 7.88273 8.06662 8.37481
C 8.40672 7.62343 7.02549
C 7.2994 7.13135 6.51477
C 6.52514 7.15963 7.8559
H 7.65602 9.16562 8.37017
H 8.40916 7.81392 9.28312
H 9.42623 7.70587 6.56973
H 6.91002 6.67239 5.60107
H 5.5963 7.746 7.95171
H 6.44229 6.23002 8.48736
10
 Atoms. Timestep: 1420
C 7.85698 8.01906 8.38393
C 8.41552 7.70422 7.0096
C 7.28929 7.05276 6.57739
C 6.5349 7.22721 7.85171
H 7.58593 9.05695 8.4775
H 8.50759 7.73137 9.23781
H 9.37731 7.71943 6.49345
H 7.08107 6.709 5.58825
H 5.55359 7.65515 7.74633
H 6.43834 6.32862 8.40987
10
 Atoms. Timestep: 1440
C 7.88725 8.05488 8.36879
C 8.4109 7.70803 6.97207
C 7.33381 7.03111 6.60115
C 6.49946 7.21424 7.85138
H 7.58364 9.07898 8.65274
H 8.39618 7.53906 9.23475
H 9.37049 7.92244 6.54629
H 7.12813 6.62088 5.60413
H 5.49754 7.75423 7.68068
H 6.35942 6.25481 8.41006
10
 Atoms. Timestep: 1460
C 7.8183 8.04101 8.3569
C 8.42114 7.74086 7.00989
C 7.35912 7.02021 6.55545
C 6.53327 7.19528 7.84224
H 7.75458 9.09514 8.72325
H 8.24042 7.46134 9.14127
H 9.3605 8.13352 6.54566
H 7.07078 6.40143 5.67793
H 5.68398 7.84532 7.79168
H 6.22271 6.29914 8.42234
10
 Atoms. Timestep: 1480
C 7.83689 8.02724 8.3982
C 8.39341 7.78841 7.0135
C 7.36372 6.99862 6.56421
C 6.51197 7.1749 7.78591
H 7.79221 9.08408 8.68288
H 8.2793 7.39232 9.19654
H 9.29375 8.19682 6.53748
H 7.18639 6.32415 5.73583
H 5.74072 7.94685 7.76919
H 6.19563 6.34072 8.39615
10
 Atoms. Timestep: 1500
C 7.85266 7.98134 8.40513
C 8.34866 7.81062 6.98687
C 7.39299 6.9806 6.60209
C 6.51602 7.22425 7.8063
H 7.67248 8.99709 8.73187
H 8.38927 7.43562 9.23498
H 9.22936 8.15666 6.52125
H 7.3658 6.38544 5.69998
H 5.65297 7.94445 7.57385
H 6.15213 6.31989 8.32476
10
 Atoms. Timestep: 1520
C 7.84738 7.99593 8.41044
C 8.38508 7.82416 7.00865
C 7.40325 6.96759 6.5964
C 6.49109 7.21439 7.81439
H 7.56059 8.99648 8.8471
H 8.42632 7.45335 9.12625
H 9.30282 8.15477 6.46266
H 7.3269 6.42728 5.62362
H 5.68275 7.84149 7.51367
H 6.06384 6.33423 8.33642
10
 Atoms. Timestep: 1540
C 7.78511 8.03831 8.4033
C 8.40479 7.78729 7.01401
C 7.4355 7.01036 6.58529
C 6.51595 7.14824 7.77686
H 7.6196 9.02783 8.85396
H 8.35861 7.40089 9.1056
H 9.3316 8.18585 6.55916
H 7.16664 6.47035 5.69267
H 5.6945 7.87388 7.59604
H 6.10485 6.35598 8.40479
10
 Atoms. Timestep: 1560
C 7.7787 8.0262 8.38546
C 8.42806 7.80878 7.0541
C 7.3868 7.00672 6.56066
C 6.54017 7.15745 7.76932
H 7.65927 9.0417 8.70543
H 8.1911 7.41528 9.25097
H 9.35264 8.18099 6.66052
H 7.18329 6.46626 5.62741
H 5.64616 7.85885 7.66168
H 6.28914 6.26207 8.36576
10
 Atoms. Timestep: 1580
C 7.82567 8.00781 8.42375
C 8.389 7.76142 7.0435
C 7.41789 7.06099 6.53795
C 6.4941 7.17907 7.78696
H 7.57092 9.10461 8.57134
H 8.14748 7.55712 9.33589
H 9.35875 8.10122 6.69596
H 7.32703 6.52763 5.59293
H 5.56376 7.68656 7.69133
H 6.39609 6.18711 8.24856
10
 Atoms. Timestep: 1600
C 7.758 8.01866 8.42183
C 8.45251 7.74208 7.0954
C 7.37586 7.10316 6.52355
C 6.52237 7.15482 7.77353
H 7.49288 9.08299 8.54843
H 8.28475 7.69605 9.33927
H 9.46028 7.96854 6.61723
H 7.35803 6.62667 5.52992
H 5.50053 7.56767 7.73205
H 6.37513 6.16575 8.23631
10
 Atoms. Timestep: 1620
C 7.73148 8.06706 8.40128
C 8.46595 7.70416 7.10305
C 7.41739 7.15823 6.53437
C 6.52226 7.07514 7.74298
H 7.39218 9.07349 8.55617
H 8.32658 7.72803 9.32527
H 9.455 7.86142 6.74692
H 7.17611 6.77238 5.5444
H 5.50785 7.63058 7.72891
H 6.4438 6.12663 8.29724
10
 Atoms. Timestep: 1640
C 7.73936 8.03161 8.38415
C 8.47304 7.73277 7.12877
C 7.38889 7.12198 6.51067
C 6.55276 7.1097 7.77615
H 7.3292 9.07954 8.4739
H 8.12257 7.72912 9.31977
H 9.5219 7.87774 6.89324
H 7.08979 6.89272 5.48218
H 5.60055 7.53745 7.67083
H 6.53564 6.12705 8.2507
10
 Atoms. Timestep: 1660
C 7.76976 8.03917 8.44024
C 8.44858 7.73004 7.09869
C 7.41052 7.12441 6.51212
C 6.52958 7.10371 7.73871
H 7.39418 9.0854 8.37964
H 8.04422 7.7146 9.45797
H 9.52847 7.96692 6.89139
H 7.19043 6.89567 5.48035
H 5.47802 7.46718 7.7042
H 6.53804 6.10625 8.23687
10
 Atoms. Timestep: 1680
C 7.68636 8.01145 8.41764
C 8.47431 7.73199 7.14459
C 7.43015 7.16111 6.51291
C 6.53781 7.10053 7.73082
H 7.50444 9.0635 8.49091
H 8.13761 7.7543 9.44828
H 9.41966 8.01878 6.6833
H 7.34174 6.76424 5.4808
H 5.45638 7.46813 7.74861
H 6.49241 6.12056 8.20124
10
 Atoms. Timestep: 1700
C 7.70902 8.04017 8.42819
C 8.47049 7.75608 7.15056
C 7.44805 7.15644 6.51506
C 6.49025 7.0666 7.71674
H 7.40299 9.11191 8.63849
H 8.18406 7.61756 9.29913
H 9.38781 8.07502 6.71077
H 7.41997 6.65639 5.54316
H 5.55208 7.57809 7.66055
H 6.47024 6.06532 8.17363
10
 Atoms. Timestep: 1720
C 7.70815 8.01139 8.43082
C 8.41784 7.84387 7.09976
C 7.46533 7.07249 6.5351
C 6.55164 7.11808 7.71929
H 7.30063 8.98681 8.71707
H 8.15075 7.4759 9.25073
H 9.47911 8.15419 6.92442
H 7.40208 6.60601 5.57647
H 5.58906 7.61099 7.54892
H 6.34459 6.11117 8.16161
10
 Atoms. Timestep: 1740
C 7.71123 7.99186 8.44412
C 8.39782 7.93171 7.10189
C 7.522 7.02085 6.53951
C 6.53167 7.09845 7.67599
H 7.35204 8.93776 8.83254
H 8.18205 7.38466 9.34034
H 9.45179 8.22411 6.9044
H 7.36154 6.51148 5.55407
H 5.57213 7.69559 7.45613
H 6.22815 6.2092 8.23253
10
 Atoms. Timestep: 1760
C 7.66753 7.96432 8.46314
C 8.40034 7.90719 7.12014
C 7.57524 7.05288 6.56012
C 6.49181 7.08394 7.66192
H 7.47118 8.96824 8.91586
H 8.18845 7.41042 9.20336
H 9.2638 8.36199 6.70138
H 7.53152 6.48767 5.62187
H 5.69776 7.73269 7.39835
H 6.16176 6.20896 8.21623
10
 Atoms. Timestep: 1780
C 7.66469 7.98034 8.4608
C 8.42685 7.89808 7.15582
C 7.52965 7.02382 6.56762
C 6.51803 7.09199 7.66767
H 7.44819 8.96575 8.8988
H 8.15195 7.31733 9.16199
H 9.16003 8.55377 6.62618
H 7.75631 6.51461 5.65408
H 5.69245 7.76808 7.36795
H 6.07972 6.13508 8.06852
10
 Atoms. Timestep: 1800
C 7.70261 7.99141 8.46138
C 8.36822 7.91179 7.12521
C 7.59944 7.02368 6.57456
C 6.51654 7.08842 7.64441
H 7.34966 8.92248 8.89773
H 8.05969 7.25965 9.30344
H 9.18198 8.58409 6.80876
H 7.68493 6.44111 5.62723
H 5.64121 7.77856 7.41869
H 6.08564 6.14229 7.99981
10
 Atoms. Timestep: 1820
C 7.62233 7.92562 8.47022
C 8.39591 8.00444 7.15467
C 7.60283 7.00073 6.54003
C 6.5379 7.08619 7.62315
H 7.3138 8.91082 8.88806
H 8.07646 7.41699 9.28526
H 9.34239 8.47352 6.89289
H 7.51793 6.40751 5.59235
H 5.72714 7.72932 7.41596
H 6.19243 6.17997 8.08613
10
 Atoms. Timestep: 1840
C 7.6147 7.98499 8.49096
C 8.40619 7.93472 7.15739
C 7.60244 7.09957 6.54673
C 6.52279 7.00888 7.586
H 7.20375 8.94875 8.86324
H 8.16849 7.42934 9.26685
H 9.38725 8.33377 6.94264
H 7.58965 6.58294 5.64138
H 5.65573 7.66868 7.30472
H 6.24238 6.08748 8.18371
10
 Atoms. Timestep: 1860
C 7.58087 8.00456 8.42212
C 8.44331 7.88446 7.24046
C 7.55157 7.13642 6.5204
C 6.55564 7.04129 7.66315
H 7.15967 8.91537 8.78366
H 8.09044 7.45906 9.30458
H 9.43812 8.27592 6.91819
H 7.77698 6.74608 5.48284
H 5.5484 7.38655 7.30573
H 6.32201 6.03664 8.01719
10
 Atoms. Timestep: 1880
C 7.5999 8.01563 8.48615
C 8.45892 7.85128 7.22376
C 7.60688 7.17039 6.50355
C 6.49569 6.99718 7.59431
H 7.15963 9.04733 8.66541
H 7.87166 7.57208 9.42222
H 9.44421 8.25609 7.02563
H 7.65927 6.83794 5.43088
H 5.46168 7.3361 7.50508
H 6.55919 5.9636 7.99313
10
 Atoms. Timestep: 1900
C 7.50162 7.94672 8.47076
C 8.4854 7.87004 7.27391
C 7.57681 7.183 6.46778
C 6.58421 7.01542 7.5681
H 7.23144 9.00764 8.4838
H 7.76781 7.68142 9.49728
H 9.49608 8.22539 7.12927
H 7.48854 6.87968 5.47296
H 5.5497 7.32387 7.59776
H 6.70217 6.01092 8.02466
10
 Atoms. Timestep: 1920
C 7.55934 8.01502 8.46232
C 8.46314 7.83508 7.30265
C 7.5807 7.24809 6.47851
C 6.58974 6.94183 7.55837
H 7.04166 8.98327 8.43688
H 7.78058 7.66983 9.56128
H 9.50119 8.17107 7.20836
H 7.49076 6.93537 5.42599
H 5.50369 7.26447 7.43247
H 6.64857 5.95588 8.01293
10
 Atoms. Timestep: 1940
C 7.52346 8.00648 8.45313
C 8.48364 7.83532 7.29939
C 7.58716 7.25832 6.50149
C 6.56961 6.95664 7.61193
H 6.92177 8.91746 8.51374
H 7.87298 7.74031 9.4064
H 9.54281 8.13656 7.18257
H 7.67844 7.05377 5.3728
H 5.5503 7.13627 7.28077
H 6.57454 5.8951 7.93708
10
 Atoms. Timestep: 1960
C 7.48927 7.97647 8.48391
C 8.48862 7.89483 7.30297
C 7.6255 7.21399 6.50233
C 6.54294 6.94958 7.54233
H 6.96989 8.96007 8.5664
H 7.92228 7.72645 9.45461
H 9.52409 8.16476 7.12761
H 7.71136 7.0508 5.46869
H 5.49778 7.19549 7.33277
H 6.62067 5.91321 7.94967
10
 Atoms. Timestep: 1980
C 7.49069 7.95488 8.47624
C 8.431 7.9341 7.31723
C 7.67387 7.18677 6.49853
C 6.57409 6.95684 7.50111
H 7.07186 8.96052 8.60312
H 7.79341 7.5679 9.53255
H 9.42758 8.3161 7.16257
H 7.68099 6.88125 5.46637
H 5.52341 7.3109 7.41523
H 6.60884 5.98778 7.95049
10
 Atoms. Timestep: 2000
C 7.49187 7.95612 8.48763
C 8.43267 7.94572 7.30472
C 7.66442 7.17653 6.48909
C 6.59842 6.97563 7.53768
H 7.05199 8.91987 8.68959
H 7.68951 7.40756 9.37856
H 9.37438 8.54472 7.23843
H 7.79522 6.70612 5.43747
H 5.59668 7.38168 7.31079
H 6.49191 5.93608 7.91944
10
 Atoms. Timestep: 2020
C 7.49706 7.95615 8.49941
C 8.44107 7.97123 7.28099
C 7.69682 7.17001 6.522
C 6.5492 6.95378 7.51111
H 6.97251 8.90663 8.83688
H 7.8313 7.36349 9.36057
H 9.32026 8.6041 7.15712
H 7.90537 6.70904 5.58002
H 5.62786 7.42003 7.18344
H 6.36177 5.90972 7.88997
10
 Atoms. Timestep: 2040
C 7.45192 7.90243 8.47293
C 8.4087 8.04749 7.31873
C 7.73631 7.12405 6.56209
C 6.55295 6.97248 7.48875
H 7.00625 8.78887 8.90935
H 8.03645 7.43222 9.33742
H 9.32058 8.5367 7.01374
H 7.94955 6.7212 5.60141
H 5.62264 7.45432 7.13255
H 6.28926 6.00793 7.83957
10
 Atoms. Timestep: 2060
C 7.48547 7.9302 8.52593
C 8.35349 8.05628 7.2805
C 7.77471 7.11204 6.58086
C 6.55334 6.95667 7.45216
H 6.9537 8.79406 8.92387
H 7.9739 7.33334 9.29553
H 9.31585 8.57788 7.11308
H 7.97448 6.68642 5.54853
H 5.65562 7.54888 7.12769
H 6.24842 5.94829 7.84356
10
 Atoms. Timestep: 2080
C 7.45603 7.9094 8.48724
C 8.37445 8.05902 7.29006
C 7.74422 7.10105 6.52771
C 6.60315 6.97873 7.5128
H 6.95775 8.81227 8.94194
H 7.79813 7.27153 9.28719
H 9.26031 8.72145 7.24794
H 8.02332 6.63148 5.56219
H 5.76371 7.52425 7.1431
H 6.25367 5.96982 7.7998
10
 Atoms. Timestep: 2100
C 7.4676 7.93717 8.50311
C 8.40242 8.02903 7.32563
C 7.76858 7.15834 6.52142
C 6.56549 6.92125 7.44869
H 6.98426 8.84501 8.89912
H 7.7832 7.27211 9.37519
H 9.18429 8.74245 7.17995
H 7.98212 6.6378 5.63941
H 5.66474 7.50863 7.15064
H 6.30084 5.93929 7.85159
10
 Atoms. Timestep: 2120
C 7.4084 7.88346 8.4887
C 8.42208 8.0277 7.36448