LAMMPS (2 Aug 2023 - Update 2)
#13 Butadiene
units           metal
boundary        p p p
atom_style      atomic

neighbor        2.0 bin
neigh_modify    delay 0 every 1 check yes

read_data       restart.lmp
Reading data file ...
  orthogonal box = (0 0 0) to (15 15 15)
  1 by 1 by 3 MPI processor grid
  reading atoms ...
  10 atoms
  reading velocities ...
  10 velocities
  read_data CPU = 0.001 seconds
mass            1 12.0
mass            2 2

variable        sysvol          equal vol
variable        sysmass         equal mass(all)/6.0221367e+23
variable        sysdensity      equal v_sysmass/v_sysvol/1.0e-24
variable	out_freq 	equal 100

pair_style      deepmd ../files/frozen_model_1_compressed.pb ../files/frozen_model_2_compressed.pb ../files/frozen_model_3_compressed.pb ../files/frozen_model_3_compressed.pb out_file md.out out_freq 10 atomic relative 1.0
Summary of lammps deepmd module ...
  >>> Info of deepmd-kit:
  installed to:       /rs1/researchers/w/wjpfaend/rahul/MLP/DeePMD-kit/deepmd_cpu
  source:             v2.2.8-dirty
  source branch:      master
  source commit:      b875ea8
  source commit at:   2024-01-22 22:28:58 -0500
  support model ver.: 1.1 
  build variant:      cpu
  build with tf inc:  /rs1/researchers/w/wjpfaend/rahul/MLP/DeePMD-kit/tensorflow/lib/python3.11/site-packages/tensorflow/include;/rs1/researchers/w/wjpfaend/rahul/MLP/DeePMD-kit/tensorflow/lib/python3.11/site-packages/tensorflow/include
  build with tf lib:  /rs1/researchers/w/wjpfaend/rahul/MLP/DeePMD-kit/tensorflow/lib/python3.11/site-packages/tensorflow/libtensorflow_cc.so.2
  set tf intra_op_parallelism_threads: 0
  set tf inter_op_parallelism_threads: 0
  >>> Info of lammps module:
  use deepmd-kit at:  /rs1/researchers/w/wjpfaend/rahul/MLP/DeePMD-kit/deepmd_cpu
  source:             v2.2.8-dirty
  source branch:      master
  source commit:      b875ea8
  source commit at:   2024-01-22 22:28:58 -0500
  build float prec:   double
  build with tf inc:  /rs1/researchers/w/wjpfaend/rahul/MLP/DeePMD-kit/tensorflow/lib/python3.11/site-packages/tensorflow/include;/rs1/researchers/w/wjpfaend/rahul/MLP/DeePMD-kit/tensorflow/lib/python3.11/site-packages/tensorflow/include
  build with tf lib:  /rs1/researchers/w/wjpfaend/rahul/MLP/DeePMD-kit/tensorflow/lib/python3.11/site-packages/tensorflow/libtensorflow_cc.so.2
pair_coeff	* *

#
velocity        all create 300.0 2345678 rot no dist gaussian
fix             1 all nvt temp 300.0 300.0 0.05
fix             2 all plumed plumedfile plumed.dat outfile PLUMED.log

timestep        0.0005
thermo_style    custom step pe ke etotal v_sysdensity temp press vol
thermo          10

dump            10 all custom 100 btd.dump id type x y z
dump		101 all xyz 20 btd.xyz
dump_modify	101 element C H

fix		extra all print 20 "$(step), $(ke), $(pe), $(etotal), $(temp), $(press), $(vol)" file logfile screen no

restart	        20000 dump.restart

run             50000

CITE-CITE-CITE-CITE-CITE-CITE-CITE-CITE-CITE-CITE-CITE-CITE-CITE

Your simulation uses code contributions which should be cited:

- USER-DEEPMD package:

@article{Wang_ComputPhysCommun_2018_v228_p178,
  author = {Wang, Han and Zhang, Linfeng and Han, Jiequn and E, Weinan},
  doi = {10.1016/j.cpc.2018.03.016},
  url = {https://doi.org/10.1016/j.cpc.2018.03.016},
  year = 2018,
  month = {jul},
  publisher = {Elsevier {BV}},
  volume = 228,
  journal = {Comput. Phys. Commun.},
  title = {{DeePMD-kit: A deep learning package for many-body potential energy representation and molecular dynamics}},
  pages = {178--184}
}
@misc{Zeng_JChemPhys_2023_v159_p054801,
  title  = {{DeePMD-kit v2: A software package for deep potential models}},
  author =   {Jinzhe Zeng and Duo Zhang and Denghui Lu and Pinghui Mo and Zeyu Li
         and Yixiao Chen and Mari{\'a}n Rynik and Li'ang Huang and Ziyao Li and 
         Shaochen Shi and Yingze Wang and Haotian Ye and Ping Tuo and Jiabin
         Yang and Ye Ding and Yifan Li and Davide Tisi and Qiyu Zeng and Han 
         Bao and Yu Xia and Jiameng Huang and Koki Muraoka and Yibo Wang and 
         Junhan Chang and Fengbo Yuan and Sigbj{\o}rn L{\o}land Bore and Chun
         Cai and Yinnian Lin and Bo Wang and Jiayan Xu and Jia-Xin Zhu and 
         Chenxing Luo and Yuzhi Zhang and Rhys E A Goodall and Wenshuo Liang
         and Anurag Kumar Singh and Sikai Yao and Jingchao Zhang and Renata
         Wentzcovitch and Jiequn Han and Jie Liu and Weile Jia and Darrin M
         York and Weinan E and Roberto Car and Linfeng Zhang and Han Wang},
  journal =  {J. Chem. Phys.},
  volume =   159,
  issue =    5,  
  year =    2023,
  pages  =   054801,
  doi =      {10.1063/5.0155600},
}

CITE-CITE-CITE-CITE-CITE-CITE-CITE-CITE-CITE-CITE-CITE-CITE-CITE

Generated 0 of 1 mixed pair_coeff terms from geometric mixing rule
Neighbor list info ...
  update: every = 1 steps, delay = 0 steps, check = yes
  max neighbors/atom: 2000, page size: 100000
  master list distance cutoff = 8
  ghost atom cutoff = 8
  binsize = 4, bins = 4 4 4
  1 neighbor lists, perpetual/occasional/extra = 1 0 0
  (1) pair deepmd, perpetual
      attributes: full, newton on
      pair build: full/bin/atomonly
      stencil: full/bin/3d
      bin: standard
Per MPI rank memory allocation (min/avg/max) = 2.958 | 2.999 | 3.082 Mbytes
   Step         PotEng         KinEng         TotEng      v_sysdensity       Temp          Press          Volume    
         0  -55.978258      0.34900239    -55.629256      0.029520714    300           -1895.4272      3375         
        10  -56.173244      0.61584107    -55.557403      0.029520714    529.37265      442.56198      3375         
        20  -55.881613      0.35247842    -55.529134      0.029520714    302.98797      2278.7042      3375         
        30  -56.212883      0.69456328    -55.51832       0.029520714    597.04171      517.25564      3375         
        40  -55.936054      0.36413968    -55.571914      0.029520714    313.01191     -1716.0807      3375         
        50  -56.239626      0.65660872    -55.583017      0.029520714    564.41624     -1011.8005      3375         
        60  -55.999303      0.34659056    -55.652713      0.029520714    297.92681      744.7901       3375         
        70  -56.135087      0.54054513    -55.594542      0.029520714    464.64879      973.4834       3375         
        80  -56.009483      0.31893753    -55.690545      0.029520714    274.15646     -594.5028       3375         
        90  -55.955697      0.28299168    -55.672705      0.029520714    243.25766     -989.89364      3375         
       100  -56.175417      0.42387133    -55.751546      0.029520714    364.35682      848.61962      3375         
       110  -55.997027      0.28430768    -55.712719      0.029520714    244.38888      1348.9152      3375         
       120  -56.091596      0.34623203    -55.745364      0.029520714    297.61862     -310.40253      3375         
       130  -55.907309      0.14654711    -55.760762      0.029520714    125.97087     -1768.9952      3375         
       140  -56.281513      0.49631388    -55.785199      0.029520714    426.62792     -574.10143      3375         
       150  -56.085062      0.27895158    -55.80611       0.029520714    239.78481      1465.1294      3375         
       160  -56.212596      0.45047706    -55.762119      0.029520714    387.22691      1221.5027      3375         
       170  -56.090536      0.27193194    -55.818604      0.029520714    233.75078     -785.15898      3375         
       180  -56.241813      0.43762371    -55.804189      0.029520714    376.17826     -1053.0816      3375         
       190  -56.187548      0.33136806    -55.856179      0.029520714    284.84165      193.22308      3375         
       200  -56.134164      0.33337926    -55.800784      0.029520714    286.57047      757.9822       3375         
       210  -56.25669       0.42179845    -55.834892      0.029520714    362.57498     -169.92638      3375         
       220  -56.058748      0.22338754    -55.83536       0.029520714    192.02235     -1162.6858      3375         
       230  -56.157508      0.29685689    -55.860651      0.029520714    255.1761       295.28109      3375         
       240  -56.076321      0.22932422    -55.846997      0.029520714    197.12549      1725.2884      3375         
       250  -56.213388      0.39356662    -55.819822      0.029520714    338.3071       279.83406      3375         
       260  -55.996955      0.14687461    -55.850081      0.029520714    126.25239     -1504.4297      3375         
       270  -56.201853      0.36684928    -55.835003      0.029520714    315.34106     -1022.9713      3375         
       280  -56.1382        0.27341378    -55.864787      0.029520714    235.02456      284.5713       3375         
       290  -56.147616      0.34694991    -55.800666      0.029520714    298.2357       1369.2214      3375         
       300  -56.153387      0.32281035    -55.830577      0.029520714    277.48551      425.96345      3375         
       310  -56.210324      0.391563      -55.818761      0.029520714    336.5848      -1131.8767      3375         
       320  -56.259023      0.4186119     -55.840411      0.029520714    359.83584      13.561224      3375         
       330  -56.084676      0.2770317     -55.807644      0.029520714    238.1345       980.96236      3375         
       340  -56.187819      0.38894562    -55.798873      0.029520714    334.33492     -464.82783      3375         
       350  -56.097325      0.28353449    -55.813791      0.029520714    243.72425     -1323.5007      3375         
       360  -56.22467       0.41654782    -55.808122      0.029520714    358.06157     -113.734        3375         
       370  -56.020671      0.19373821    -55.826933      0.029520714    166.536        1140.5118      3375         
       380  -56.149821      0.38474884    -55.765073      0.029520714    330.72739      1528.3466      3375         
       390  -56.048188      0.24971479    -55.798474      0.029520714    214.65307     -478.45901      3375         
       400  -56.060755      0.27765535    -55.7831        0.029520714    238.67058     -2053.7036      3375         
       410  -56.094095      0.29223509    -55.80186       0.029520714    251.20323     -173.3354       3375         
       420  -56.193836      0.44070778    -55.753128      0.029520714    378.82931      1366.0194      3375         
       430  -56.119737      0.37059362    -55.749144      0.029520714    318.55967      393.44475      3375         
       440  -56.029624      0.28390179    -55.745722      0.029520714    244.03998     -590.63296      3375         
       450  -56.215326      0.46919458    -55.746132      0.029520714    403.31636     -134.08412      3375         
       460  -56.154118      0.42468589    -55.729432      0.029520714    365.05701      387.27722      3375         
       470  -56.196213      0.51843921    -55.677774      0.029520714    445.6467       499.98112      3375         
       480  -55.963317      0.26554283    -55.697774      0.029520714    228.25875     -1022.0829      3375         
       490  -56.137653      0.45412293    -55.68353       0.029520714    390.36088     -1236.2623      3375         
       500  -56.015832      0.32924425    -55.686588      0.029520714    283.01604      957.33029      3375         
       510  -56.075598      0.44798934    -55.627609      0.029520714    385.08848      1727.9579      3375         
       520  -55.939448      0.30701605    -55.632432      0.029520714    263.90884      45.529291      3375         
       530  -56.036275      0.42939599    -55.606879      0.029520714    369.10578     -1353.4782      3375         
       540  -55.944177      0.34487781    -55.599299      0.029520714    296.45454     -813.77256      3375         
       550  -55.9257        0.37048141    -55.555218      0.029520714    318.46321      459.01372      3375         
       560  -56.059956      0.56170187    -55.498254      0.029520714    482.83498      1023.5308      3375         
       570  -55.979629      0.5066495     -55.47298       0.029520714    435.51234     -561.80008      3375         
       580  -56.03098       0.59309418    -55.437886      0.029520714    509.81958     -574.79912      3375         
       590  -55.925996      0.51234847    -55.413647      0.029520714    440.41114      963.52162      3375         
       600  -56.134854      0.79893206    -55.335922      0.029520714    686.75638      916.40036      3375         
       610  -55.828193      0.47574447    -55.352448      0.029520714    408.9466      -622.08417      3375         
       620  -56.000323      0.67117706    -55.329146      0.029520714    576.93908     -1717.2785      3375         
       630  -55.919985      0.56125227    -55.358733      0.029520714    482.4485      -577.76912      3375         
       640  -55.951456      0.61944583    -55.33201       0.029520714    532.47128      1211.7512      3375         
       650  -55.698887      0.35197241    -55.346915      0.029520714    302.55301      1346.9455      3375         
       660  -55.850626      0.48471419    -55.365912      0.029520714    416.65691     -401.7624       3375         
       670  -55.922221      0.5240411     -55.39818       0.029520714    450.46204     -598.39753      3375         
       680  -55.812814      0.39985482    -55.412959      0.029520714    343.71239      57.468849      3375         
       690  -55.979586      0.56122097    -55.418365      0.029520714    482.4216       506.96445      3375         
       700  -55.800392      0.33942362    -55.460968      0.029520714    291.76615     -124.10559      3375         
       710  -56.124699      0.62693851    -55.49776       0.029520714    538.91194     -1252.1315      3375         
       720  -55.941636      0.39403154    -55.547604      0.029520714    338.70674     -163.51037      3375         
       730  -56.190028      0.6247752     -55.565253      0.029520714    537.05237      1231.5168      3375         
       740  -56.09128       0.47240676    -55.618873      0.029520714    406.07752      891.04996      3375         
       750  -56.188325      0.52301558    -55.66531       0.029520714    449.58051     -505.79758      3375         
       760  -55.962712      0.25551588    -55.707196      0.029520714    219.63965     -932.22591      3375         
       770  -56.092918      0.38755858    -55.705359      0.029520714    333.14263     -515.49101      3375         
       780  -56.274956      0.54897652    -55.72598       0.029520714    471.89636      723.48509      3375         
       790  -55.995436      0.24587208    -55.749564      0.029520714    211.34991      461.48612      3375         
       800  -56.043396      0.28008541    -55.763311      0.029520714    240.75944     -482.39961      3375         
       810  -56.003743      0.23415834    -55.769584      0.029520714    201.28086      277.34722      3375         
       820  -56.214599      0.45351165    -55.761087      0.029520714    389.83542      450.01318      3375         
       830  -55.966779      0.19547986    -55.7713        0.029520714    168.03311     -341.75594      3375         
       840  -56.149987      0.37328079    -55.776706      0.029520714    320.86954     -670.02886      3375         
       850  -56.099691      0.30787962    -55.791811      0.029520714    264.65115     -373.01665      3375         
       860  -56.193667      0.42349811    -55.770169      0.029520714    364.036        462.84821      3375         
       870  -56.104841      0.32681568    -55.778025      0.029520714    280.92846      1362.7032      3375         
       880  -56.191768      0.4060591     -55.785709      0.029520714    349.04555      8.5186749      3375         
       890  -56.259479      0.46146824    -55.798011      0.029520714    396.67485     -1190.7641      3375         
       900  -56.101588      0.30536665    -55.796221      0.029520714    262.49103     -522.21396      3375         
       910  -56.16059       0.3621484     -55.798442      0.029520714    311.30022      59.770776      3375         
       920  -56.086014      0.27940324    -55.80661       0.029520714    240.17306      493.17365      3375         
       930  -56.205363      0.39079655    -55.814566      0.029520714    335.92596      434.40923      3375         
       940  -55.997282      0.1785926     -55.818689      0.029520714    153.51694     -61.657262      3375         
       950  -56.199801      0.38855719    -55.811244      0.029520714    334.00103     -112.61381      3375         
       960  -56.021135      0.20436104    -55.816774      0.029520714    175.66731      349.14564      3375         
       970  -56.129612      0.30969791    -55.819914      0.029520714    266.21414     -347.91686      3375         
       980  -56.104166      0.28174849    -55.822418      0.029520714    242.18902     -672.0563       3375         
       990  -56.168642      0.35818655    -55.810456      0.029520714    307.89464     -130.9419       3375         
      1000  -56.202705      0.39254799    -55.810157      0.029520714    337.43149      557.01197      3375         
      1010  -56.123287      0.31128952    -55.811997      0.029520714    267.58228      848.82125      3375         
      1020  -56.247326      0.4347261     -55.8126        0.029520714    373.6875      -105.57612      3375         
      1030  -56.075185      0.27408465    -55.801101      0.029520714    235.60123     -789.13057      3375         
      1040  -56.253867      0.45611861    -55.797748      0.029520714    392.07635     -365.91313      3375         
      1050  -56.126502      0.3265256     -55.799976      0.029520714    280.67911      406.75519      3375         
      1060  -56.229078      0.42597495    -55.803103      0.029520714    366.16507      223.80513      3375         
      1070  -55.952595      0.15341812    -55.799177      0.029520714    131.87713     -120.64361      3375         
      1080  -56.103102      0.31358803    -55.789514      0.029520714    269.55806     -280.14143      3375         
      1090  -56.132872      0.34508952    -55.787782      0.029520714    296.63652      422.33231      3375         
      1100  -56.12889       0.34328274    -55.785607      0.029520714    295.08343      505.0902       3375         
      1110  -56.011455      0.23468881    -55.776766      0.029520714    201.73685     -487.76599      3375         
      1120  -55.990816      0.22803653    -55.76278       0.029520714    196.01859     -625.97528      3375         
      1130  -56.249239      0.49844067    -55.750798      0.029520714    428.45609     -6.5125906      3375         
      1140  -56.092522      0.358423      -55.734099      0.029520714    308.09789      568.59475      3375         
      1150  -56.18848       0.46587539    -55.722605      0.029520714    400.46321      575.15968      3375         
      1160  -56.015631      0.31714839    -55.698482      0.029520714    272.61852     -172.33652      3375         
      1170  -56.242311      0.56500406    -55.677307      0.029520714    485.67352     -938.64593      3375         
      1180  -56.05599       0.39304915    -55.662941      0.029520714    337.86229      84.209971      3375         
      1190  -56.044888      0.38414447    -55.660744      0.029520714    330.20788      449.33143      3375         
      1200  -56.036892      0.40302277    -55.63387       0.029520714    346.43554     -224.31722      3375         
      1210  -56.117329      0.50805705    -55.609272      0.029520714    436.72226     -93.685111      3375         
      1220  -55.944159      0.33875786    -55.605401      0.029520714    291.19388      121.8475       3375         
      1230  -55.833811      0.2340756     -55.599736      0.029520714    201.20974      474.89839      3375         
      1240  -56.09896       0.50864253    -55.590317      0.029520714    437.22554      638.24032      3375         
      1250  -55.990239      0.43409891    -55.55614       0.029520714    373.14837     -631.92521      3375         
      1260  -56.012145      0.46006173    -55.552084      0.029520714    395.46583     -1559.9222      3375         
      1270  -55.886072      0.34625056    -55.539821      0.029520714    297.63454      232.08287      3375         
      1280  -56.119845      0.56839677    -55.551448      0.029520714    488.58987      1272.2423      3375         
      1290  -56.007121      0.50173594    -55.505385      0.029520714    431.28868      604.08589      3375         
      1300  -56.100584      0.59436006    -55.506224      0.029520714    510.90772     -266.49542      3375         
      1310  -56.069669      0.55438862    -55.51528       0.029520714    476.54856     -963.25203      3375         
      1320  -55.992676      0.46351294    -55.529164      0.029520714    398.43246     -105.56377      3375         
      1330  -55.988954      0.45162089    -55.537333      0.029520714    388.21014      639.84027      3375         
      1340  -55.973718      0.43412643    -55.539592      0.029520714    373.17202     -533.4717       3375         
      1350  -56.072285      0.50163769    -55.570647      0.029520714    431.20423     -727.67089      3375         
      1360  -55.960656      0.36616507    -55.594491      0.029520714    314.75291      1074.0396      3375         
      1370  -56.025189      0.38138208    -55.643807      0.029520714    327.83335      936.58361      3375         
      1380  -55.881378      0.2583824     -55.622996      0.029520714    222.10369     -335.27533      3375         
      1390  -56.034674      0.37452907    -55.660145      0.029520714    321.94255     -783.95758      3375         
      1400  -56.110326      0.41577894    -55.694547      0.029520714    357.40065     -705.38035      3375         
      1410  -56.188415      0.44939269    -55.739023      0.029520714    386.2948       563.67853      3375         
      1420  -56.096645      0.33740868    -55.759236      0.029520714    290.03413      1044.577       3375         
      1430  -56.089659      0.31092799    -55.778731      0.029520714    267.27151     -412.90517      3375         
      1440  -56.208028      0.39747708    -55.810551      0.029520714    341.6685      -764.07334      3375         
      1450  -56.28771       0.44967727    -55.838033      0.029520714    386.53941      322.13229      3375         
      1460  -56.209366      0.33450902    -55.874857      0.029520714    287.5416       309.58548      3375         
      1470  -56.038092      0.18077365    -55.857318      0.029520714    155.39176     -322.80981      3375         
      1480  -56.210216      0.33221797    -55.877998      0.029520714    285.57223     -320.7277       3375         
      1490  -56.170041      0.28178476    -55.888256      0.029520714    242.2202       231.36971      3375         
      1500  -56.186634      0.28196913    -55.904665      0.029520714    242.37868      637.64717      3375         
      1510  -56.092118      0.19884174    -55.893276      0.029520714    170.92296      204.3402       3375         
      1520  -56.141516      0.24652704    -55.894989      0.029520714    211.91291     -578.61906      3375         
      1530  -56.153017      0.25460817    -55.898409      0.029520714    218.85939     -699.71051      3375         
      1540  -56.209682      0.30742408    -55.902258      0.029520714    264.25958      157.394        3375         
      1550  -56.163086      0.25945342    -55.903632      0.029520714    223.02433      772.99453      3375         
      1560  -56.178852      0.29927049    -55.879582      0.029520714    257.25081      30.97185       3375         
      1570  -56.288406      0.40463816    -55.883768      0.029520714    347.82411     -498.31138      3375         
      1580  -56.149952      0.26732954    -55.882622      0.029520714    229.79459      300.61145      3375         
      1590  -56.208439      0.32004703    -55.888392      0.029520714    275.11018      332.13385      3375         
      1600  -56.226282      0.36545094    -55.860831      0.029520714    314.13906     -418.94417      3375         
      1610  -56.199278      0.33314987    -55.866128      0.029520714    286.37329     -498.64519      3375         
      1620  -56.079253      0.2184118     -55.860841      0.029520714    187.74525     -270.41134      3375         
      1630  -56.223382      0.35828744    -55.865094      0.029520714    307.98136      574.1538       3375         
      1640  -56.088701      0.23880242    -55.849898      0.029520714    205.27288      944.06741      3375         
      1650  -56.038234      0.20995452    -55.828279      0.029520714    180.47543     -406.36953      3375         
      1660  -56.130627      0.29946373    -55.831163      0.029520714    257.41692     -819.98721      3375         
      1670  -56.165789      0.3452258     -55.820564      0.029520714    296.75367      416.37079      3375         
      1680  -56.115998      0.30294955    -55.813048      0.029520714    260.4133       318.93256      3375         
      1690  -56.08208       0.31082976    -55.77125       0.029520714    267.18707     -223.41792      3375         
      1700  -56.178362      0.40579242    -55.772569      0.029520714    348.81631     -436.61813      3375         
      1710  -56.177229      0.42745273    -55.749776      0.029520714    367.43536     -288.81379      3375         
      1720  -56.281599      0.53839698    -55.743202      0.029520714    462.80225      864.15268      3375         
      1730  -56.023268      0.31654784    -55.70672       0.029520714    272.10229      813.99622      3375         
      1740  -56.076386      0.3858003     -55.690586      0.029520714    331.63123     -1057.5869      3375         
      1750  -56.103002      0.41504085    -55.687961      0.029520714    356.76619     -822.53875      3375         
      1760  -56.181033      0.49958506    -55.681448      0.029520714    429.4398       751.85803      3375         
      1770  -55.961146      0.28972151    -55.671424      0.029520714    249.04257      206.93833      3375         
      1780  -56.003031      0.36627021    -55.63676       0.029520714    314.84329     -11.088076      3375         
      1790  -55.972445      0.32134095    -55.651104      0.029520714    276.22242     -126.54775      3375         
      1800  -55.976782      0.34212466    -55.634657      0.029520714    294.08795     -304.11502      3375         
      1810  -56.115628      0.47203941    -55.643589      0.029520714    405.76175      636.4412       3375         
      1820  -55.935848      0.33994646    -55.595902      0.029520714    292.21559      418.12717      3375         
      1830  -56.032157      0.43733461    -55.594822      0.029520714    375.92975     -1312.741       3375         
      1840  -56.070627      0.48387032    -55.586756      0.029520714    415.93152     -363.83467      3375         
      1850  -56.233757      0.64363242    -55.590124      0.029520714    553.2619       1271.5955      3375         
      1860  -55.899161      0.33246192    -55.566699      0.029520714    285.78193      591.29837      3375         
      1870  -56.162103      0.61180154    -55.550302      0.029520714    525.9003      -317.93431      3375         
      1880  -56.06471       0.50099858    -55.563712      0.029520714    430.65485     -1193.2568      3375         
      1890  -56.110938      0.53546714    -55.575471      0.029520714    460.28378     -632.12605      3375         
      1900  -55.905461      0.31064295    -55.594818      0.029520714    267.0265       1046.5636      3375         
      1910  -55.947675      0.38594423    -55.561731      0.029520714    331.75495      809.93644      3375         
      1920  -56.069678      0.46236117    -55.607317      0.029520714    397.44241     -592.42798      3375         
      1930  -55.977274      0.35427449    -55.622999      0.029520714    304.53186     -270.62223      3375         
      1940  -56.020918      0.35055038    -55.670367      0.029520714    301.33064      403.83748      3375         
      1950  -55.887503      0.22268864    -55.664815      0.029520714    191.42159      306.39152      3375         
      1960  -56.183112      0.49370363    -55.689408      0.029520714    424.38416     -377.03746      3375         
      1970  -56.028614      0.30071104    -55.727903      0.029520714    258.48909     -1039.3986      3375         
      1980  -56.233784      0.46282777    -55.770957      0.029520714    397.84349      275.56902      3375         
      1990  -56.176844      0.37160281    -55.805241      0.029520714    319.42716      1288.2631      3375         
      2000  -56.167563      0.37200397    -55.795559      0.029520714    319.772        171.09331      3375         
      2010  -56.115962      0.2704705     -55.845492      0.029520714    232.49454     -939.93503      3375         
      2020  -56.287474      0.42419668    -55.863277      0.029520714    364.63648     -553.07439      3375         
      2030  -56.261013      0.35775446    -55.903259      0.029520714    307.52321      399.89909      3375         
      2040  -56.089871      0.20064879    -55.889222      0.029520714    172.47629      729.79305      3375         
      2050  -56.180891      0.26819784    -55.912693      0.029520714    230.54097     -343.79677      3375         
      2060  -56.134098      0.21644133    -55.917656      0.029520714    186.05144     -732.59053      3375         
      2070  -56.249752      0.30357232    -55.94618       0.029520714    260.94863      445.58698      3375         
      2080  -56.091234      0.15775351    -55.93348       0.029520714    135.6038       646.21137      3375         
      2090  -56.201459      0.28160256    -55.919857      0.029520714    242.06358     -152.05505      3375         
      2100  -56.143853      0.20486008    -55.938993      0.029520714    176.09629     -660.70814      3375         
      2110  -56.249942      0.30782544    -55.942117      0.029520714    264.60458     -272.45032      3375         
      2120  -56.201514      0.25253881    -55.948975      0.029520714    217.08058      804.33012      3375         
      2130  -56.242712      0.32279906    -55.919913      0.029520714    277.4758       606.45657      3375         
      2140  -56.23058       0.29915833    -55.931421      0.029520714    257.15439     -920.47516      3375         
      2150  -56.253619      0.32852011    -55.925099      0.029520714    282.39358     -660.14565      3375         
      2160  -56.264862      0.32270665    -55.942156      0.029520714    277.39636      594.96165      3375         
      2170  -56.084841      0.17542018    -55.909421      0.029520714    150.78995      530.23         3375         
      2180  -56.258397      0.35991605    -55.898481      0.029520714    309.38131     -98.502204      3375         
      2190  -56.136619      0.23501241    -55.901607      0.029520714    202.01502     -639.80668      3375         
      2200  -56.198399      0.29780491    -55.900594      0.029520714    255.99101     -244.33662      3375         
      2210  -56.084126      0.20069591    -55.883431      0.029520714    172.5168       1066.8123      3375         
      2220  -56.138839      0.28403496    -55.854804      0.029520714    244.15445      520.78197      3375         
      2230  -56.080418      0.22397969    -55.856439      0.029520714    192.53136     -1186.9395      3375         
      2240  -56.237281      0.40823424    -55.829047      0.029520714    350.91528     -671.55473      3375         
      2250  -56.222739      0.38971046    -55.833028      0.029520714    334.99237      539.24779      3375         
      2260  -55.983531      0.20894074    -55.77459       0.029520714    179.60399      625.31462      3375         
      2270  -56.200256      0.4429743     -55.757282      0.029520714    380.77759      155.78135      3375         
      2280  -56.195611      0.45337637    -55.742235      0.029520714    389.71913     -538.07178      3375         
      2290  -56.220782      0.48689968    -55.733882      0.029520714    418.53554     -81.926113      3375         
      2300  -55.99862       0.29264908    -55.70597       0.029520714    251.55909      771.57237      3375         
      2310  -56.173299      0.49693968    -55.676359      0.029520714    427.16585     -242.16522      3375         
      2320  -55.971193      0.2864704     -55.684723      0.029520714    246.24794     -1370.1563      3375         
      2330  -56.052265      0.38324746    -55.669018      0.029520714    329.43682     -225.0544       3375         
      2340  -55.998619      0.30953271    -55.689086      0.029520714    266.07214      1387.0304      3375         
      2350  -56.054846      0.4241062     -55.63074       0.029520714    364.5587       1276.5967      3375         
      2360  -56.005739      0.36148753    -55.644251      0.029520714    310.73214     -469.32269      3375         
      2370  -55.8791        0.24286946    -55.63623       0.029520714    208.76888     -1702.8091      3375         
      2380  -56.207582      0.54957796    -55.658004      0.029520714    472.41334     -401.65231      3375         
      2390  -56.024056      0.40660095    -55.617455      0.029520714    349.51131      1080.8019      3375         
      2400  -56.10721       0.49153166    -55.615678      0.029520714    422.51716      714.49089      3375         
      2410  -56.013503      0.3845713     -55.628932      0.029520714    330.57478     -384.16014      3375         
      2420  -56.273428      0.64025946    -55.633169      0.029520714    550.36253     -454.81483      3375         
      2430  -56.002959      0.33988023    -55.663078      0.029520714    292.15865      236.41251      3375         
      2440  -56.086243      0.46726906    -55.618973      0.029520714    401.6612       299.32839      3375         
      2450  -56.057602      0.39756996    -55.660032      0.029520714    341.74834     -811.48378      3375         
      2460  -56.08073       0.41639403    -55.664336      0.029520714    357.92938     -618.42275      3375         
      2470  -56.058025      0.35478077    -55.703244      0.029520714    304.96705      1006.9036      3375         
      2480  -55.923441      0.24740796    -55.676033      0.029520714    212.67014      1078.4355      3375         
      2490  -56.065119      0.37137846    -55.69374       0.029520714    319.23431     -24.517242      3375         
      2500  -56.01917       0.31512569    -55.704044      0.029520714    270.87982     -1108.8696      3375         
      2510  -56.142102      0.41537396    -55.726728      0.029520714    357.05253     -1091.5776      3375         
      2520  -56.025548      0.29507608    -55.730472      0.029520714    253.64532      548.54086      3375         
      2530  -56.162288      0.44632148    -55.715967      0.029520714    383.6548       1174.2184      3375         
      2540  -55.994562      0.25141149    -55.743151      0.029520714    216.11155     -152.12229      3375         
      2550  -56.276887      0.52435023    -55.752536      0.029520714    450.72777     -340.6973       3375         
      2560  -56.230059      0.43925735    -55.790801      0.029520714    377.58252      227.13213      3375         
      2570  -56.115346      0.35413577    -55.76121       0.029520714    304.41262     -81.560167      3375         
      2580  -56.09553       0.29637359    -55.799157      0.029520714    254.76065     -126.43223      3375         
      2590  -56.151865      0.34919919    -55.802666      0.029520714    300.16917     -586.28269      3375         
      2600  -56.193375      0.35473284    -55.838642      0.029520714    304.92586     -319.4656       3375         
      2610  -56.096932      0.26436417    -55.832568      0.029520714    227.24558      1021.7602      3375         
      2620  -56.11902       0.28241431    -55.836606      0.029520714    242.76135      640.67153      3375         
      2630  -56.042442      0.18954114    -55.852901      0.029520714    162.92823     -684.08865      3375         
      2640  -56.2373        0.37010283    -55.867197      0.029520714    318.13779     -379.77492      3375         
      2650  -56.071804      0.18696991    -55.884834      0.029520714    160.71802      121.16857      3375         
      2660  -56.173321      0.30481548    -55.868505      0.029520714    262.01724      200.36714      3375         
      2670  -56.23464       0.33776517    -55.896875      0.029520714    290.34057      306.06651      3375         
      2680  -56.234413      0.32241708    -55.911996      0.029520714    277.14745     -673.31647      3375         
      2690  -56.149942      0.20514301    -55.944799      0.029520714    176.33948     -403.63981      3375         
      2700  -56.297393      0.35211491    -55.945278      0.029520714    302.6755       934.3607       3375         
      2710  -56.283062      0.29568917    -55.987373      0.029520714    254.17233      419.23014      3375         
      2720  -56.199251      0.17882831    -56.020423      0.029520714    153.71956     -625.40192      3375         
      2730  -56.292135      0.23766489    -56.054471      0.029520714    204.29507     -322.66685      3375         
      2740  -56.266622      0.19006511    -56.076557      0.029520714    163.37863      17.259041      3375         
      2750  -56.248212      0.16853255    -56.079679      0.029520714    144.8694       282.33917      3375         
      2760  -56.231127      0.1310399     -56.100087      0.029520714    112.64097      260.16896      3375         
      2770  -56.307433      0.19677273    -56.110661      0.029520714    169.14445     -328.55605      3375         
      2780  -56.268859      0.14685488    -56.122004      0.029520714    126.23542     -64.773082      3375         
      2790  -56.282773      0.17158194    -56.111191      0.029520714    147.49062      395.27429      3375         
      2800  -56.23417       0.11808337    -56.116086      0.029520714    101.50363     -122.65771      3375         
      2810  -56.323294      0.20418289    -56.119111      0.029520714    175.51417     -566.25028      3375         
      2820  -56.355023      0.23562863    -56.119394      0.029520714    202.54471      1.0670133      3375         
      2830  -56.299336      0.18846814    -56.110868      0.029520714    162.00588      626.55424      3375         
      2840  -56.258439      0.15737396    -56.101065      0.029520714    135.27755      541.43602      3375         
      2850  -56.307209      0.20751152    -56.099697      0.029520714    178.37545     -359.94443      3375         
      2860  -56.324973      0.23032272    -56.09465       0.029520714    197.98379     -902.46921      3375         
      2870  -56.24882       0.16322155    -56.085599      0.029520714    140.30409     -303.5211       3375         
      2880  -56.280174      0.21987651    -56.060298      0.029520714    189.0043       526.40426      3375         
      2890  -56.204549      0.14943624    -56.055112      0.029520714    128.45434      669.78655      3375         
      2900  -56.218255      0.17024368    -56.048011      0.029520714    146.34027      82.552245      3375         
      2910  -56.222959      0.18845951    -56.034499      0.029520714    161.99847     -220.6008       3375         
      2920  -56.280093      0.26922157    -56.010871      0.029520714    231.42097     -108.79962      3375         
      2930  -56.164563      0.17117047    -55.993393      0.029520714    147.13694     -156.63795      3375         
      2940  -56.210678      0.22795762    -55.98272       0.029520714    195.95076     -451.37549      3375         
      2950  -56.254314      0.28444909    -55.969864      0.029520714    244.51043     -95.415957      3375         
      2960  -56.223829      0.27486686    -55.948962      0.029520714    236.27362      496.40645      3375         
      2970  -56.205139      0.28075953    -55.92438       0.029520714    241.33891      714.07154      3375         
      2980  -56.262098      0.34708833    -55.91501       0.029520714    298.35469      91.922391      3375         
      2990  -56.245696      0.34131419    -55.904381      0.029520714    293.39127     -907.08039      3375         
      3000  -56.056501      0.17037921    -55.886122      0.029520714    146.45677     -501.65629      3375         
      3010  -56.233147      0.36039533    -55.872751      0.029520714    309.79329      380.70518      3375         
      3020  -56.179641      0.31681912    -55.862822      0.029520714    272.33549      442.02367      3375         
      3030  -56.156436      0.3058999     -55.850536      0.029520714    262.9494       49.931719      3375         
      3040  -56.041767      0.19396054    -55.847806      0.029520714    166.72711     -87.159758      3375         
      3050  -56.111803      0.28284725    -55.828955      0.029520714    243.13351     -285.80589      3375         
      3060  -56.120523      0.31203214    -55.808491      0.029520714    268.22064      268.87084      3375         
      3070  -56.144468      0.34350141    -55.800967      0.029520714    295.27139      110.25637      3375         
      3080  -56.088743      0.29632453    -55.792418      0.029520714    254.71848     -584.03438      3375         
      3090  -56.135962      0.36671436    -55.769248      0.029520714    315.22508      206.53664      3375         
      3100  -56.226578      0.4755278     -55.75105       0.029520714    408.76035      672.79823      3375         
      3110  -56.015816      0.27466498    -55.741151      0.029520714    236.10009     -247.61403      3375         
      3120  -56.204432      0.47269234    -55.731739      0.029520714    406.32301     -401.51289      3375         
      3130  -56.138698      0.41643903    -55.722259      0.029520714    357.96806     -4.7406437      3375         
      3140  -56.158803      0.45915239    -55.699651      0.029520714    394.68417     -330.14895      3375         
      3150  -55.95936       0.26025988    -55.699101      0.029520714    223.71756      450.30035      3375         
      3160  -56.071145      0.37049717    -55.700648      0.029520714    318.47676      349.42713      3375         
      3170  -56.042104      0.34746077    -55.694643      0.029520714    298.67484     -544.69922      3375         
      3180  -56.077225      0.41016051    -55.667065      0.029520714    352.57109      112.74482      3375         
      3190  -56.038804      0.36590831    -55.672896      0.029520714    314.53221      525.48628      3375         
      3200  -55.950733      0.28285499    -55.667878      0.029520714    243.14016     -232.82297      3375         
      3210  -56.076317      0.41114397    -55.665173      0.029520714    353.41647     -49.081184      3375         
      3220  -56.019913      0.36449731    -55.655415      0.029520714    313.31932     -130.38188      3375         
      3230  -56.177172      0.53620915    -55.640963      0.029520714    460.92162     -763.02351      3375         
      3240  -56.018438      0.37657186    -55.641866      0.029520714    323.69852      385.43637      3375         
      3250  -56.161886      0.51220286    -55.649683      0.029520714    440.28597      718.71993      3375         
      3260  -55.998913      0.35198548    -55.646928      0.029520714    302.56424      106.29069      3375         
      3270  -56.101527      0.46791084    -55.633616      0.029520714    402.21287      143.02916      3375         
      3280  -56.146297      0.49070119    -55.655596      0.029520714    421.80329     -349.61696      3375         
      3290  -56.081723      0.41590071    -55.665822      0.029520714    357.50533     -794.08887      3375         
      3300  -55.955918      0.27545823    -55.68046       0.029520714    236.78195     -109.07108      3375         
      3310  -56.010307      0.33078221    -55.679525      0.029520714    284.33806      135.7332       3375         
      3320  -56.125039      0.42898138    -55.696058      0.029520714    368.74938      326.68402      3375         
      3330  -55.938113      0.22672083    -55.711392      0.029520714    194.88763      999.3035       3375         
      3340  -56.107511      0.36866149    -55.738849      0.029520714    316.89882      150.16784      3375         
      3350  -56.063549      0.31616257    -55.747387      0.029520714    271.77112     -915.80474      3375         
      3360  -56.093512      0.34020689    -55.753305      0.029520714    292.43945     -535.91208      3375         
      3370  -56.073645      0.28525829    -55.788386      0.029520714    245.20602     -55.19575       3375         
      3380  -56.317634      0.49739512    -55.820239      0.029520714    427.55735      309.47155      3375         
      3390  -56.126571      0.28245585    -55.844116      0.029520714    242.79706      676.99298      3375         
      3400  -56.193416      0.33111122    -55.862305      0.029520714    284.62088      84.089102      3375         
      3410  -56.26645       0.37000209    -55.896448      0.029520714    318.05119     -421.48023      3375         
      3420  -56.185554      0.26593266    -55.919621      0.029520714    228.59384     -182.86663      3375         
      3430  -56.149615      0.20711952    -55.942496      0.029520714    178.03848     -206.80608      3375         
      3440  -56.184257      0.24459464    -55.939663      0.029520714    210.25183     -208.41932      3375         
      3450  -56.2857        0.33199786    -55.953702      0.029520714    285.38303      312.72602      3375         
      3460  -56.109051      0.1421129     -55.966938      0.029520714    122.15925      661.66668      3375         
      3470  -56.201584      0.22212623    -55.979458      0.029520714    190.93814      158.19595      3375         
      3480  -56.134135      0.16024144    -55.973893      0.029520714    137.74242     -455.64547      3375         
      3490  -56.282868      0.31271349    -55.970155      0.029520714    268.80632     -538.12949      3375         
      3500  -56.221967      0.24707533    -55.974892      0.029520714    212.38421     -236.67976      3375         
      3510  -56.210066      0.2320148     -55.978051      0.029520714    199.43829      282.17321      3375         
      3520  -56.211807      0.23379192    -55.978015      0.029520714    200.96589      678.66951      3375         
      3530  -56.245147      0.285176      -55.959971      0.029520714    245.13528      151.76423      3375         
      3540  -56.314683      0.35817214    -55.956511      0.029520714    307.88225     -424.85074      3375         
      3550  -56.185157      0.23029982    -55.954857      0.029520714    197.9641       3.4463603      3375         
      3560  -56.249532      0.29098333    -55.958548      0.029520714    250.12722     -108.12304      3375         
      3570  -56.151249      0.21750907    -55.93374       0.029520714    186.96926     -402.83086      3375         
      3580  -56.22592       0.2939438     -55.931977      0.029520714    252.67202      56.241935      3375         
      3590  -56.137891      0.2129868     -55.924904      0.029520714    183.08196      223.49536      3375         
      3600  -56.230556      0.30574367    -55.924812      0.029520714    262.81511      265.99181      3375         
      3610  -56.049032      0.14358159    -55.90545       0.029520714    123.42172      540.91609      3375         
      3620  -56.154531      0.26875785    -55.885774      0.029520714    231.02235     -385.53798      3375         
      3630  -56.199632      0.31801556    -55.881617      0.029520714    273.36394     -724.77073      3375         
      3640  -56.136171      0.27012368    -55.866048      0.029520714    232.19641      395.55123      3375         
      3650  -56.190194      0.32086931    -55.869325      0.029520714    275.817        151.2222       3375         
      3660  -56.136473      0.30706602    -55.829407      0.029520714    263.95179     -320.06594      3375         
      3670  -56.266953      0.44256985    -55.824383      0.029520714    380.42993      104.50919      3375         
      3680  -56.124256      0.30764988    -55.816606      0.029520714    264.45367     -55.281641      3375         
      3690  -56.194746      0.37456411    -55.820182      0.029520714    321.97268      221.92333      3375         
      3700  -56.050999      0.2556319     -55.795367      0.029520714    219.73938      759.5652       3375         
      3710  -56.237945      0.45277633    -55.785169      0.029520714    389.20335     -633.48439      3375         
      3720  -56.075733      0.28653583    -55.789197      0.029520714    246.30418     -955.24961      3375         
      3730  -56.091241      0.30523455    -55.786007      0.029520714    262.37747      450.48259      3375         
      3740  -56.064463      0.26833256    -55.79613       0.029520714    230.65678      388.90403      3375         
      3750  -56.078963      0.32158409    -55.757379      0.029520714    276.43142      118.32532      3375         
      3760  -56.137558      0.36466866    -55.772889      0.029520714    313.46662      225.3332       3375         
      3770  -56.099341      0.33568846    -55.763653      0.029520714    288.55544     -358.11226      3375         
      3780  -56.12457       0.34330567    -55.781265      0.029520714    295.10314     -239.16061      3375         
      3790  -55.976341      0.23400375    -55.742337      0.029520714    201.14798      175.17367      3375         
      3800  -56.27153       0.52770453    -55.743826      0.029520714    453.6111      -373.739        3375         
      3810  -56.14647       0.39956513    -55.746905      0.029520714    343.46338      82.353827      3375         
      3820  -56.214741      0.46502076    -55.74972       0.029520714    399.72857      806.37822      3375         
      3830  -55.997113      0.24199959    -55.755113      0.029520714    208.02114      296.38183      3375         
      3840  -56.159971      0.42704616    -55.732924      0.029520714    367.08587     -538.62677      3375         
      3850  -56.152133      0.40484686    -55.747286      0.029520714    348.00351     -949.90314      3375         
      3860  -56.129791      0.37886498    -55.750926      0.029520714    325.66967     -474.66981      3375         
      3870  -56.012585      0.24457214    -55.768013      0.029520714    210.23249      767.22512      3375         
      3880  -56.011162      0.28283643    -55.728326      0.029520714    243.1242       1099.1775      3375         
      3890  -56.177223      0.43140094    -55.745822      0.029520714    370.82921      219.03399      3375         
      3900  -56.014539      0.2691635     -55.745375      0.029520714    231.37105     -463.43705      3375         
      3910  -56.145937      0.39008651    -55.755851      0.029520714    335.31562     -663.39943      3375         
      3920  -56.043147      0.29634484    -55.746802      0.029520714    254.73594     -308.3447       3375         
      3930  -56.200347      0.46798682    -55.73236       0.029520714    402.27818     -65.566999      3375         
      3940  -56.077824      0.33381523    -55.744009      0.029520714    286.94523      12.185039      3375         
      3950  -56.213521      0.46456826    -55.748952      0.029520714    399.33961      711.32691      3375         
      3960  -56.11059       0.34564769    -55.764942      0.029520714    297.11632      783.30004      3375         
      3970  -56.128031      0.40291532    -55.725116      0.029520714    346.34318     -234.04553      3375         
      3980  -56.139765      0.3866535     -55.753111      0.029520714    332.36462     -766.78688      3375         
      3990  -56.108863      0.35250506    -55.756358      0.029520714    303.01087     -781.5205       3375         
      4000  -56.122009      0.34438763    -55.777621      0.029520714    296.03318     -29.307141      3375         
      4010  -55.986169      0.22122714    -55.764942      0.029520714    190.16529      1040.9166      3375         
      4020  -56.192047      0.41743623    -55.77461       0.029520714    358.82524      357.61963      3375         
      4030  -56.062543      0.27567432    -55.786869      0.029520714    236.9677      -460.30382      3375         
      4040  -56.133022      0.32582374    -55.807198      0.029520714    280.07579      54.32675       3375         
      4050  -56.03765       0.22409878    -55.813552      0.029520714    192.63373     -71.758043      3375         
      4060  -56.214176      0.41982663    -55.794349      0.029520714    360.88002     -286.78041      3375         
      4070  -56.168591      0.33643199    -55.832159      0.029520714    289.19457      42.852161      3375         
      4080  -56.20109       0.35777637    -55.843313      0.029520714    307.54205     -110.01007      3375         
      4090  -56.172124      0.29940384    -55.872721      0.029520714    257.36543      345.86974      3375         
      4100  -56.191406      0.33008335    -55.861322      0.029520714    283.73732      677.38406      3375         
      4110  -56.240795      0.35042674    -55.890368      0.029520714    301.22436     -558.28134      3375         
      4120  -56.170207      0.26389764    -55.906309      0.029520714    226.84456     -806.37604      3375         
      4130  -56.246578      0.31248055    -55.934097      0.029520714    268.60608      248.21233      3375         
      4140  -56.112638      0.17566471    -55.936973      0.029520714    151.00015      315.75634      3375         
      4150  -56.166232      0.23784714    -55.928385      0.029520714    204.45173      227.46965      3375         
      4160  -56.155693      0.2052356     -55.950458      0.029520714    176.41908      75.393348      3375         
      4170  -56.288153      0.32726032    -55.960892      0.029520714    281.31067     -337.23425      3375         
      4180  -56.126842      0.15773832    -55.969104      0.029520714    135.59075      175.3698       3375         
      4190  -56.176924      0.21964355    -55.95728       0.029520714    188.80405      362.22609      3375         
      4200  -56.251575      0.28401003    -55.967565      0.029520714    244.13302     -518.9475       3375         
      4210  -56.249557      0.27906183    -55.970495      0.029520714    239.87959     -543.54383      3375         
      4220  -56.248439      0.2662052     -55.982233      0.029520714    228.82811      162.89674      3375         
      4230  -56.199709      0.23267787    -55.967031      0.029520714    200.00826      504.65908      3375         
      4240  -56.275359      0.32116074    -55.954199      0.029520714    276.06751      550.85263      3375         
      4250  -56.235655      0.27314102    -55.962514      0.029520714    234.7901      -107.81783      3375         
      4260  -56.250108      0.2877789     -55.962329      0.029520714    247.37272     -543.2079       3375         
      4270  -56.100412      0.14391376    -55.956498      0.029520714    123.70725     -186.16597      3375         
      4280  -56.262035      0.3302568     -55.931778      0.029520714    283.88642     -110.28788      3375         
      4290  -56.175505      0.24453257    -55.930972      0.029520714    210.19847     -196.16355      3375         
      4300  -56.112696      0.19073147    -55.921965      0.029520714    163.95143      260.69062      3375         
      4310  -56.149639      0.23882408    -55.910815      0.029520714    205.2915       724.65155      3375         
      4320  -56.185591      0.30544041    -55.88015       0.029520714    262.55443      531.93549      3375         
      4330  -56.114873      0.26131054    -55.853562      0.029520714    224.6207      -379.53201      3375         
      4340  -56.149299      0.3149239     -55.834375      0.029520714    270.70637     -1189.8655      3375         
      4350  -56.261137      0.4458059     -55.815331      0.029520714    383.21161     -518.64159      3375         
      4360  -56.007482      0.22565639    -55.781825      0.029520714    193.97264      635.67761      3375         
      4370  -56.169747      0.42259279    -55.747154      0.029520714    363.25779      940.06967      3375         
      4380  -56.246742      0.51267681    -55.734065      0.029520714    440.69338      328.54462      3375         
      4390  -56.205782      0.48600675    -55.719775      0.029520714    417.76798     -553.80283      3375         
      4400  -55.923235      0.21342776    -55.709807      0.029520714    183.461       -533.7366       3375         
      4410  -56.084046      0.40224264    -55.681804      0.029520714    345.76494      16.188666      3375         
      4420  -56.116929      0.43798054    -55.678948      0.029520714    376.48499     -227.21965      3375         
      4430  -56.048721      0.37411975    -55.674601      0.029520714    321.5907      -34.171577      3375         
      4440  -55.996165      0.3183727     -55.677792      0.029520714    273.67093      890.55737      3375         
      4450  -56.020606      0.35501725    -55.665589      0.029520714    305.17033      366.02792      3375         
      4460  -56.037576      0.38467381    -55.652902      0.029520714    330.6629      -222.52272      3375         
      4470  -56.021487      0.36506197    -55.656425      0.029520714    313.8047      -459.64517      3375         
      4480  -56.17246       0.50553698    -55.666923      0.029520714    434.55603     -996.04104      3375         
      4490  -56.02593       0.37408863    -55.651842      0.029520714    321.56396      10.132368      3375         
      4500  -56.110648      0.46623562    -55.644412      0.029520714    400.77286      1216.1493      3375         
      4510  -56.053357      0.39648946    -55.656867      0.029520714    340.81955      254.20175      3375         
      4520  -56.190526      0.5270978     -55.663428      0.029520714    453.08956     -218.51615      3375         
      4530  -56.111046      0.43128385    -55.679762      0.029520714    370.72856      125.79111      3375         
      4540  -56.026212      0.35264933    -55.673563      0.029520714    303.13488     -626.75087      3375         
      4550  -56.02352       0.33728236    -55.686237      0.029520714    289.92554     -440.67269      3375         
      4560  -56.163928      0.4659793     -55.697949      0.029520714    400.55253      161.54704      3375         
      4570  -56.057454      0.33218107    -55.725273      0.029520714    285.54051     -48.646576      3375         
      4580  -55.878385      0.16513759    -55.713247      0.029520714    141.95111      626.70529      3375         
      4590  -56.159188      0.44330903    -55.715879      0.029520714    381.06532      756.30615      3375         
      4600  -56.103518      0.36988138    -55.733637      0.029520714    317.94743     -491.17901      3375         
      4610  -56.128736      0.3807483     -55.747987      0.029520714    327.28856     -609.58648      3375         
      4620  -55.990626      0.22925663    -55.761369      0.029520714    197.06739     -17.232546      3375         
      4630  -56.154547      0.39918226    -55.755365      0.029520714    343.13426     -95.98625       3375         
      4640  -56.206737      0.43068973    -55.776047      0.029520714    370.21786      302.6832       3375         
      4650  -56.232953      0.43959131    -55.793362      0.029520714    377.8696       34.174032      3375         
      4660  -56.100749      0.27584226    -55.824907      0.029520714    237.11206     -260.93736      3375         
      4670  -56.127449      0.31785551    -55.809594      0.029520714    273.22636      431.4229       3375         
      4680  -56.174945      0.34188263    -55.833062      0.029520714    293.8799       258.98735      3375         
      4690  -56.129548      0.27670364    -55.852844      0.029520714    237.8525      -528.28777      3375         
      4700  -56.261153      0.38264118    -55.878512      0.029520714    328.91567     -205.43099      3375         
      4710  -56.075628      0.18461415    -55.891014      0.029520714    158.69303      117.3787       3375         
      4720  -56.110258      0.21631144    -55.893947      0.029520714    185.93979      64.531402      3375         
      4730  -56.158552      0.2461703     -55.912382      0.029520714    211.60626      272.59329      3375         
      4740  -56.281716      0.34760312    -55.934113      0.029520714    298.7972      -81.362438      3375         
      4750  -56.158779      0.20196486    -55.956814      0.029520714    173.60757     -116.23328      3375         
      4760  -56.192536      0.24249646    -55.95004       0.029520714    208.44825      206.32945      3375         
      4770  -56.208367      0.23673438    -55.971633      0.029520714    203.49521     -135.28194      3375         
      4780  -56.289644      0.29848381    -55.99116       0.029520714    256.57458     -447.33448      3375         
      4790  -56.284623      0.27189033    -56.012732      0.029520714    233.71501      99.179522      3375         
      4800  -56.231027      0.21411666    -56.016911      0.029520714    184.05318      519.3964       3375         
      4810  -56.293842      0.26096816    -56.032874      0.029520714    224.3264       346.37181      3375         
      4820  -56.236115      0.1883922     -56.047723      0.029520714    161.94061     -292.63344      3375         
      4830  -56.249837      0.18510676    -56.06473       0.029520714    159.11647     -684.33418      3375         
      4840  -56.249633      0.17600724    -56.073625      0.029520714    151.29458     -247.87177      3375         
      4850  -56.310141      0.24330306    -56.066838      0.029520714    209.1416       313.17938      3375         
      4860  -56.164566      0.083165182   -56.081401      0.029520714    71.488205      577.17377      3375         
      4870  -56.281064      0.19063432    -56.09043       0.029520714    163.86792      335.75254      3375         
      4880  -56.290785      0.19352414    -56.097261      0.029520714    166.35199     -203.97219      3375         
      4890  -56.25837       0.16731771    -56.091053      0.029520714    143.82513     -296.91039      3375         
      4900  -56.254047      0.15668101    -56.097366      0.029520714    134.68189     -222.02065      3375         
      4910  -56.35049       0.24923711    -56.101253      0.029520714    214.24246     -423.45916      3375         
      4920  -56.323541      0.21872559    -56.104815      0.029520714    188.01498      67.283851      3375         
      4930  -56.238808      0.14130117    -56.097506      0.029520714    121.46149      654.01454      3375         
      4940  -56.300372      0.21250167    -56.08787       0.029520714    182.66494      384.66797      3375         
      4950  -56.296307      0.21236952    -56.083937      0.029520714    182.55135      29.726938      3375         
      4960  -56.339821      0.26552594    -56.074295      0.029520714    228.24423     -490.38853      3375         
      4970  -56.159558      0.10149702    -56.058061      0.029520714    87.246124     -718.91255      3375         
      4980  -56.255937      0.21959126    -56.036345      0.029520714    188.7591       91.622519      3375         
      4990  -56.218316      0.20121235    -56.017104      0.029520714    172.96072      629.40432      3375         
      5000  -56.240241      0.24307063    -55.99717       0.029520714    208.9418       146.14345      3375         
      5010  -56.161957      0.1854392     -55.976518      0.029520714    159.40223      115.83943      3375         
      5020  -56.206915      0.25992495    -55.94699       0.029520714    223.42966     -107.38906      3375         
      5030  -56.156506      0.24068416    -55.915822      0.029520714    206.89041     -332.1743       3375         
      5040  -56.152778      0.24710452    -55.905674      0.029520714    212.40931      0.73300041     3375         
      5050  -56.279458      0.39197871    -55.88748       0.029520714    336.94215     -144.66215      3375         
      5060  -56.173934      0.31427839    -55.859656      0.029520714    270.15149     -9.7113526      3375         
      5070  -56.230749      0.3939144     -55.836835      0.029520714    338.60604      619.68536      3375         
      5080  -56.052398      0.22458555    -55.827812      0.029520714    193.05216      119.26631      3375         
      5090  -56.248758      0.43065193    -55.818106      0.029520714    370.18537     -600.0307       3375         
      5100  -56.152566      0.35549592    -55.79707       0.029520714    305.58179     -207.39727      3375         
      5110  -56.100901      0.32333759    -55.777564      0.029520714    277.93872     -151.05745      3375         
      5120  -56.027416      0.2568967     -55.770519      0.029520714    220.8266       308.79407      3375         
      5130  -56.182023      0.41797011    -55.764053      0.029520714    359.28416      616.83431      3375         
      5140  -56.009393      0.25817252    -55.75122       0.029520714    221.92328     -228.34966      3375         
      5150  -56.017559      0.29061973    -55.72694       0.029520714    249.81468     -300.0835       3375         
      5160  -56.180848      0.46193413    -55.718914      0.029520714    397.07533      247.19373      3375         
      5170  -56.03621       0.33199827    -55.704212      0.029520714    285.38337     -157.91393      3375         
      5180  -56.061386      0.36385288    -55.697533      0.029520714    312.76538     -128.94869      3375         
      5190  -56.067432      0.38630971    -55.681123      0.029520714    332.06911      27.122402      3375         
      5200  -56.202083      0.54662142    -55.655462      0.029520714    469.87192     -402.72478      3375         
      5210  -55.986323      0.33656266    -55.64976       0.029520714    289.30689      326.25274      3375         
      5220  -56.18777       0.53877216    -55.648998      0.029520714    463.12476      611.17309      3375         
      5230  -56.036267      0.39450135    -55.641766      0.029520714    339.11058      11.236752      3375         
      5240  -56.100407      0.47783509    -55.622572      0.029520714    410.74368     -106.21957      3375         
      5250  -56.01496       0.38101453    -55.633945      0.029520714    327.51741     -373.70945      3375         
      5260  -55.976539      0.34369239    -55.632847      0.029520714    295.43556     -663.48308      3375         
      5270  -56.104747      0.46177214    -55.642975      0.029520714    396.93608      59.279267      3375         
      5280  -56.028847      0.40337313    -55.625474      0.029520714    346.7367       346.22267      3375         
      5290  -55.947074      0.31614836    -55.630926      0.029520714    271.7589       342.21883      3375         
      5300  -55.852501      0.21516879    -55.637332      0.029520714    184.95757      830.80504      3375         
      5310  -56.239921      0.58948621    -55.650434      0.029520714    506.7182      -21.657001      3375         
      5320  -55.981951      0.33569628    -55.646254      0.029520714    288.56216     -875.41955      3375         
      5330  -56.035473      0.39341845    -55.642054      0.029520714    338.17973     -670.72945      3375         
      5340  -56.102188      0.43918504    -55.663003      0.029520714    377.52037     -282.18718      3375         
      5350  -56.159791      0.48182823    -55.677963      0.029520714    414.17616      639.91944      3375         
      5360  -56.046645      0.35067092    -55.695974      0.029520714    301.43426      1183.7331      3375         
      5370  -56.183673      0.48576244    -55.69791       0.029520714    417.55797     -81.18545       3375         
      5380  -56.191332      0.46107934    -55.730253      0.029520714    396.34055     -861.28374      3375         
      5390  -55.949558      0.19916041    -55.750398      0.029520714    171.19689     -332.22662      3375         
      5400  -56.085503      0.30896921    -55.776534      0.029520714    265.58776     -131.38632      3375         
      5410  -56.148279      0.37362758    -55.774651      0.029520714    321.16764      238.02881      3375         
      5420  -56.174486      0.37469929    -55.799787      0.029520714    322.08888      435.50097      3375         
      5430  -55.956467      0.13628296    -55.820184      0.029520714    117.14787      175.56671      3375         
      5440  -56.219691      0.37847105    -55.841219      0.029520714    325.33105      179.20735      3375         
      5450  -56.138025      0.28264557    -55.855379      0.029520714    242.96014     -146.7283       3375         
      5460  -56.136424      0.29060162    -55.845822      0.029520714    249.79911     -792.55006      3375         
      5470  -56.190709      0.31708668    -55.873622      0.029520714    272.56548     -457.49622      3375         
      5480  -56.209619      0.32455181    -55.885067      0.029520714    278.98245      572.40952      3375         
      5490  -56.221354      0.31438204    -55.906972      0.029520714    270.24059      899.75606      3375         
      5500  -56.19276       0.30012885    -55.892631      0.029520714    257.98865      379.36287      3375         
      5510  -56.262521      0.35306356    -55.909458      0.029520714    303.49095     -729.89007      3375         
      5520  -56.124713      0.20643575    -55.918277      0.029520714    177.45072     -780.07009      3375         
      5530  -56.276774      0.34080373    -55.935971      0.029520714    292.95249      26.66047       3375         
      5540  -56.12902       0.20069275    -55.928327      0.029520714    172.51408      262.01856      3375         
      5550  -56.217707      0.29298051    -55.924727      0.029520714    251.84398      194.85757      3375         
      5560  -56.131855      0.19797095    -55.933884      0.029520714    170.17444      243.99013      3375         
      5570  -56.173203      0.2320827     -55.94112       0.029520714    199.49666      98.736944      3375         
      5580  -56.177266      0.23874828    -55.938518      0.029520714    205.22634      158.14769      3375         
      5590  -56.234931      0.32144211    -55.913489      0.029520714    276.30938     -243.07245      3375         
      5600  -56.210459      0.28770205    -55.922757      0.029520714    247.30666     -787.26457      3375         
      5610  -56.087355      0.17398949    -55.913366      0.029520714    149.56014      110.02318      3375         
      5620  -56.275258      0.35190647    -55.923352      0.029520714    302.49632      752.06941      3375         
      5630  -56.219743      0.33777869    -55.881964      0.029520714    290.35218      119.06305      3375         
      5640  -56.273643      0.41277961    -55.860864      0.029520714    354.82245     -356.46616      3375         
      5650  -56.052446      0.2016786     -55.850768      0.029520714    173.36151     -384.77153      3375         
      5660  -56.210042      0.37039144    -55.839651      0.029520714    318.38588      100.87382      3375         
      5670  -56.100997      0.30222606    -55.798771      0.029520714    259.79139      816.09227      3375         
      5680  -56.13817       0.39158287    -55.746587      0.029520714    336.60188     -137.70555      3375         
      5690  -56.060436      0.34129302    -55.719143      0.029520714    293.37308     -1124.6912      3375         
      5700  -56.001895      0.32044877    -55.681447      0.029520714    275.45551      114.04628      3375         
      5710  -56.036553      0.3690562     -55.667497      0.029520714    317.23812      836.03345      3375         
      5720  -55.949851      0.35466835    -55.595183      0.029520714    304.87042      385.81604      3375         
      5730  -56.145041      0.5606129     -55.584428      0.029520714    481.8989      -267.60244      3375         
      5740  -55.940537      0.38289606    -55.557641      0.029520714    329.13476     -819.84015      3375         
      5750  -56.093937      0.52118456    -55.572753      0.029520714    448.00658     -116.72655      3375         
      5760  -55.904998      0.37294507    -55.532053      0.029520714    320.58096      864.11302      3375         
      5770  -56.146983      0.62923948    -55.517743      0.029520714    540.88983     -75.869903      3375         
      5780  -56.034501      0.49336996    -55.541131      0.029520714    424.09735     -542.86933      3375         
      5790  -56.043931      0.50640729    -55.537523      0.029520714    435.30415      564.34624      3375         
      5800  -55.987423      0.41494727    -55.572476      0.029520714    356.68575      453.90678      3375         
      5810  -56.078044      0.54079193    -55.537252      0.029520714    464.86094     -558.21014      3375         
      5820  -55.931104      0.35517182    -55.575932      0.029520714    305.3032      -1021.9422      3375         
      5830  -55.916171      0.33642758    -55.579743      0.029520714    289.19078     -499.98102      3375         
      5840  -56.15625       0.53270906    -55.623541      0.029520714    457.91296      1255.7908      3375         
      5850  -55.911235      0.32058146    -55.590654      0.029520714    275.56957      1735.7306      3375         
      5860  -56.074488      0.45286941    -55.621619      0.029520714    389.28335     -310.72423      3375         
      5870  -55.949211      0.31088041    -55.638331      0.029520714    267.23062     -1425.6278      3375         
      5880  -56.164578      0.50141197    -55.663166      0.029520714    431.0102      -822.94803      3375         
      5890  -56.006905      0.32596573    -55.680939      0.029520714    280.19785      18.742998      3375         
      5900  -56.202107      0.52902225    -55.673085      0.029520714    454.7438       580.36089      3375         
      5910  -56.092526      0.37661364    -55.715912      0.029520714    323.73444      479.14877      3375         
      5920  -56.123065      0.39224494    -55.73082       0.029520714    337.17099      370.50269      3375         
      5930  -56.119687      0.34534698    -55.77434       0.029520714    296.85784      494.13033      3375         
      5940  -56.096289      0.34723098    -55.749058      0.029520714    298.47731     -454.44458      3375         
      5950  -56.229127      0.44321937    -55.785908      0.029520714    380.98825     -1194.9138      3375         
      5960  -56.041721      0.24051479    -55.801207      0.029520714    206.74482     -598.34446      3375         
      5970  -56.148108      0.31845728    -55.82965       0.029520714    273.74364      554.54151      3375         
      5980  -56.050042      0.2273299     -55.822712      0.029520714    195.41119      1374.6935      3375         
      5990  -56.219097      0.39134122    -55.827756      0.029520714    336.39416      499.60192      3375         
      6000  -56.107004      0.261369      -55.845635      0.029520714    224.67096     -1048.733       3375         
      6010  -56.153325      0.29563112    -55.857694      0.029520714    254.12243     -689.68391      3375         
      6020  -56.111535      0.24346227    -55.868072      0.029520714    209.27846      147.64656      3375         
      6030  -56.226817      0.38396055    -55.842857      0.029520714    330.04979      96.815633      3375         
      6040  -56.172478      0.30424829    -55.86823       0.029520714    261.52969      334.16324      3375         
      6050  -56.168565      0.30203744    -55.866528      0.029520714    259.62926      271.76751      3375         
      6060  -56.246013      0.35695558    -55.889057      0.029520714    306.83651     -4.0850035      3375         
      6070  -56.166665      0.30242791    -55.864237      0.029520714    259.96491      192.47851      3375         
      6080  -56.209925      0.33696972    -55.872955      0.029520714    289.6568      -563.46942      3375         
      6090  -56.107186      0.22820589    -55.87898       0.029520714    196.16418     -1053.7781      3375         
      6100  -56.2362        0.34846371    -55.887736      0.029520714    299.53695      561.00439      3375         
      6110  -56.12512       0.24078577    -55.884334      0.029520714    206.97775      1134.3655      3375         
      6120  -56.158347      0.2945399     -55.863808      0.029520714    253.18442      63.422552      3375         
      6130  -56.136936      0.26299999    -55.873936      0.029520714    226.07294     -333.71557      3375         
      6140  -56.170472      0.29918958    -55.871282      0.029520714    257.18126     -484.16951      3375         
      6150  -56.084101      0.21439102    -55.86971       0.029520714    184.28902     -309.44387      3375         
      6160  -56.234718      0.39427035    -55.840448      0.029520714    338.91202      429.03807      3375         
      6170  -56.215387      0.3804696     -55.834917      0.029520714    327.04899      25.653327      3375         
      6180  -56.07944       0.2565325     -55.822907      0.029520714    220.51354     -378.80077      3375         
      6190  -56.188236      0.37517924    -55.813057      0.029520714    322.50143      521.55021      3375         
      6200  -56.220048      0.45351666    -55.766532      0.029520714    389.83973      518.19122      3375         
      6210  -56.168203      0.4407056     -55.727497      0.029520714    378.82744     -335.82286      3375         
      6220  -56.048276      0.3429041     -55.705372      0.029520714    294.75795     -542.23395      3375         
      6230  -56.117039      0.4373086     -55.67973       0.029520714    375.9074      -217.40985      3375         
      6240  -55.957957      0.31525022    -55.642707      0.029520714    270.98687      180.68887      3375         
      6250  -56.093277      0.51070275    -55.582574      0.029520714    438.99649      270.60655      3375         
      6260  -55.965146      0.39924462    -55.565902      0.029520714    343.18787     -279.94806      3375         
      6270  -56.026063      0.48716592    -55.538897      0.029520714    418.76439      44.472384      3375         
      6280  -55.889946      0.37489246    -55.515053      0.029520714    322.25492      834.72029      3375         
      6290  -55.884311      0.40014579    -55.484166      0.029520714    343.9625       402.18261      3375         
      6300  -56.058438      0.5881292     -55.470309      0.029520714    505.55172     -714.14709      3375         
      6310  -56.074787      0.61426668    -55.460521      0.029520714    528.01931     -1334.3921      3375         
      6320  -55.934476      0.4634436     -55.471033      0.029520714    398.37286     -251.41736      3375         
      6330  -55.893691      0.43322073    -55.46047       0.029520714    372.39349      1232.4018      3375         
      6340  -56.218978      0.77019795    -55.44878       0.029520714    662.05674      1088.5402      3375         
      6350  -55.983195      0.50192586    -55.481269      0.029520714    431.45194     -479.63396      3375         
      6360  -55.89849       0.39907892    -55.499411      0.029520714    343.04543     -831.71491      3375         
[...]
     48420  -56.185875      0.43129615    -55.754579      0.029520714    370.73914     -158.01927      3375         
     48430  -56.009572      0.28370049    -55.725871      0.029520714    243.86695      547.36779      3375         
     48440  -56.02008       0.29153807    -55.728542      0.029520714    250.60408      527.43462      3375         
     48450  -56.086154      0.36021192    -55.725942      0.029520714    309.63563     -182.13867      3375         
     48460  -56.200163      0.47481277    -55.725351      0.029520714    408.14572     -378.14065      3375         
     48470  -56.203542      0.49552669    -55.708015      0.029520714    425.95125      433.31313      3375         
     48480  -56.015166      0.31480541    -55.700361      0.029520714    270.60451      179.28791      3375         
     48490  -55.997083      0.29752867    -55.699554      0.029520714    255.75355     -989.31899      3375         
     48500  -56.144604      0.44859764    -55.696006      0.029520714    385.61137     -305.6792       3375         
     48510  -56.072809      0.3759302     -55.696879      0.029520714    323.14695      951.27152      3375         
     48520  -56.093811      0.41511666    -55.678695      0.029520714    356.83136      635.1661       3375         
     48530  -56.107426      0.43152326    -55.675903      0.029520714    370.93436     -18.139639      3375         
     48540  -55.939051      0.26132651    -55.677725      0.029520714    224.63443     -845.00936      3375         
     48550  -56.020078      0.33822932    -55.681849      0.029520714    290.73954     -763.7931       3375         
     48560  -56.198595      0.53743464    -55.66116       0.029520714    461.97503      674.50315      3375         
     48570  -56.019348      0.35892588    -55.660423      0.029520714    308.53016      850.79124      3375         
     48580  -56.021783      0.3591021     -55.662681      0.029520714    308.68164     -469.5967       3375         
     48590  -56.118919      0.45485958    -55.664059      0.029520714    390.99409     -417.9801       3375         
     48600  -56.000104      0.33179067    -55.668313      0.029520714    285.20492      346.4744       3375         
     48610  -56.052521      0.39713925    -55.655382      0.029520714    341.37811      368.73719      3375         
     48620  -56.272974      0.61095934    -55.662015      0.029520714    525.17635     -222.13056      3375         
     48630  -56.021574      0.34609334    -55.675481      0.029520714    297.4994      -810.59761      3375         
     48640  -55.979291      0.29157291    -55.687718      0.029520714    250.63403     -128.1815       3375         
     48650  -56.092831      0.40173553    -55.691096      0.029520714    345.32904      1033.7603      3375         
     48660  -56.048049      0.35419105    -55.693858      0.029520714    304.46013      348.39443      3375         
     48670  -56.088267      0.37758652    -55.710681      0.029520714    324.57071     -860.74688      3375         
     48680  -56.181662      0.45012525    -55.731537      0.029520714    386.9245      -361.37974      3375         
     48690  -56.012206      0.26435701    -55.747849      0.029520714    227.23943      588.37579      3375         
     48700  -56.045489      0.29828863    -55.747201      0.029520714    256.40681      681.43817      3375         
     48710  -56.183815      0.41375585    -55.770059      0.029520714    355.66162     -252.27588      3375         
     48720  -56.070879      0.28096227    -55.789916      0.029520714    241.51319     -969.64352      3375         
     48730  -56.23474       0.42320209    -55.811538      0.029520714    363.78154     -167.4196       3375         
     48740  -56.163279      0.34206863    -55.82121       0.029520714    294.03978      835.52951      3375         
     48750  -56.051528      0.21733473    -55.834194      0.029520714    186.8194       303.34589      3375         
     48760  -56.23709       0.38348242    -55.853608      0.029520714    329.63879     -472.38692      3375         
     48770  -56.1987        0.32474248    -55.873958      0.029520714    279.14635     -232.64103      3375         
     48780  -56.11101       0.22404052    -55.886969      0.029520714    192.58365      321.87695      3375         
     48790  -56.255528      0.36339241    -55.892136      0.029520714    312.36956      260.28191      3375         
     48800  -56.145037      0.23741414    -55.907623      0.029520714    204.07952     -433.06424      3375         
     48810  -56.066416      0.14848495    -55.917931      0.029520714    127.63662     -518.03251      3375         
     48820  -56.317243      0.3906734     -55.926569      0.029520714    335.82011      409.50139      3375         
     48830  -56.199012      0.2723689     -55.926643      0.029520714    234.12639      805.82979      3375         
     48840  -56.153588      0.22103957    -55.932549      0.029520714    190.00406     -16.154929      3375         
     48850  -56.248687      0.30843293    -55.940254      0.029520714    265.12678     -907.9639       3375         
     48860  -56.119789      0.17328934    -55.9465        0.029520714    148.9583      -410.4807       3375         
     48870  -56.163767      0.22117729    -55.94259       0.029520714    190.12244      672.13724      3375         
     48880  -56.364676      0.42748399    -55.937192      0.029520714    367.46223      677.39146      3375         
     48890  -56.203705      0.26325833    -55.940447      0.029520714    226.29501     -265.53532      3375         
     48900  -56.119527      0.1764113     -55.943115      0.029520714    151.64191     -570.74519      3375         
     48910  -56.240541      0.29789344    -55.942647      0.029520714    256.0671      -51.404662      3375         
     48920  -56.156256      0.23199508    -55.924261      0.029520714    199.42133      390.27537      3375         
     48930  -56.216354      0.29905136    -55.917303      0.029520714    257.06245     -111.19015      3375         
     48940  -56.25197       0.34241932    -55.90955       0.029520714    294.34124     -529.19655      3375         
     48950  -56.099963      0.20000649    -55.899957      0.029520714    171.92417      319.37576      3375         
     48960  -56.091798      0.20976318    -55.882035      0.029520714    180.31095      998.38164      3375         
     48970  -56.244456      0.39121786    -55.853238      0.029520714    336.28812     -34.107688      3375         
     48980  -56.171323      0.34705549    -55.824267      0.029520714    298.32646     -1101.2071      3375         
     48990  -56.104622      0.30772773    -55.796894      0.029520714    264.52059     -667.66573      3375         
     49000  -56.1652        0.40030832    -55.764891      0.029520714    344.10222      458.00949      3375         
     49010  -55.967547      0.24660991    -55.720937      0.029520714    211.98415      1234.7941      3375         
     49020  -56.084958      0.38768069    -55.697278      0.029520714    333.24759      160.72575      3375         
     49030  -56.158511      0.49175892    -55.666752      0.029520714    422.7125      -1115.8151      3375         
     49040  -56.054733      0.41013133    -55.644601      0.029520714    352.54601     -294.95187      3375         
     49050  -56.059704      0.44259797    -55.617106      0.029520714    380.4541       787.3559       3375         
     49060  -56.03261       0.43102563    -55.601584      0.029520714    370.5066       147.00838      3375         
     49070  -55.901326      0.30393021    -55.597395      0.029520714    261.25627     -598.48909      3375         
     49080  -56.05137       0.45593675    -55.595434      0.029520714    391.92003     -314.11243      3375         
     49090  -56.16617       0.5743483     -55.591822      0.029520714    493.70576      395.58456      3375         
     49100  -55.947594      0.36928661    -55.578307      0.029520714    317.43617      829.30591      3375         
     49110  -56.010487      0.42819645    -55.58229       0.029520714    368.07465     -312.9969       3375         
     49120  -55.997496      0.40841985    -55.589076      0.029520714    351.07483     -1104.1402      3375         
     49130  -55.964763      0.37010169    -55.594662      0.029520714    318.13681      247.69865      3375         
     49140  -56.148883      0.55255765    -55.596325      0.029520714    474.97467      1127.0232      3375         
     49150  -56.19242       0.5868006     -55.605619      0.029520714    504.40967     -25.412801      3375         
     49160  -55.875166      0.25349172    -55.621674      0.029520714    217.8997      -875.7965       3375         
     49170  -55.984582      0.35163695    -55.632945      0.029520714    302.26465     -473.11848      3375         
     49180  -56.183683      0.53749985    -55.646183      0.029520714    462.03109      455.58793      3375         
     49190  -56.026484      0.3747966     -55.651687      0.029520714    322.17252      988.73028      3375         
     49200  -56.120751      0.44756777    -55.673183      0.029520714    384.7261      -162.58899      3375         
     49210  -56.103468      0.4055562     -55.697912      0.029520714    348.61326     -1139.1309      3375         
     49220  -56.002977      0.2943864     -55.708591      0.029520714    253.05248     -139.78899      3375         
     49230  -56.058066      0.34038368    -55.717682      0.029520714    292.59142      867.31397      3375         
     49240  -56.173481      0.43686164    -55.736619      0.029520714    375.52319      274.13848      3375         
     49250  -56.008488      0.25644027    -55.752048      0.029520714    220.43425     -308.03652      3375         
     49260  -56.138472      0.37245261    -55.766019      0.029520714    320.15764     -273.72541      3375         
     49270  -56.1914        0.40190702    -55.789492      0.029520714    345.47644      224.8674       3375         
     49280  -56.040087      0.25105921    -55.789028      0.029520714    215.80873      341.64769      3375         
     49290  -56.131749      0.33206916    -55.799679      0.029520714    285.44431     -614.48409      3375         
     49300  -56.195467      0.37822289    -55.817244      0.029520714    325.11774     -683.34918      3375         
     49310  -56.173346      0.34368287    -55.829663      0.029520714    295.42738      675.01436      3375         
     49320  -56.153545      0.31609875    -55.837447      0.029520714    271.71626      1199.6859      3375         
     49330  -56.130338      0.28331118    -55.847026      0.029520714    243.5323       22.995037      3375         
     49340  -56.075147      0.22215233    -55.852994      0.029520714    190.96058     -1201.06        3375         
     49350  -56.24158       0.38085851    -55.860722      0.029520714    327.38329     -949.39297      3375         
     49360  -56.259277      0.38575767    -55.873519      0.029520714    331.59458      500.01028      3375         
     49370  -56.099116      0.22927632    -55.86984       0.029520714    197.08431      966.0702       3375         
     49380  -56.082751      0.20959028    -55.873161      0.029520714    180.16233      190.18897      3375         
     49390  -56.116126      0.23657949    -55.879546      0.029520714    203.36207     -325.784        3375         
     49400  -56.219751      0.33799611    -55.881755      0.029520714    290.53908     -209.11715      3375         
     49410  -56.226452      0.35184986    -55.874602      0.029520714    302.44766      195.36047      3375         
     49420  -56.189154      0.31397396    -55.87518       0.029520714    269.88981     -95.668346      3375         
     49430  -56.069365      0.19375556    -55.87561       0.029520714    166.55092     -729.57907      3375         
     49440  -56.204712      0.33046463    -55.874247      0.029520714    284.06507      75.87183       3375         
     49450  -56.209014      0.33404908    -55.874965      0.029520714    287.14624      1214.8691      3375         
     49460  -56.200203      0.33720942    -55.862994      0.029520714    289.86285      228.93027      3375         
     49470  -56.161868      0.31222751    -55.84964       0.029520714    268.38857     -838.80571      3375         
     49480  -56.082353      0.23467578    -55.847678      0.029520714    201.72565     -670.4467       3375         
     49490  -56.136934      0.29530072    -55.841633      0.029520714    253.83842      31.924716      3375         
     49500  -56.185852      0.37166699    -55.814185      0.029520714    319.48233      1004.8698      3375         
     49510  -56.146066      0.36339726    -55.782668      0.029520714    312.37372      508.70053      3375         
     49520  -56.062074      0.30738779    -55.754686      0.029520714    264.22838     -1225.0687      3375         
     49530  -56.130904      0.41044478    -55.720459      0.029520714    352.81545     -540.12373      3375         
     49540  -55.941906      0.25991328    -55.681993      0.029520714    223.41962      1204.8276      3375         
     49550  -56.058201      0.42563023    -55.632571      0.029520714    365.86875      351.96474      3375         
     49560  -56.12135       0.53875654    -55.582594      0.029520714    463.11133     -771.0795       3375         
     49570  -55.998074      0.45306199    -55.545012      0.029520714    389.4489      -485.10881      3375         
     49580  -56.04855       0.52139184    -55.527158      0.029520714    448.18476      212.67725      3375         
     49590  -55.924923      0.43702281    -55.4879        0.029520714    375.66173      961.13535      3375         
     49600  -55.85119       0.37819285    -55.472997      0.029520714    325.09191      155.49343      3375         
     49610  -56.041166      0.57300974    -55.468157      0.029520714    492.55514     -1232.0105      3375         
     49620  -56.188257      0.72570236    -55.462555      0.029520714    623.80864     -339.41691      3375         
     49630  -55.747795      0.27866993    -55.469125      0.029520714    239.54271      1251.5269      3375         
     49640  -55.939645      0.47094737    -55.468698      0.029520714    404.82304      242.32185      3375         
     49650  -56.040118      0.57343533    -55.466683      0.029520714    492.92097     -1043.6526      3375         
     49660  -55.874006      0.38980637    -55.4842        0.029520714    335.07481     -430.50805      3375         
     49670  -56.092568      0.58262155    -55.509946      0.029520714    500.81738      720.56383      3375         
     49680  -56.039685      0.52135101    -55.518334      0.029520714    448.14966      796.84451      3375         
     49690  -55.782563      0.24986413    -55.532699      0.029520714    214.78145      48.522427      3375         
     49700  -56.047172      0.49113201    -55.55604       0.029520714    422.17362     -1055.5029      3375         
     49710  -56.197973      0.61115786    -55.586815      0.029520714    525.347       -843.57406      3375         
     49720  -55.930114      0.31490109    -55.615213      0.029520714    270.68676      839.85792      3375         
     49730  -56.07157       0.4325988     -55.638971      0.029520714    371.85889      985.59434      3375         
     49740  -56.114418      0.45759983    -55.656819      0.029520714    393.34959     -473.89812      3375         
     49750  -56.000609      0.31647939    -55.68413       0.029520714    272.04346     -380.45712      3375         
     49760  -56.10648       0.39572418    -55.710755      0.029520714    340.16172      406.20475      3375         
     49770  -56.150893      0.41633475    -55.734558      0.029520714    357.87842     -59.664996      3375         
     49780  -56.026304      0.28959733    -55.736706      0.029520714    248.93583     -221.04191      3375         
     49790  -56.137164      0.37548094    -55.761683      0.029520714    322.76078     -373.66217      3375         
     49800  -56.172247      0.3891844     -55.783062      0.029520714    334.54017     -370.08117      3375         
     49810  -56.010291      0.21951972    -55.790771      0.029520714    188.69761      973.08157      3375         
     49820  -56.14674       0.3474344     -55.799306      0.029520714    298.65216      855.44609      3375         
     49830  -56.209321      0.40143288    -55.807888      0.029520714    345.06888     -1013.014       3375         
     49840  -56.126924      0.3094414     -55.817482      0.029520714    265.99365     -643.44859      3375         
     49850  -56.121245      0.2897061     -55.831539      0.029520714    249.02933      535.54838      3375         
     49860  -56.118207      0.2800826     -55.838124      0.029520714    240.75704      145.92403      3375         
     49870  -56.114601      0.28753704    -55.827064      0.029520714    247.16482      62.474664      3375         
     49880  -56.255657      0.41466236    -55.840994      0.029520714    356.44085     -122.7891       3375         
     49890  -56.176833      0.32616647    -55.850667      0.029520714    280.3704      -380.47069      3375         
     49900  -56.062158      0.21178301    -55.850375      0.029520714    182.04719      603.85897      3375         
     49910  -56.132057      0.28173191    -55.850325      0.029520714    242.17476      381.8105       3375         
     49920  -56.143857      0.29476225    -55.849094      0.029520714    253.37556     -1019.5576      3375         
     49930  -56.184369      0.33455286    -55.849816      0.029520714    287.57929     -266.18896      3375         
     49940  -56.209407      0.35450046    -55.854907      0.029520714    304.7261       897.37292      3375         
     49950  -56.106963      0.25072838    -55.856235      0.029520714    215.52435      267.4176       3375         
     49960  -56.058939      0.22031081    -55.838629      0.029520714    189.37762     -173.58873      3375         
     49970  -56.194295      0.34990768    -55.844388      0.029520714    300.77818     -471.8651       3375         
     49980  -56.21119       0.36562708    -55.845563      0.029520714    314.29047     -485.73756      3375         
     49990  -56.149779      0.31470431    -55.835075      0.029520714    270.51761      538.70158      3375         
     50000  -56.125239      0.29839719    -55.826841      0.029520714    256.50013      500.14833      3375         
Loop time of 82.3434 on 3 procs for 50000 steps with 10 atoms

Performance: 26.232 ns/day, 0.915 hours/ns, 607.213 timesteps/s, 6.072 katom-step/s
168.5% CPU use with 3 MPI tasks x no OpenMP threads

MPI task timing breakdown:
Section |  min time  |  avg time  |  max time  |%varavg| %total
---------------------------------------------------------------
Pair    | 26.924     | 44.313     | 78.653     | 364.8 | 53.81
Neigh   | 0.00042089 | 0.00055483 | 0.00076196 |   0.0 |  0.00
Comm    | 1.027      | 35.28      | 52.659     | 407.8 | 42.85
Output  | 0.49016    | 0.50319    | 0.52702    |   2.4 |  0.61
Modify  | 1.9327     | 2.0197     | 2.1172     |   5.3 |  2.45
Other   |            | 0.2272     |            |       |  0.28

Nlocal:        3.33333 ave          10 max           0 min
Histogram: 2 0 0 0 0 0 0 0 0 1
Nghost:        90.6667 ave         111 max          55 min
Histogram: 1 0 0 0 0 0 0 0 0 2
Neighs:              0 ave           0 max           0 min
Histogram: 3 0 0 0 0 0 0 0 0 0
FullNghs:           30 ave          90 max           0 min
Histogram: 2 0 0 0 0 0 0 0 0 1

Total # of neighbors = 90
Ave neighs/atom = 9
Neighbor list builds = 86
Dangerous builds = 0

write_data	restart.data
System init for write_data ...
Generated 0 of 1 mixed pair_coeff terms from geometric mixing rule
#
Total wall time: 0:01:24
