LAMMPS data file via write_data, version 2 Aug 2023, timestep = 50000, units = metal

10 atoms
2 atom types

0 15 xlo xhi
0 15 ylo yhi
0 15 zlo zhi

Masses

1 12
2 2

Atoms # atomic

10 2 8.16175863061293 6.199976817359204 6.3038130762882005 0 0 0
4 1 7.6226950758306975 7.143191570740292 6.497805368689804 0 0 0
7 2 7.353518946762665 8.398586628803743 9.458170051638744 0 0 0
8 2 9.473312333328973 8.38989918926459 7.267337041602964 0 0 0
9 2 7.2213118038600275 7.500624690357322 5.608708450593113 0 0 0
1 1 6.549002407824254 7.056019024800904 7.760338222135955 0 0 0
3 1 8.436140112194702 8.039744907300197 7.401060720587899 0 0 0
2 1 7.542023940732887 7.955169799780978 8.41913117952889 0 0 0
6 2 6.401721394179247 6.040944334258736 8.143161329811297 0 0 0
5 2 5.613207672542215 7.525216525760345 7.637797102951913 0 0 0

Velocities

10 12.072892034524772 -6.038344190942842 8.014125946444542
4 6.0092253353393 2.290049656652011 -3.169148030409337
7 -19.219591291630355 -0.7642899729301776 20.24308578575458
8 -2.049664584728895 5.023580969682639 13.358908306945274
9 -19.286555777110788 -3.3979764261947385 -1.935993448529651
1 1.5599443565990072 -0.7996944973449078 -3.7945900862715267
3 -5.53582920364584 -3.3783392184277776 -5.600515153017363
2 1.7913113310217752 0.395257075573827 5.0279297268903385
6 -3.8995846547518025 4.566683556840244 3.053510454408802
5 9.434593357811629 9.566707964827271 2.48430421182288
