LAMMPS data file via write_data, version 2 Aug 2023, timestep = 50000, units = metal

10 atoms
2 atom types

0 15 xlo xhi
0 15 ylo yhi
0 15 zlo zhi

Masses

1 12
2 2

Atoms # atomic

10 2 7.125465561175968 7.265582999283908 9.285729128026553 0 0 0
4 1 7.024949013046934 7.978708947586926 8.425785766457603 0 0 0
7 2 8.104255409042079 6.277775797947124 5.870035361194471 0 0 0
8 2 5.532306229698296 6.8031248066475944 6.8748549846940845 0 0 0
9 2 6.586658497453889 8.941344291243093 8.673300094045747 0 0 0
1 1 8.557975354757618 7.849638416289297 7.54249145247086 0 0 0
3 1 6.571371405856081 7.141195287966605 7.193539191474055 0 0 0
2 1 7.770320446549211 6.941382226282822 6.6708925047499745 0 0 0
6 2 9.476826200889327 7.610115576597756 8.155513168175474 0 0 0
5 2 8.7507907812662 8.856507261036603 7.033313771500446 0 0 0

Velocities

10 0.9080465524570007 -8.076430518011831 -4.987061654577748
4 -0.0057504837506234694 -1.03029277448349 -7.07147063764106
7 1.301757764092032 3.643093282400772 9.594866979606126
8 3.3552019192669604 -15.05565653458849 -23.162536737047844
9 -7.614089826827763 -1.2600558381003375 27.18286764861986
1 -2.128447102508798 2.259215701537859 0.976158229211541
3 1.0459872566268922 1.8760204311675492 -0.6904394024408267
2 -1.5972917606529795 -4.478399120707983 5.292638618425478
6 1.7164393778086247 9.841611368638308 -8.411319641085347
5 16.445656754915607 19.14817281457667 8.741862559154931
