10
 Atoms. Timestep: 0
C 6.23816 7.94988 6.68346
C 6.63282 7.46496 7.89246
C 8.00297 7.00452 8.04563
C 9.09984 7.5391 7.49132
H 5.21878 8.30749 6.32245
H 6.95994 7.92195 5.83253
H 5.93893 7.45268 8.75072
H 8.20196 6.25359 8.77596
H 8.93671 8.42318 6.87645
H 10.025 7.11036 7.65361
10
 Atoms. Timestep: 20
C 6.25789 7.90704 6.70934
C 6.67299 7.5186 7.87469
C 8.02514 6.99378 8.12051
C 9.00738 7.56815 7.42443
H 5.2855 8.28147 6.51491
H 6.93016 7.79337 5.82459
H 5.95216 7.53115 8.72666
H 8.20101 6.13187 8.75635
H 8.92882 8.48951 6.80081
H 10.0459 7.06726 7.49187
10
 Atoms. Timestep: 40
C 6.23505 7.87797 6.64922
C 6.69509 7.53053 7.94868
C 8.0379 7.02462 8.14342
C 9.02091 7.5554 7.393
H 5.23371 8.31706 6.70297
H 6.85457 7.71797 5.79679
H 5.98887 7.60555 8.76113
H 8.15259 6.05407 8.73648
H 8.87013 8.42507 6.80472
H 10.0904 7.16911 7.28101
10
 Atoms. Timestep: 60
C 6.22178 7.83371 6.76022
C 6.67461 7.55712 7.91461
C 8.05997 7.03518 8.10225
C 9.07537 7.53014 7.37099
H 5.2191 8.33343 6.58774
H 6.67421 7.69691 5.77978
H 6.06887 7.68978 8.80352
H 8.19382 6.1803 8.74396
H 8.73978 8.40494 6.80777
H 10.0378 7.17776 7.27779
10
 Atoms. Timestep: 80
C 6.17296 7.8556 6.74574
C 6.73708 7.54303 7.98984
C 8.05609 7.0049 8.06595
C 9.01838 7.54837 7.31721
H 5.18069 8.28175 6.61262
H 6.74212 7.56817 5.79707
H 6.12642 7.77657 8.92465
H 8.26966 6.28253 8.81779
H 8.84022 8.46001 6.63796
H 10.0578 7.13961 7.38648
10
 Atoms. Timestep: 100
C 6.17117 7.83849 6.80085
C 6.68347 7.57395 7.96561
C 8.05812 7.01199 8.04844
C 9.00918 7.55698 7.25258
H 5.21647 8.23775 6.71859
H 6.7342 7.50387 5.97013
H 6.25081 7.76587 8.921
H 8.39071 6.29283 8.88772
H 8.95628 8.35314 6.55405
H 10.0439 7.17809 7.43262
10
 Atoms. Timestep: 120
C 6.13426 7.80723 6.81667
C 6.71634 7.55157 8.03028
C 8.07816 7.09448 8.03051
C 9.05817 7.50796 7.24076
H 5.07733 8.31612 6.69664
H 6.64844 7.53361 5.89594
H 6.1787 7.79171 8.94976
H 8.34883 6.36751 8.78387
H 8.8713 8.24431 6.49446
H 10.0778 7.19932 7.35898
10
 Atoms. Timestep: 140
C 6.17464 7.78537 6.85793
C 6.71229 7.57092 8.01438
C 8.10668 7.12265 8.09651
C 9.02301 7.50176 7.18105
H 5.2026 8.21269 6.77023
H 6.56309 7.59881 5.84031
H 6.14554 7.74373 8.96114
H 8.32078 6.38757 8.82821
H 8.7469 8.25824 6.34406
H 10.0453 7.1347 7.24582
10
 Atoms. Timestep: 160
C 6.09759 7.80234 6.81271
C 6.75782 7.58454 8.03412
C 8.14731 7.13788 8.12706
C 8.99726 7.49664 7.15274
H 5.09837 8.15158 6.87929
H 6.69013 7.5934 5.89899
H 6.15511 7.68289 8.93657
H 8.43581 6.42504 8.98277
H 8.72738 8.17917 6.37056
H 10.0174 7.05952 7.06098
10
 Atoms. Timestep: 180
C 6.12837 7.79863 6.88681
C 6.74882 7.59007 8.00297
C 8.1525 7.15625 8.12251
C 8.98836 7.45981 7.12966
H 5.03608 8.07766 6.80753
H 6.59638 7.64266 5.93105
H 6.21148 7.66002 8.9255
H 8.53837 6.61343 8.98965
H 8.66471 8.14422 6.39703
H 9.96868 7.0535 6.98655
10
 Atoms. Timestep: 200
C 6.1202 7.79934 6.87694
C 6.76462 7.56817 8.07973
C 8.15509 7.18345 8.10158
C 9.00096 7.43469 7.07953
H 5.01532 8.05301 6.8312
H 6.54091 7.67022 5.88448
H 6.19772 7.6756 9.05088
H 8.47766 6.71574 8.98726
H 8.60318 8.12728 6.25436
H 10.044 7.06423 7.05409
10
 Atoms. Timestep: 220
C 6.08932 7.7854 6.92763
C 6.73002 7.57664 8.06233
C 8.17508 7.21497 8.07757
C 8.98883 7.43381 7.04667
H 5.10392 8.0801 6.95326
H 6.59994 7.64196 5.96238
H 6.24343 7.65476 9.03034
H 8.51979 6.68656 9.02808
H 8.72671 7.94056 6.1111
H 10.0307 7.15117 7.11865
10
 Atoms. Timestep: 240
C 6.06088 7.77404 6.95129
C 6.77821 7.56576 8.08282
C 8.14759 7.23533 8.06762
C 8.98696 7.43345 7.02675
H 5.01381 8.15187 6.96865
H 6.59196 7.62643 5.98709
H 6.24979 7.65832 9.00542
H 8.63813 6.75761 8.93244
H 8.7485 7.79006 6.06952
H 10.0399 7.18422 7.15498
10
 Atoms. Timestep: 260
C 6.10343 7.76977 6.96324
C 6.74522 7.5638 8.10177
C 8.19761 7.22904 8.05766
C 8.96654 7.42397 7.00503
H 5.03504 8.10975 6.9466
H 6.45547 7.64704 5.96294
H 6.27538 7.6827 9.10974
H 8.63771 6.90901 8.95558
H 8.62079 7.79338 6.00088
H 10.0229 7.15864 7.14707
10
 Atoms. Timestep: 280
C 6.06372 7.78095 6.9634
C 6.76676 7.55652 8.10396
C 8.19424 7.24598 8.08248
C 8.98252 7.39635 6.96871
H 5.01599 8.04914 7.01128
H 6.50014 7.62605 5.98441
H 6.30565 7.69738 9.09374
H 8.65813 6.99092 9.08814
H 8.53825 7.8203 6.0421
H 10.0624 7.15738 6.95802
10
 Atoms. Timestep: 300
C 6.05549 7.76542 6.99744
C 6.80584 7.5738 8.07802
C 8.22823 7.28869 8.08498
C 8.92774 7.37077 6.98137
H 5.02701 8.01203 7.0493
H 6.54727 7.61113 6.00101
H 6.31054 7.66758 9.01043
H 8.67523 6.98359 9.05101
H 8.51365 7.7746 6.10773
H 9.94654 7.17894 6.81864
10
 Atoms. Timestep: 320
C 6.05274 7.73124 6.99101
C 6.81207 7.61317 8.1025
C 8.24885 7.30785 8.12059
C 8.94149 7.37632 6.92752
H 4.96317 7.99424 7.06498
H 6.4116 7.65198 5.966
H 6.30924 7.63843 9.09905
H 8.71208 6.94986 8.99701
H 8.36287 7.7376 6.03165
H 10.0342 7.07641 6.88055
10
 Atoms. Timestep: 340
C 6.04739 7.71857 7.00797
C 6.80854 7.62608 8.13211
C 8.26838 7.32299 8.04878
C 8.92925 7.38205 6.94348
H 4.969 7.92037 7.12869
H 6.33565 7.65721 5.985
H 6.32456 7.6925 9.13014
H 8.75403 6.96248 8.99136
H 8.46116 7.64676 5.97988
H 9.95821 7.04251 6.87992
10
 Atoms. Timestep: 360
C 6.02146 7.72485 7.07652
C 6.82705 7.61612 8.1177
C 8.19882 7.33502 8.05323
C 8.95017 7.36912 6.88198
H 4.97291 7.85384 7.21306
H 6.42967 7.58798 6.05318
H 6.39611 7.76802 9.06652
H 8.78141 7.0483 8.98349
H 8.5789 7.63709 5.9297
H 9.98 7.05411 6.8665
10
 Atoms. Timestep: 380
C 6.02347 7.71266 7.08258
C 6.81538 7.62705 8.16261
C 8.2707 7.33404 7.99844
C 8.9025 7.34444 6.86975
H 4.95847 7.88147 7.20379
H 6.4424 7.4874 6.06808
H 6.43477 7.80514 9.19688
H 8.70378 7.14463 8.91945
H 8.54144 7.6772 5.88539
H 9.97079 7.11502 6.93518
10
 Atoms. Timestep: 400
C 6.03607 7.67303 7.10706
C 6.82343 7.65173 8.17732
C 8.22918 7.35182 8.02466
C 8.9202 7.33573 6.82204
H 4.94987 7.98654 7.092
H 6.34416 7.4237 6.13651
H 6.48231 7.79923 9.22025
H 8.863 7.12717 8.93895
H 8.40222 7.654 5.86201
H 10.0292 7.15547 6.85288
10
 Atoms. Timestep: 420
C 6.00726 7.6498 7.11725
C 6.85442 7.65699 8.1832
C 8.27676 7.35448 8.00017
C 8.87565 7.36086 6.85385
H 4.99622 8.04827 7.16749
H 6.38478 7.32748 6.13511
H 6.45046 7.87711 9.15077
H 8.90786 7.12356 8.90134
H 8.40716 7.54767 5.94067
H 9.89302 7.16306 6.66689
10
 Atoms. Timestep: 440
C 5.99024 7.64066 7.14659
C 6.85233 7.65361 8.15006
C 8.30703 7.34793 8.06511
C 8.8883 7.38028 6.78144
H 5.00811 7.99186 7.29653
H 6.34029 7.26496 6.1387
H 6.49239 8.02529 9.1213
H 8.85339 7.15405 8.93616
H 8.24083 7.56946 5.89653
H 9.96155 7.07945 6.64057
10
 Atoms. Timestep: 460
C 6.00406 7.61404 7.15341
C 6.90708 7.67444 8.16745
C 8.31268 7.36093 7.98823
C 8.86207 7.35791 6.81729
H 4.94072 7.8863 7.33707
H 6.12888 7.24059 6.148
H 6.57354 8.12783 9.12749
H 8.84962 7.17627 8.94974
H 8.2325 7.66047 5.94417
H 9.88336 7.08463 6.62422
10
 Atoms. Timestep: 480
C 5.97639 7.57736 7.20336
C 6.90574 7.74014 8.13737
C 8.27811 7.37807 8.00067
C 8.87718 7.33536 6.76867
H 4.90212 7.8522 7.43378
H 6.11506 7.1691 6.23307
H 6.65806 8.08847 9.1203
H 8.9622 7.12837 8.90825
H 8.34678 7.71654 5.9379
H 9.91527 7.07976 6.5953
10
 Atoms. Timestep: 500
C 5.9581 7.54736 7.24582
C 6.9081 7.79665 8.16148
C 8.33509 7.37357 7.96154
C 8.82867 7.34409 6.74475
H 4.97729 7.8384 7.48914
H 6.24436 7.02315 6.28197
H 6.58915 8.12117 9.16346
H 8.85284 7.10632 8.80826
H 8.38839 7.72654 5.81987
H 9.89216 7.03442 6.64474
10
 Atoms. Timestep: 520
C 5.99813 7.52664 7.296
C 6.93719 7.7923 8.2086
C 8.27344 7.4109 7.93997
C 8.8453 7.36279 6.69138
H 4.9462 7.7856 7.38202
H 6.22827 6.94172 6.38548
H 6.59586 8.2735 9.14457
H 8.88202 7.03375 8.795
H 8.29275 7.70082 5.75711
H 9.85455 6.92881 6.60908
10
 Atoms. Timestep: 540
C 5.99525 7.49032 7.31505
C 6.90079 7.80363 8.24008
C 8.29928 7.42069 7.89726
C 8.83354 7.37187 6.68985
H 4.90501 7.78905 7.34095
H 6.25111 6.88895 6.49934
H 6.76763 8.41982 9.12626
H 8.97461 7.02774 8.7428
H 8.28653 7.66521 5.84095
H 9.76597 6.91013 6.48519
10
 Atoms. Timestep: 560
C 5.95722 7.46132 7.33983
C 6.94012 7.83163 8.21127
C 8.34247 7.39692 7.95282
C 8.77761 7.36361 6.64902
H 4.93013 7.81689 7.41875
H 6.30258 6.7871 6.52621
H 6.8081 8.48361 9.08623
H 8.97613 7.12483 8.73009
H 8.19238 7.74019 5.80766
H 9.81017 6.94654 6.40244
10
 Atoms. Timestep: 580
C 5.97351 7.45388 7.4123
C 6.99924 7.84723 8.14775
C 8.34435 7.39004 7.92984
C 8.75594 7.34073 6.64259
H 4.98768 7.79482 7.49631
H 6.12381 6.70968 6.56762
H 6.70931 8.4809 8.99314
H 9.00506 7.19423 8.81092
H 8.09517 7.7851 5.86199
H 9.76474 7.06397 6.3641
10
 Atoms. Timestep: 600
C 5.94033 7.41149 7.42392
C 6.99542 7.86346 8.14964
C 8.36266 7.40931 7.88179
C 8.80007 7.34125 6.63245
H 4.93062 7.85096 7.68534
H 5.94995 6.66806 6.67173
H 6.79566 8.54909 8.98275
H 9.02832 7.21643 8.80611
H 8.07238 7.68289 5.91337
H 9.75621 7.09953 6.30294
10
 Atoms. Timestep: 620
C 5.96865 7.41183 7.44606
C 6.98243 7.84355 8.15996
C 8.36851 7.45167 7.91121
C 8.73929 7.35643 6.60601
H 4.99084 7.801 7.77781
H 5.92318 6.61246 6.73143
H 6.93153 8.60072 8.93389
H 9.0371 7.22306 8.67128
H 8.07699 7.55425 5.75238
H 9.81109 7.0476 6.28275
10
 Atoms. Timestep: 640
C 5.93869 7.4159 7.51366
C 7.04479 7.83989 8.20067
C 8.37346 7.47745 7.83666
C 8.7001 7.346 6.5752
H 4.93876 7.7532 7.72167
H 6.07063 6.57438 6.73564
H 6.82494 8.64284 8.94077
H 9.10938 7.28987 8.63533
H 8.08501 7.49249 5.71285
H 9.75306 6.99178 6.38566
10
 Atoms. Timestep: 660
C 5.97635 7.38433 7.58006
C 6.98047 7.88828 8.22847
C 8.36072 7.49774 7.80944
C 8.7267 7.28912 6.50415
H 4.95282 7.70834 7.67686
H 6.17165 6.6767 6.80795
H 6.83392 8.59342 9.04769
H 9.21491 7.42 8.60408
H 7.99839 7.50729 5.70099
H 9.68684 6.95736 6.31872
10
 Atoms. Timestep: 680
C 5.99464 7.33936 7.56071
C 7.03716 7.94944 8.26838
C 8.36413 7.54737 7.79109
C 8.66053 7.24717 6.52951
H 4.92072 7.63058 7.74912
H 6.2197 6.64092 6.77241
H 6.92439 8.55333 9.16978
H 9.11676 7.51494 8.49498
H 7.95054 7.44527 5.68189
H 9.6532 6.93498 6.12265
10
 Atoms. Timestep: 700
C 5.98342 7.3848 7.6311
C 7.02832 7.90064 8.20963
C 8.39865 7.61024 7.78391
C 8.63957 7.2431 6.47803
H 4.92206 7.4877 7.86631
H 6.19131 6.64336 6.82533
H 6.96704 8.49168 9.1321
H 9.18794 7.57226 8.56374
H 7.86598 7.30944 5.76118
H 9.68996 6.88285 6.12435
10
 Atoms. Timestep: 720
C 5.93256 7.36328 7.6481
C 7.07791 7.88297 8.21318
C 8.43941 7.62369 7.71019
C 8.64426 7.25726 6.48624
H 4.95975 7.49713 8.08856
H 6.0353 6.65007 6.82352
H 6.92092 8.53677 9.09545
H 9.25374 7.68876 8.53371
H 7.81559 7.17194 5.80208
H 9.57388 6.91211 6.19941
10
 Atoms. Timestep: 740
C 5.99366 7.32547 7.66981
C 7.06718 7.87881 8.22062
C 8.40944 7.66308 7.76228
C 8.62848 7.23191 6.46068
H 5.09229 7.59363 8.2147
H 5.83089 6.67216 6.82329
H 6.95617 8.54331 9.05025
H 9.29325 7.80972 8.31458
H 7.74014 7.05845 5.7084
H 9.61864 6.94713 6.09742
10
 Atoms. Timestep: 760
C 5.96761 7.31011 7.74345
C 7.09116 7.88153 8.22962
C 8.43063 7.66152 7.66207
C 8.60504 7.19737 6.47028
H 5.00995 7.67328 8.22474
H 5.84895 6.65559 6.85585
H 6.95472 8.52987 9.11264
H 9.27082 7.96221 8.27856
H 7.83357 7.01819 5.78404
H 9.63928 7.0777 6.00066
10
 Atoms. Timestep: 780
C 5.98157 7.34214 7.78744
C 7.10492 7.86186 8.23395
C 8.41687 7.69942 7.65427
C 8.56831 7.152 6.40961
H 4.98652 7.57199 8.14674
H 6.00778 6.63898 6.98452
H 7.0617 8.5027 9.13121
H 9.29924 8.09924 8.31182
H 7.74697 6.91139 5.78775
H 9.5918 7.16318 6.01531
10
 Atoms. Timestep: 800
C 5.99763 7.333 7.76732
C 7.13649 7.89412 8.30358
C 8.39695 7.71283 7.6253
C 8.54448 7.17693 6.42635
H 5.0141 7.47531 8.17409
H 6.12432 6.566 6.98182
H 7.14778 8.5457 9.16148
H 9.25443 8.08188 8.10214
H 7.65516 6.7613 5.78908
H 9.47488 7.08855 5.9451
10
 Atoms. Timestep: 820
C 6.0079 7.3159 7.82894
C 7.0979 7.91256 8.32755
C 8.40214 7.72735 7.59667
C 8.55587 7.16825 6.36529
H 4.99881 7.4295 8.25216
H 6.1242 6.63051 6.97835
H 7.09621 8.58158 9.19399
H 9.32376 8.11417 8.01111
H 7.6774 6.72426 5.88199
H 9.52072 6.99559 5.86063
10
 Atoms. Timestep: 840
C 6.03532 7.28224 7.88027
C 7.13564 7.92596 8.28249
C 8.41701 7.75364 7.55362
C 8.4907 7.14016 6.37355
H 5.05558 7.39453 8.33779
H 6.03248 6.70563 6.97428
H 7.02577 8.56605 9.18745
H 9.34535 8.19502 8.0881
H 7.70143 6.73142 5.84595
H 9.49137 7.01537 5.91588
10
 Atoms. Timestep: 860
C 6.01687 7.25893 7.90494
C 7.16561 7.9267 8.24401
C 8.4038 7.80304 7.55116
C 8.50247 7.12446 6.39081
H 5.10803 7.39558 8.50846
H 5.94228 6.65871 6.99012
H 7.15857 8.54099 9.12808
H 9.28863 8.1789 8.0208
H 7.60994 6.73422 5.78846
H 9.48404 7.03287 5.90756
10
 Atoms. Timestep: 880
C 6.01626 7.27632 7.93075
C 7.1237 7.91477 8.23966
C 8.40415 7.80502 7.50777
C 8.53588 7.13635 6.37907
H 5.1837 7.37703 8.62029
H 5.86607 6.56768 7.1117
H 7.24279 8.52526 9.1135
H 9.28374 8.20703 7.95388
H 7.61507 6.75027 5.8751
H 9.45268 6.99798 5.87109
10
 Atoms. Timestep: 900
C 6.03115 7.26664 7.93967
C 7.18842 7.93218 8.23758
C 8.40174 7.80655 7.50832
C 8.46734 7.13222 6.3458
H 5.18697 7.36319 8.62435
H 5.88993 6.50439 7.16692
H 7.12081 8.55254 9.18218
H 9.31449 8.32123 7.97677
H 7.63963 6.68174 5.90867
H 9.44027 6.97136 5.84185
10
 Atoms. Timestep: 920
C 6.07242 7.24998 7.98104
C 7.15937 7.92826 8.26748
C 8.42451 7.81675 7.49591
C 8.43331 7.13324 6.33456
H 5.15346 7.39766 8.56167
H 6.0225 6.53615 7.17071
H 7.11933 8.61087 9.11671
H 9.31203 8.32486 7.87911
H 7.56482 6.59426 5.90128
H 9.41421 6.98679 5.78555
10
 Atoms. Timestep: 940
C 6.0524 7.21306 8.02447
C 7.18348 7.95191 8.30222
C 8.39184 7.81048 7.4606
C 8.46662 7.12963 6.33033
H 5.07576 7.40304 8.52279
H 6.10416 6.53698 7.17623
H 7.21887 8.71012 9.06125
H 9.2873 8.27785 7.75788
H 7.5435 6.61864 5.94882
H 9.32832 7.04284 5.7163
10
 Atoms. Timestep: 960
C 6.11237 7.23578 8.04572
C 7.18555 7.95108 8.29028
C 8.36407 7.81779 7.46901
C 8.4161 7.09379 6.30979
H 5.16919 7.335 8.48379
H 6.07928 6.45891 7.2614
H 7.25191 8.75168 9.05074
H 9.31218 8.3607 7.79646
H 7.5537 6.60881 5.8975
H 9.28922 7.11431 5.71037
10
 Atoms. Timestep: 980
C 6.07751 7.22169 8.07561
C 7.21326 7.97982 8.27285
C 8.39606 7.79759 7.42625
C 8.39687 7.10837 6.29662
H 5.14713 7.3729 8.68095
H 6.13238 6.38148 7.35857
H 7.16153 8.733 9.09049
H 9.23812 8.39616 7.80011
H 7.56947 6.57902 5.84902
H 9.37321 7.1126 5.68188
10
 Atoms. Timestep: 1000
C 6.12316 7.21514 8.10264
C 7.15835 7.9628 8.24428
C 8.3847 7.8251 7.43646
C 8.4067 7.13782 6.28032
H 5.26717 7.38127 8.79765
H 6.06042 6.36966 7.4759
H 7.19467 8.70628 8.99757
H 9.2958 8.32198 7.66589
H 7.53515 6.58163 5.86492
H 9.33334 7.01401 5.70485
10
 Atoms. Timestep: 1020
C 6.11112 7.14808 8.1355
C 7.22835 8.00407 8.22119
C 8.37223 7.85351 7.39841
C 8.38116 7.13363 6.28506
H 5.31186 7.33992 8.82986
H 5.96491 6.28487 7.44958
H 7.21495 8.82315 8.98029
H 9.33942 8.30257 7.71439
H 7.47705 6.66729 5.91789
H 9.25865 6.96643 5.75601
10
 Atoms. Timestep: 1040
C 6.17227 7.16508 8.20371
C 7.16928 7.98147 8.21672
C 8.4135 7.8883 7.36118
C 8.34335 7.10186 6.25991
H 5.31248 7.28423 8.81537
H 6.05788 6.32491 7.48518
H 7.17748 8.82792 8.9246
H 9.31614 8.3384 7.8327
H 7.37689 6.7332 5.91033
H 9.29277 6.89105 5.67167
10
 Atoms. Timestep: 1060
C 6.18035 7.13185 8.22272
C 7.22087 8.03784 8.20031
C 8.37114 7.86189 7.36594
C 8.33407 7.12188 6.26813
H 5.2519 7.28898 8.89202
H 6.27195 6.28709 7.56641
H 7.13371 8.83444 8.91414
H 9.27452 8.30848 7.70827
H 7.38567 6.76413 5.88992
H 9.16759 6.81615 5.57565
10
 Atoms. Timestep: 1080
C 6.23999 7.13803 8.22257
C 7.17382 8.05791 8.23361
C 8.35927 7.83311 7.38314
C 8.29381 7.11808 6.2152
H 5.35645 7.24533 8.83192
H 6.3433 6.17601 7.7527
H 7.20651 8.95775 8.87301
H 9.35088 8.3068 7.56889
H 7.32244 6.74338 5.88242
H 9.14309 6.908 5.65286
10
 Atoms. Timestep: 1100
C 6.21043 7.12691 8.31907
C 7.21876 8.07211 8.23217
C 8.36584 7.80817 7.32753
C 8.27182 7.1356 6.17576
H 5.29429 7.23461 8.85023
H 6.42074 6.08663 7.88112
H 7.14288 9.05551 8.77582
H 9.32507 8.28714 7.6097
H 7.31879 6.69839 5.81985
H 9.22118 7.00099 5.62517
10
 Atoms. Timestep: 1120
C 6.30526 7.13538 8.36763
C 7.22141 8.0282 8.19056
C 8.33897 7.84037 7.33474
C 8.22316 7.13687 6.20509
H 5.34365 7.30675 8.87248
H 6.42635 6.13865 7.96846
H 7.07469 8.98894 8.58819
H 9.2814 8.22158 7.63332
H 7.35957 6.68803 5.72853
H 9.10557 7.03115 5.50986
10
 Atoms. Timestep: 1140
C 6.3288 7.05075 8.40964
C 7.20107 8.0738 8.16813
C 8.35879 7.83962 7.31385
C 8.21485 7.12477 6.16888
H 5.41107 7.43082 9.00958
H 6.41449 6.08221 8.02325
H 7.03335 9.11231 8.54103
H 9.34402 8.26109 7.60402
H 7.24471 6.77571 5.85129
H 9.05527 7.02424 5.49684
10
 Atoms. Timestep: 1160
C 6.35424 7.08781 8.43786
C 7.17651 8.07819 8.14364
C 8.38964 7.83566 7.27036
C 8.19696 7.13782 6.16687
H 5.52165 7.21336 9.0741
H 6.43699 6.00871 8.12889
H 6.99043 9.09522 8.57278
H 9.35777 8.31284 7.51786
H 7.1265 6.85199 5.9896
H 8.98657 6.90094 5.49341
10
 Atoms. Timestep: 1180
C 6.35746 7.09292 8.46751
C 7.22885 8.08205 8.11692
C 8.36201 7.89572 7.28647
C 8.14667 7.12992 6.1604
H 5.53103 7.12532 9.14625
H 6.65726 6.03751 8.15301
H 7.02007 9.01537 8.57046
H 9.32414 8.31972 7.48192
H 7.12958 6.7856 5.93195
H 8.89198 6.73276 5.41768
10
 Atoms. Timestep: 1200
C 6.43137 7.04755 8.48193
C 7.2022 8.10074 8.19371
C 8.3282 7.89097 7.18989
C 8.1078 7.10162 6.15603
H 5.53609 7.24485 9.15622
H 6.74532 6.1169 8.14864
H 7.10342 9.13565 8.5787
H 9.28773 8.35421 7.48232
H 7.14909 6.75363 5.91006
H 8.88487 6.7695 5.48367
10
 Atoms. Timestep: 1220
C 6.49394 7.07262 8.55086
C 7.23781 8.11983 8.1965
C 8.24431 7.90028 7.19474
C 8.10987 7.06483 6.09613
H 5.54276 7.16596 9.15881
H 6.65758 6.06761 8.16223
H 7.08549 9.15578 8.62448
H 9.26547 8.34627 7.33427
H 7.06227 6.67801 5.91458
H 8.99491 6.86108 5.46524
10
 Atoms. Timestep: 1240
C 6.50311 7.0959 8.59436
C 7.26376 8.12545 8.17554
C 8.24206 7.88629 7.14476
C 8.06921 7.0824 6.14889
H 5.71202 7.13478 9.24001
H 6.63 6.02994 8.16006
H 7.07947 9.05733 8.64227
H 9.17587 8.38685 7.19183
H 7.18069 6.51412 5.82359
H 8.8771 6.95676 5.44999
10
 Atoms. Timestep: 1260
C 6.48938 7.06991 8.61141
C 7.23631 8.0915 8.1961
C 8.27072 7.93827 7.14038
C 8.04066 7.03378 6.08274
H 5.79212 7.24897 9.4856
H 6.70061 6.11713 8.19024
H 7.17824 9.09211 8.63053
H 9.19228 8.55702 7.14057
H 7.18085 6.40666 5.92295
H 8.85747 6.99735 5.33536
10
 Atoms. Timestep: 1280
C 6.52875 7.06697 8.57792
C 7.28534 8.0893 8.17961
C 8.21543 7.92121 7.0751
C 8.0477 7.06314 6.1478
H 5.89719 7.19924 9.53156
H 6.6396 6.05642 8.26744
H 7.22397 9.11276 8.67554
H 9.04453 8.64439 7.09071
H 7.16956 6.42438 6.15721
H 8.68586 6.93916 5.28401
10
 Atoms. Timestep: 1300
C 6.56444 7.07357 8.64896
C 7.31114 8.08018 8.18469
C 8.19866 8.01261 7.06722
C 8.03072 7.01029 6.10649
H 5.88324 7.15467 9.45754
H 6.56225 6.01309 8.2462
H 7.24712 9.00371 8.706
H 9.00487 8.74021 6.95768
H 7.13209 6.38974 6.30186
H 8.6647 6.8587 5.17557
10
 Atoms. Timestep: 1320
C 6.58727 7.02997 8.70586
C 7.31494 8.08336 8.23019
C 8.21802 8.02267 6.94313
C 7.99084 7.02335 6.14642
H 5.87465 7.24142 9.45355
H 6.59673 6.07004 8.14797
H 7.26783 9.01628 8.7749
H 8.94715 8.8123 6.82855
H 7.20539 6.28599 6.23068
H 8.5658 6.83786 5.29975
10
 Atoms. Timestep: 1340
C 6.638 7.05451 8.68185
C 7.36882 8.07468 8.21637
C 8.12438 8.04536 7.01252
C 7.96775 6.98828 6.10827
H 5.89606 7.20477 9.56392
H 6.61053 6.10963 8.21831
H 7.30645 9.05341 8.79059
H 8.89071 8.80335 6.68288
H 7.20503 6.20235 6.29163
H 8.62156 6.86945 5.22758
10
 Atoms. Timestep: 1360
C 6.65058 7.0952 8.68621
C 7.38304 8.10614 8.24158
C 8.06164 7.95711 6.95403
C 7.96606 7.00535 6.11529
H 6.09557 7.12954 9.6363
H 6.64661 6.07506 8.28636
H 7.4049 9.06479 8.74733
H 8.72369 8.79874 6.7609
H 7.28207 6.19313 6.29109
H 8.60325 6.976 5.18432
10
 Atoms. Timestep: 1380
C 6.65569 7.08782 8.75946
C 7.35754 8.11713 8.23513
C 8.06443 8.01295 6.96524
C 7.94651 6.93735 6.06992
H 6.2303 7.16555 9.72268
H 6.70717 6.1085 8.21098
H 7.49916 9.05894 8.72179
H 8.68972 8.86061 6.73747
H 7.32928 6.05783 6.18123
H 8.52334 7.0371 5.13637
10
 Atoms. Timestep: 1400
C 6.73843 7.07856 8.75535
C 7.3525 8.11636 8.19945
C 8.03935 8.00222 6.93517
C 7.92055 6.97624 6.13294
H 6.28461 7.13779 9.74524
H 6.62913 6.13843 8.21925
H 7.4801 9.05486 8.80585
H 8.67936 8.8241 6.58024
H 7.36333 6.02431 6.18467
H 8.3825 7.00025 5.21626
10
 Atoms. Timestep: 1420
C 6.77386 7.05739 8.78848
C 7.38656 8.12545 8.22201
C 8.00438 8.02534 6.90185
C 7.91272 6.95545 6.08118
H 6.27574 7.11494 9.82513
H 6.57179 6.14092 8.28993
H 7.4175 9.05589 8.80154
H 8.63715 8.84856 6.49828
H 7.2975 6.09262 6.46287
H 8.45921 6.98529 5.05012
10
 Atoms. Timestep: 1440
C 6.7899 7.05847 8.78841
C 7.41601 8.09626 8.24645
C 7.99234 8.05851 6.83819
C 7.87343 6.9584 6.11499
H 6.38421 7.16565 9.75274
H 6.645 6.07307 8.31449
H 7.45186 9.04232 8.72108
H 8.52206 8.95394 6.5698
H 7.34404 6.12882 6.46708
H 8.34676 6.82637 5.13559
10
 Atoms. Timestep: 1460
C 6.78934 7.05645 8.83129
C 7.44883 8.07785 8.17449
C 7.96544 8.09561 6.87146
C 7.85942 6.95433 6.09624
H 6.40236 7.18141 9.82973
H 6.78476 6.04911 8.34221
H 7.53612 9.04227 8.74585
H 8.43605 9.02297 6.51179
H 7.34173 6.05868 6.47253
H 8.24485 6.76015 5.14595
10
 Atoms. Timestep: 1480
C 6.85692 7.077 8.82589
C 7.40801 8.08428 8.22511
C 7.94928 8.03803 6.81832
C 7.85061 6.96844 6.09365
H 6.43526 7.16535 9.84662
H 6.78074 6.07466 8.47001
H 7.59178 9.02448 8.76807
H 8.36743 8.96499 6.397
H 7.33076 6.05993 6.57095
H 8.22907 6.92401 5.05852
10
 Atoms. Timestep: 1500
C 6.89726 7.03883 8.85746
C 7.44333 8.15457 8.20559
C 7.91066 8.04441 6.84233
C 7.8209 6.91797 6.09315
H 6.52073 7.20908 9.90054
H 6.73029 6.05428 8.42362
H 7.52528 9.06825 8.76326
H 8.34297 8.91561 6.35202
H 7.4027 6.0199 6.45332
H 8.16911 7.01822 5.00503
10
 Atoms. Timestep: 1520
C 6.95619 7.10295 8.8675
C 7.44576 8.10488 8.23079
C 7.87266 8.04312 6.84072
C 7.79386 6.91939 6.09447
H 6.65761 7.15887 9.87035
H 6.74981 6.15195 8.34921
H 7.46098 9.10539 8.68844
H 8.30973 8.93306 6.39053
H 7.46181 5.92258 6.3143
H 8.07322 6.92612 5.07532
10
 Atoms. Timestep: 1540
C 6.96095 7.08021 8.91985
C 7.46892 8.14979 8.20812
C 7.84174 8.00727 6.81489
C 7.77605 6.9307 6.05223
H 6.70452 7.09924 10.009
H 6.84302 6.15067 8.33868
H 7.53586 9.17046 8.67591
H 8.21822 8.95088 6.40496
H 7.44535 5.87595 6.47429
H 8.09107 6.96496 5.0156
10
 Atoms. Timestep: 1560
C 7.02118 7.08873 8.84875
C 7.44893 8.15056 8.23584
C 7.81661 8.0406 6.81256
C 7.73709 6.90033 6.09942
H 6.77205 7.07703 9.89787
H 6.91908 6.0985 8.45972
H 7.66502 9.08538 8.66438
H 8.13198 8.94312 6.27121
H 7.42852 5.97441 6.5655
H 8.0645 6.96022 5.05095
10
 Atoms. Timestep: 1580
C 7.0372 7.05125 8.93753
C 7.47549 8.15497 8.18563
C 7.7818 8.07319 6.76868
C 7.73718 6.91081 6.09357
H 6.80393 7.16685 10.0165
H 6.96436 6.06726 8.43067
H 7.6827 9.07419 8.79577
H 8.06821 8.96 6.21647
H 7.42886 6.02407 6.50863
H 7.9859 6.78627 5.00846
10
 Atoms. Timestep: 1600
C 7.09981 7.09804 8.93305
C 7.48604 8.07624 8.22493
C 7.75108 8.0891 6.72218
C 7.7282 6.92252 6.08087
H 6.9014 7.19559 9.97541
H 6.90356 6.09606 8.533
H 7.59124 9.07434 8.71731
H 8.02804 9.04589 6.24934
H 7.3973 5.90374 6.60918
H 7.91167 6.78899 5.03851
10
 Atoms. Timestep: 1620
C 7.12864 7.0369 8.94671
C 7.52938 8.15089 8.14064
C 7.72463 8.0617 6.76583
C 7.68213 6.90778 6.0814
H 7.00486 7.22928 10.0364
H 6.85498 6.03507 8.61266
H 7.56931 9.10341 8.61213
H 7.94956 9.02338 6.28837
H 7.49692 6.00399 6.70427
H 7.85971 6.88121 5.02757
10
 Atoms. Timestep: 1640
C 7.17964 7.10101 8.9392
C 7.48748 8.10048 8.21887
C 7.71678 8.05531 6.7421
C 7.64587 6.89814 6.08906
H 7.10701 7.2242 10.0075
H 6.94902 6.11142 8.60588
H 7.65842 9.11228 8.60436
H 7.86335 8.97024 6.18652
H 7.59736 6.01378 6.57645
H 7.77024 6.85848 4.97286
10
 Atoms. Timestep: 1660
C 7.20176 7.09119 9.00119
C 7.50566 8.17043 8.1739
C 7.66863 8.05358 6.73375
C 7.63611 6.88472 6.08035
H 7.16756 7.19491 10.1204
H 7.07078 6.0977 8.48691
H 7.7661 9.12693 8.76698
H 7.76399 8.97322 6.13778
H 7.62685 5.79484 6.49519
H 7.65578 6.83296 4.94667
10
 Atoms. Timestep: 1680
C 7.26723 7.12938 8.92514
C 7.55762 8.18505 8.2217
C 7.58948 8.02781 6.74631
C 7.62658 6.85347 6.09337
H 7.22301 7.10615 9.97226
H 7.08986 6.12928 8.54293
H 7.7583 9.1226 8.6456
H 7.62391 8.95744 6.1389
H 7.59312 5.81221 6.58442
H 7.59033 6.91807 5.08571
10
 Atoms. Timestep: 1700
C 7.31677 7.10079 9.00382
C 7.61158 8.19509 8.18547
C 7.53039 8.0074 6.76033
C 7.60683 6.84727 6.06102
H 7.3026 7.13961 10.1106
H 7.04392 6.19689 8.47584
H 7.75193 9.2149 8.53609
H 7.45545 8.89496 6.17191
H 7.61446 5.99756 6.60654
H 7.56224 6.87276 4.92422
10
 Atoms. Timestep: 1720
C 7.39271 7.13866 8.97067
C 7.60846 8.12423 8.18883
C 7.49443 8.03857 6.71884
C 7.55645 6.87917 6.12102
H 7.41931 7.19208 10.0606
H 6.99648 6.20264 8.53635
H 7.81714 9.19166 8.53929
H 7.30628 8.96971 6.18079
H 7.75908 5.87259 6.58973
H 7.51338 6.70757 4.98611
10
 Atoms. Timestep: 1740
C 7.41772 7.09956 9.00453
C 7.61059 8.178 8.1213
C 7.44771 8.08067 6.7102
C 7.52631 6.82207 6.08816
H 7.61722 7.25983 10.103
H 7.01963 6.13067 8.72154
H 7.96461 9.06577 8.65515
H 7.2084 9.0324 6.13467
H 7.94538 5.92088 6.68039
H 7.35477 6.72872 5.04911
10
 Atoms. Timestep: 1760
C 7.447 7.13541 9.0052
C 7.62912 8.1433 8.17783
C 7.3876 8.0245 6.66439
C 7.52424 6.86875 6.09425
H 7.78817 7.28295 9.98381
H 7.06183 6.14075 8.82841
H 8.04897 9.04195 8.56836
H 7.13359 8.87999 6.09747
H 7.95298 6.12102 6.66296
H 7.21065 6.72159 5.09797
10
 Atoms. Timestep: 1780
C 7.49941 7.14245 9.02094
C 7.65868 8.1356 8.10592
C 7.32223 8.05785 6.75294
C 7.52739 6.86026 6.11112
H 7.91336 7.28435 10.0481
H 7.01528 6.16236 8.73122
H 8.10378 9.12355 8.4134
H 6.95273 8.87819 6.12641
H 7.94975 5.98568 6.63785
H 7.14279 6.60897 4.98651
10
 Atoms. Timestep: 1800
C 7.57244 7.16476 8.98324
C 7.70758 8.17416 8.12211
C 7.25714 7.98147 6.71137
C 7.47888 6.84559 6.13801
H 7.90828 7.20951 10.041
H 7.02172 6.30056 8.69744
H 8.14254 9.1446 8.40437
H 6.76482 8.93626 6.3009
H 7.95866 5.94256 6.5821
H 7.23171 6.69064 5.13486
10
 Atoms. Timestep: 1820
C 7.62696 7.19432 9.01231
C 7.73915 8.2113 8.13146
C 7.22019 7.98507 6.77041
C 7.42652 6.78134 6.05716
H 7.94352 7.18615 10.0477
H 7.07302 6.34142 8.68509
H 8.18395 9.13168 8.42302
H 6.66835 8.76636 6.26842
H 8.01262 6.05685 6.61882
H 7.16563 6.70535 5.0179
10
 Atoms. Timestep: 1840
C 7.65572 7.19414 8.97356
C 7.74333 8.20838 8.10963
C 7.2068 7.95067 6.76732
C 7.39793 6.84803 6.15429
H 8.03293 7.26134 9.95837
H 7.11718 6.21859 8.68067
H 8.21659 9.18272 8.37617
H 6.63926 8.66609 6.24188
H 8.06631 6.05624 6.4978
H 7.02904 6.62771 5.10525
10
 Atoms. Timestep: 1860
C 7.68381 7.1983 9.00599
C 7.72861 8.17141 8.09146
C 7.18675 8.01002 6.76839
C 7.41897 6.78818 6.11094
H 8.1954 7.33152 10.0221
H 7.23997 6.24955 8.75891
H 8.17125 9.16572 8.31142
H 6.52738 8.84239 6.27016
H 8.10741 6.0134 6.47344
H 6.77375 6.60995 5.1923
10
 Atoms. Timestep: 1880
C 7.74764 7.20317 8.99634
C 7.71811 8.17751 8.07493
C 7.17846 7.95504 6.71543
C 7.36226 6.83881 6.12748
H 8.22875 7.35104 9.96864
H 7.30385 6.25482 8.87998
H 8.1212 9.1309 8.34773
H 6.58251 8.78452 6.40943
H 8.03822 6.09438 6.49124
H 6.81061 6.55721 5.30691
10
 Atoms. Timestep: 1900
C 7.821 7.19944 8.97286
C 7.73573 8.18712 8.06988
C 7.15573 8.01527 6.79463
C 7.30321 6.7846 6.11504
H 8.24265 7.42646 9.91374
H 7.31351 6.18369 8.88374
H 8.0821 9.18864 8.35118
H 6.52297 8.74197 6.31233
H 8.03396 6.0757 6.60622
H 6.83475 6.48497 5.10733
10
 Atoms. Timestep: 1920
C 7.87293 7.20125 8.96694
C 7.75482 8.20777 8.09339
C 7.09414 7.94121 6.73658
C 7.26964 6.80337 6.17712
H 8.32839 7.41942 9.94241
H 7.42044 6.20641 8.75359
H 8.08218 9.24722 8.35123
H 6.51086 8.79478 6.24297
H 7.90453 6.03629 6.57855
H 6.92844 6.59424 5.17606
10
 Atoms. Timestep: 1940
C 7.91437 7.24506 8.97304
C 7.7093 8.21348 8.06342
C 7.07776 7.97786 6.79598
C 7.26023 6.74548 6.14819
H 8.43996 7.27595 9.98233
H 7.61421 6.28927 8.71855
H 8.0674 9.19754 8.29696
H 6.56813 8.77946 6.25282
H 7.81739 5.94343 6.60687
H 6.84692 6.64306 5.14761
10
 Atoms. Timestep: 1960
C 7.95446 7.24274 8.93337
C 7.68085 8.24228 8.09823
C 7.1046 7.92229 6.78482
C 7.22772 6.78852 6.18158
H 8.49814 7.37851 9.83151
H 7.67991 6.1732 8.70369
H 8.00063 9.27566 8.23686
H 6.63366 8.73321 6.32429
H 7.74484 5.89196 6.58711
H 6.76104 6.59242 5.21755
10
 Atoms. Timestep: 1980
C 8.01613 7.2355 8.94435
C 7.68235 8.23592 8.10767
C 7.12862 7.95559 6.79871
C 7.17904 6.72986 6.14747
H 8.57686 7.52009 9.81988
H 7.70274 6.17291 8.71475
H 7.87792 9.31644 8.32548
H 6.55852 8.80719 6.25383
H 7.7406 5.89796 6.60051
H 6.63054 6.56418 5.18535
10
 Atoms. Timestep: 2000
C 8.0627 7.25795 8.90181
C 7.69318 8.21393 8.0622
C 7.10288 7.94959 6.75149
C 7.14099 6.7539 6.21992
H 8.56805 7.45627 9.87755
H 7.83552 6.24344 8.79586
H 7.7905 9.20766 8.47422
H 6.57034 8.76282 6.26002
H 7.71779 5.92811 6.55785
H 6.6433 6.56951 5.31092
10
 Atoms. Timestep: 2020
C 8.11919 7.24604 8.91873
C 7.71063 8.21959 8.04603
C 7.06765 7.98998 6.76475
C 7.10228 6.72736 6.21506
H 8.52149 7.50426 9.93562
H 7.99272 6.17227 8.7293
H 7.75833 9.2498 8.39417
H 6.55519 8.74919 6.26115
H 7.7382 5.92091 6.65763
H 6.55956 6.52573 5.24377
10
 Atoms. Timestep: 2040
C 8.13576 7.26181 8.88597
C 7.72333 8.21758 8.08871
C 7.0549 7.93318 6.78025
C 7.08126 6.74938 6.22251
H 8.48793 7.55435 9.81724
H 8.16295 6.15787 8.6052
H 7.79895 9.3013 8.27995
H 6.50383 8.81552 6.29161
H 7.63084 5.95625 6.71376
H 6.56803 6.46308 5.31661
10
 Atoms. Timestep: 2060
C 8.17848 7.27955 8.87414
C 7.68193 8.23636 8.03075
C 7.05046 7.94439 6.82014
C 7.06672 6.71327 6.2218
H 8.63355 7.50451 9.86109
H 8.20599 6.24508 8.56826
H 7.84336 9.27011 8.374
H 6.48751 8.79365 6.35971
H 7.53745 5.89427 6.73029
H 6.55056 6.47095 5.31469
10
 Atoms. Timestep: 2080
C 8.22601 7.30286 8.83457
C 7.71017 8.2415 8.09506
C 7.00652 7.93698 6.76942
C 7.04368 6.70266 6.26253
H 8.78186 7.48913 9.78374
H 8.15331 6.28072 8.60173
H 7.72724 9.27694 8.4048
H 6.49442 8.71356 6.32097
H 7.52307 5.79429 6.70768
H 6.52579 6.56136 5.30058
10
 Atoms. Timestep: 2100
C 8.30125 7.28317 8.8367
C 7.67855 8.27496 8.07726
C 7.02037 7.91712 6.82551
C 6.99362 6.6976 6.27289
H 8.89297 7.56863 9.71051
H 8.1115 6.19036 8.5824
H 7.64485 9.33327 8.39152
H 6.48322 8.70839 6.18402
H 7.53351 5.84005 6.66369
H 6.49521 6.54225 5.28267
10
 Atoms. Timestep: 2120
C 8.30262 7.34351 8.7748
C 7.67402 8.22551 8.08347
C 7.00501 7.9096 6.85976