ITEM: TIMESTEP
0
ITEM: NUMBER OF ATOMS
10
ITEM: BOX BOUNDS pp pp pp
0.0000000000000000e+00 1.5000000000000000e+01
0.0000000000000000e+00 1.5000000000000000e+01
0.0000000000000000e+00 1.5000000000000000e+01
ITEM: ATOMS id type x y z
5 2 5.21878 8.30749 6.32245
8 2 8.20196 6.25359 8.77596
9 2 8.93671 8.42318 6.87645
1 1 6.23816 7.94988 6.68346
3 1 8.00297 7.00452 8.04563
2 1 6.63282 7.46496 7.89246
6 2 6.95994 7.92195 5.83253
4 1 9.09984 7.5391 7.49132
7 2 5.93893 7.45268 8.75072
10 2 10.025 7.11036 7.65361
ITEM: TIMESTEP
100
ITEM: NUMBER OF ATOMS
10
ITEM: BOX BOUNDS pp pp pp
0.0000000000000000e+00 1.5000000000000000e+01
0.0000000000000000e+00 1.5000000000000000e+01
0.0000000000000000e+00 1.5000000000000000e+01
ITEM: ATOMS id type x y z
5 2 5.21647 8.23775 6.71859
8 2 8.39071 6.29283 8.88772
9 2 8.95628 8.35314 6.55405
1 1 6.17117 7.83849 6.80085
3 1 8.05812 7.01199 8.04844
2 1 6.68347 7.57395 7.96561
6 2 6.7342 7.50387 5.97013
4 1 9.00918 7.55698 7.25258
7 2 6.25081 7.76587 8.921
10 2 10.0439 7.17809 7.43262
ITEM: TIMESTEP
200
ITEM: NUMBER OF ATOMS
10
ITEM: BOX BOUNDS pp pp pp
0.0000000000000000e+00 1.5000000000000000e+01
0.0000000000000000e+00 1.5000000000000000e+01
0.0000000000000000e+00 1.5000000000000000e+01
ITEM: ATOMS id type x y z
5 2 5.01532 8.05301 6.8312
8 2 8.47766 6.71574 8.98726
9 2 8.60318 8.12728 6.25436
1 1 6.1202 7.79934 6.87694
3 1 8.15509 7.18345 8.10158
2 1 6.76462 7.56817 8.07973
6 2 6.54091 7.67022 5.88448
4 1 9.00096 7.43469 7.07953
7 2 6.19772 7.6756 9.05088
10 2 10.044 7.06423 7.05409
ITEM: TIMESTEP
300
ITEM: NUMBER OF ATOMS
10
ITEM: BOX BOUNDS pp pp pp
0.0000000000000000e+00 1.5000000000000000e+01
0.0000000000000000e+00 1.5000000000000000e+01
0.0000000000000000e+00 1.5000000000000000e+01
ITEM: ATOMS id type x y z
5 2 5.02701 8.01203 7.0493
8 2 8.67523 6.98359 9.05101
9 2 8.51365 7.7746 6.10773
1 1 6.05549 7.76542 6.99744
3 1 8.22823 7.28869 8.08498
2 1 6.80584 7.5738 8.07802
6 2 6.54727 7.61113 6.00101
4 1 8.92774 7.37077 6.98137
7 2 6.31054 7.66758 9.01043
10 2 9.94654 7.17894 6.81864
ITEM: TIMESTEP
400
ITEM: NUMBER OF ATOMS
10
ITEM: BOX BOUNDS pp pp pp
0.0000000000000000e+00 1.5000000000000000e+01
0.0000000000000000e+00 1.5000000000000000e+01
0.0000000000000000e+00 1.5000000000000000e+01
ITEM: ATOMS id type x y z
5 2 4.94987 7.98654 7.092
8 2 8.863 7.12717 8.93895
9 2 8.40222 7.654 5.86201
1 1 6.03607 7.67303 7.10706
3 1 8.22918 7.35182 8.02466
2 1 6.82343 7.65173 8.17732
6 2 6.34416 7.4237 6.13651
4 1 8.9202 7.33573 6.82204
7 2 6.48231 7.79923 9.22025
10 2 10.0292 7.15547 6.85288
ITEM: TIMESTEP
500
ITEM: NUMBER OF ATOMS
10
ITEM: BOX BOUNDS pp pp pp
0.0000000000000000e+00 1.5000000000000000e+01
0.0000000000000000e+00 1.5000000000000000e+01
0.0000000000000000e+00 1.5000000000000000e+01
ITEM: ATOMS id type x y z
5 2 4.97729 7.8384 7.48914
8 2 8.85284 7.10632 8.80826
9 2 8.38839 7.72654 5.81987
1 1 5.9581 7.54736 7.24582
3 1 8.33509 7.37357 7.96154
2 1 6.9081 7.79665 8.16148
6 2 6.24436 7.02315 6.28197
4 1 8.82867 7.34409 6.74475
7 2 6.58915 8.12117 9.16346
10 2 9.89216 7.03442 6.64474
ITEM: TIMESTEP
600
ITEM: NUMBER OF ATOMS
10
ITEM: BOX BOUNDS pp pp pp
0.0000000000000000e+00 1.5000000000000000e+01
0.0000000000000000e+00 1.5000000000000000e+01
0.0000000000000000e+00 1.5000000000000000e+01
ITEM: ATOMS id type x y z
5 2 4.93062 7.85096 7.68534
8 2 9.02832 7.21643 8.80611
9 2 8.07238 7.68289 5.91337
1 1 5.94033 7.41149 7.42392
3 1 8.36266 7.40931 7.88179
2 1 6.99542 7.86346 8.14964
6 2 5.94995 6.66806 6.67173
4 1 8.80007 7.34125 6.63245
7 2 6.79566 8.54909 8.98275
10 2 9.75621 7.09953 6.30294
ITEM: TIMESTEP
700
ITEM: NUMBER OF ATOMS
10
ITEM: BOX BOUNDS pp pp pp
0.0000000000000000e+00 1.5000000000000000e+01
0.0000000000000000e+00 1.5000000000000000e+01
0.0000000000000000e+00 1.5000000000000000e+01
ITEM: ATOMS id type x y z
5 2 4.92206 7.4877 7.86631
8 2 9.18794 7.57226 8.56374
9 2 7.86598 7.30944 5.76118
1 1 5.98342 7.3848 7.6311
3 1 8.39865 7.61024 7.78391
2 1 7.02832 7.90064 8.20963
6 2 6.19131 6.64336 6.82533
4 1 8.63957 7.2431 6.47803
7 2 6.96704 8.49168 9.1321
10 2 9.68996 6.88285 6.12435
ITEM: TIMESTEP
800
ITEM: NUMBER OF ATOMS
10
ITEM: BOX BOUNDS pp pp pp
0.0000000000000000e+00 1.5000000000000000e+01
0.0000000000000000e+00 1.5000000000000000e+01
0.0000000000000000e+00 1.5000000000000000e+01
ITEM: ATOMS id type x y z
5 2 5.0141 7.47531 8.17409
8 2 9.25443 8.08188 8.10214
9 2 7.65516 6.7613 5.78908
1 1 5.99763 7.333 7.76732
3 1 8.39695 7.71283 7.6253
2 1 7.13649 7.89412 8.30358
6 2 6.12432 6.566 6.98182
4 1 8.54448 7.17693 6.42635
7 2 7.14778 8.5457 9.16148
10 2 9.47488 7.08855 5.9451
ITEM: TIMESTEP
900
ITEM: NUMBER OF ATOMS
10
ITEM: BOX BOUNDS pp pp pp
0.0000000000000000e+00 1.5000000000000000e+01
0.0000000000000000e+00 1.5000000000000000e+01
0.0000000000000000e+00 1.5000000000000000e+01
ITEM: ATOMS id type x y z
5 2 5.18697 7.36319 8.62435
8 2 9.31449 8.32123 7.97677
9 2 7.63963 6.68174 5.90867
1 1 6.03115 7.26664 7.93967
3 1 8.40174 7.80655 7.50832
2 1 7.18842 7.93218 8.23758
6 2 5.88993 6.50439 7.16692
4 1 8.46734 7.13222 6.3458
7 2 7.12081 8.55254 9.18218
10 2 9.44027 6.97136 5.84185
ITEM: TIMESTEP
1000
ITEM: NUMBER OF ATOMS
10
ITEM: BOX BOUNDS pp pp pp
0.0000000000000000e+00 1.5000000000000000e+01
0.0000000000000000e+00 1.5000000000000000e+01
0.0000000000000000e+00 1.5000000000000000e+01
ITEM: ATOMS id type x y z
5 2 5.26717 7.38127 8.79765
8 2 9.2958 8.32198 7.66589
9 2 7.53515 6.58163 5.86492
1 1 6.12316 7.21514 8.10264
3 1 8.3847 7.8251 7.43646
2 1 7.15835 7.9628 8.24428
6 2 6.06042 6.36966 7.4759
4 1 8.4067 7.13782 6.28032
7 2 7.19467 8.70628 8.99757
10 2 9.33334 7.01401 5.70485
ITEM: TIMESTEP
1100
ITEM: NUMBER OF ATOMS
10
ITEM: BOX BOUNDS pp pp pp
0.0000000000000000e+00 1.5000000000000000e+01
0.0000000000000000e+00 1.5000000000000000e+01
0.0000000000000000e+00 1.5000000000000000e+01
ITEM: ATOMS id type x y z
5 2 5.29429 7.23461 8.85023
8 2 9.32507 8.28714 7.6097
9 2 7.31879 6.69839 5.81985
1 1 6.21043 7.12691 8.31907
3 1 8.36584 7.80817 7.32753
2 1 7.21876 8.07211 8.23217
6 2 6.42074 6.08663 7.88112
4 1 8.27182 7.1356 6.17576
7 2 7.14288 9.05551 8.77582
10 2 9.22118 7.00099 5.62517
ITEM: TIMESTEP
1200
ITEM: NUMBER OF ATOMS
10
ITEM: BOX BOUNDS pp pp pp
0.0000000000000000e+00 1.5000000000000000e+01
0.0000000000000000e+00 1.5000000000000000e+01
0.0000000000000000e+00 1.5000000000000000e+01
ITEM: ATOMS id type x y z
5 2 5.53609 7.24485 9.15622
8 2 9.28773 8.35421 7.48232
9 2 7.14909 6.75363 5.91006
1 1 6.43137 7.04755 8.48193
3 1 8.3282 7.89097 7.18989
2 1 7.2022 8.10074 8.19371
6 2 6.74532 6.1169 8.14864
4 1 8.1078 7.10162 6.15603
7 2 7.10342 9.13565 8.5787
10 2 8.88487 6.7695 5.48367
ITEM: TIMESTEP
1300
ITEM: NUMBER OF ATOMS
10
ITEM: BOX BOUNDS pp pp pp
0.0000000000000000e+00 1.5000000000000000e+01
0.0000000000000000e+00 1.5000000000000000e+01
0.0000000000000000e+00 1.5000000000000000e+01
ITEM: ATOMS id type x y z
5 2 5.88324 7.15467 9.45754
8 2 9.00487 8.74021 6.95768
9 2 7.13209 6.38974 6.30186
1 1 6.56444 7.07357 8.64896
3 1 8.19866 8.01261 7.06722
2 1 7.31114 8.08018 8.18469
6 2 6.56225 6.01309 8.2462
4 1 8.03072 7.01029 6.10649
7 2 7.24712 9.00371 8.706
10 2 8.6647 6.8587 5.17557
ITEM: TIMESTEP
1400
ITEM: NUMBER OF ATOMS
10
ITEM: BOX BOUNDS pp pp pp
0.0000000000000000e+00 1.5000000000000000e+01
0.0000000000000000e+00 1.5000000000000000e+01
0.0000000000000000e+00 1.5000000000000000e+01
ITEM: ATOMS id type x y z
5 2 6.28461 7.13779 9.74524
8 2 8.67936 8.8241 6.58024
9 2 7.36333 6.02431 6.18467
1 1 6.73843 7.07856 8.75535
3 1 8.03935 8.00222 6.93517
2 1 7.3525 8.11636 8.19945
6 2 6.62913 6.13843 8.21925
4 1 7.92055 6.97624 6.13294
7 2 7.4801 9.05486 8.80585
10 2 8.3825 7.00025 5.21626
ITEM: TIMESTEP
1500
ITEM: NUMBER OF ATOMS
10
ITEM: BOX BOUNDS pp pp pp
0.0000000000000000e+00 1.5000000000000000e+01
0.0000000000000000e+00 1.5000000000000000e+01
0.0000000000000000e+00 1.5000000000000000e+01
ITEM: ATOMS id type x y z
5 2 6.52073 7.20908 9.90054
8 2 8.34297 8.91561 6.35202
9 2 7.4027 6.0199 6.45332
1 1 6.89726 7.03883 8.85746
3 1 7.91066 8.04441 6.84233
2 1 7.44333 8.15457 8.20559
6 2 6.73029 6.05428 8.42362
4 1 7.8209 6.91797 6.09315
7 2 7.52528 9.06825 8.76326
10 2 8.16911 7.01822 5.00503
ITEM: TIMESTEP
1600
ITEM: NUMBER OF ATOMS
10
ITEM: BOX BOUNDS pp pp pp
0.0000000000000000e+00 1.5000000000000000e+01
0.0000000000000000e+00 1.5000000000000000e+01
0.0000000000000000e+00 1.5000000000000000e+01
ITEM: ATOMS id type x y z
10 2 7.91167 6.78899 5.03851
7 2 7.59124 9.07434 8.71731
8 2 8.02804 9.04589 6.24934
9 2 7.3973 5.90374 6.60918
1 1 7.09981 7.09804 8.93305
3 1 7.75108 8.0891 6.72218
2 1 7.48604 8.07624 8.22493
6 2 6.90356 6.09606 8.533
4 1 7.7282 6.92252 6.08087
5 2 6.9014 7.19559 9.97541
ITEM: TIMESTEP
1700
ITEM: NUMBER OF ATOMS
10
ITEM: BOX BOUNDS pp pp pp
0.0000000000000000e+00 1.5000000000000000e+01
0.0000000000000000e+00 1.5000000000000000e+01
0.0000000000000000e+00 1.5000000000000000e+01
ITEM: ATOMS id type x y z
10 2 7.56224 6.87276 4.92422
7 2 7.75193 9.2149 8.53609
8 2 7.45545 8.89496 6.17191
9 2 7.61446 5.99756 6.60654
1 1 7.31677 7.10079 9.00382
3 1 7.53039 8.0074 6.76033
2 1 7.61158 8.19509 8.18547
6 2 7.04392 6.19689 8.47584
4 1 7.60683 6.84727 6.06102
5 2 7.3026 7.13961 10.1106
ITEM: TIMESTEP
1800
ITEM: NUMBER OF ATOMS
10
ITEM: BOX BOUNDS pp pp pp
0.0000000000000000e+00 1.5000000000000000e+01
0.0000000000000000e+00 1.5000000000000000e+01
0.0000000000000000e+00 1.5000000000000000e+01
ITEM: ATOMS id type x y z
10 2 7.23171 6.69064 5.13486
7 2 8.14254 9.1446 8.40437
8 2 6.76482 8.93626 6.3009
9 2 7.95866 5.94256 6.5821
1 1 7.57244 7.16476 8.98324
3 1 7.25714 7.98147 6.71137
2 1 7.70758 8.17416 8.12211
6 2 7.02172 6.30056 8.69744
4 1 7.47888 6.84559 6.13801
5 2 7.90828 7.20951 10.041
ITEM: TIMESTEP
1900
ITEM: NUMBER OF ATOMS
10
ITEM: BOX BOUNDS pp pp pp
0.0000000000000000e+00 1.5000000000000000e+01
0.0000000000000000e+00 1.5000000000000000e+01
0.0000000000000000e+00 1.5000000000000000e+01
ITEM: ATOMS id type x y z
10 2 6.83475 6.48497 5.10733
7 2 8.0821 9.18864 8.35118
8 2 6.52297 8.74197 6.31233
9 2 8.03396 6.0757 6.60622
1 1 7.821 7.19944 8.97286
3 1 7.15573 8.01527 6.79463
2 1 7.73573 8.18712 8.06988
6 2 7.31351 6.18369 8.88374
4 1 7.30321 6.7846 6.11504
5 2 8.24265 7.42646 9.91374
ITEM: TIMESTEP
2000
ITEM: NUMBER OF ATOMS
10
ITEM: BOX BOUNDS pp pp pp
0.0000000000000000e+00 1.5000000000000000e+01
0.0000000000000000e+00 1.5000000000000000e+01
0.0000000000000000e+00 1.5000000000000000e+01
ITEM: ATOMS id type x y z
7 2 7.7905 9.20766 8.47422
8 2 6.57034 8.76282 6.26002
9 2 7.71779 5.92811 6.55785
1 1 8.0627 7.25795 8.90181
3 1 7.10288 7.94959 6.75149
2 1 7.69318 8.21393 8.0622
6 2 7.83552 6.24344 8.79586
4 1 7.14099 6.7539 6.21992
5 2 8.56805 7.45627 9.87755
10 2 6.6433 6.56951 5.31092
ITEM: TIMESTEP
2100
ITEM: NUMBER OF ATOMS
10
ITEM: BOX BOUNDS pp pp pp
0.0000000000000000e+00 1.5000000000000000e+01
0.0000000000000000e+00 1.5000000000000000e+01
0.0000000000000000e+00 1.5000000000000000e+01
ITEM: ATOMS id type x y z
7 2 7.64485 9.33327 8.39152
8 2 6.48322 8.70839 6.18402
9 2 7.53351 5.84005 6.66369
1 1 8.30125 7.28317 8.8367
3 1 7.02037 7.91712 6.82551
2 1 7.67855 8.27496 8.07726
6 2 8.1115 6.19036 8.5824
4 1 6.99362 6.6976 6.27289
5 2 8.89297 7.56863 9.71051
10 2 6.49521 6.54225 5.28267
ITEM: TIMESTEP
2200
ITEM: NUMBER OF ATOMS
10
ITEM: BOX BOUNDS pp pp pp
0.0000000000000000e+00 1.5000000000000000e+01
0.0000000000000000e+00 1.5000000000000000e+01
0.0000000000000000e+00 1.5000000000000000e+01
ITEM: ATOMS id type x y z
7 2 7.65881 9.23911 8.43198
8 2 6.32801 8.70277 6.50643
9 2 7.56957 5.87375 6.80055
1 1 8.47248 7.379 8.67673
3 1 6.87473 7.91282 6.83761
2 1 7.76801 8.23978 8.04476
6 2 8.53313 6.34126 8.45094
4 1 6.85978 6.63682 6.36765
5 2 8.95993 7.63318 9.61822
10 2 6.2246 6.41947 5.52039
ITEM: TIMESTEP
2300
ITEM: NUMBER OF ATOMS
10
ITEM: BOX BOUNDS pp pp pp
0.0000000000000000e+00 1.5000000000000000e+01
0.0000000000000000e+00 1.5000000000000000e+01
0.0000000000000000e+00 1.5000000000000000e+01
ITEM: ATOMS id type x y z
7 2 7.66108 9.33209 8.31254
8 2 6.06739 8.65564 6.64565
9 2 7.37896 5.89743 6.86583
1 1 8.74971 7.45203 8.4677
3 1 6.74524 7.82345 7.05418
2 1 7.74496 8.24802 7.97928
6 2 8.79499 6.40485 8.18287
4 1 6.7014 6.62068 6.49888
5 2 9.40568 7.83737 9.28511
10 2 6.16806 6.22754 5.59676
ITEM: TIMESTEP
2400
ITEM: NUMBER OF ATOMS
10
ITEM: BOX BOUNDS pp pp pp
0.0000000000000000e+00 1.5000000000000000e+01
0.0000000000000000e+00 1.5000000000000000e+01
0.0000000000000000e+00 1.5000000000000000e+01
ITEM: ATOMS id type x y z
7 2 7.65667 9.27493 8.36337
8 2 5.87645 8.47288 6.92301
9 2 7.39676 5.75391 6.82151
1 1 8.88079 7.5687 8.20029
3 1 6.68464 7.75492 7.16861
2 1 7.77082 8.31659 7.93642
6 2 8.97012 6.57145 7.73932
4 1 6.62834 6.54166 6.69418
5 2 9.65416 7.74243 8.9454
10 2 5.78235 6.31317 6.09937
ITEM: TIMESTEP
2500
ITEM: NUMBER OF ATOMS
10
ITEM: BOX BOUNDS pp pp pp
0.0000000000000000e+00 1.5000000000000000e+01
0.0000000000000000e+00 1.5000000000000000e+01
0.0000000000000000e+00 1.5000000000000000e+01
ITEM: ATOMS id type x y z
7 2 7.71077 9.23339 8.5075
8 2 5.81667 8.44372 6.99023
9 2 7.32654 5.71026 6.9781
1 1 8.97183 7.633 7.92199
3 1 6.61182 7.7976 7.28797
2 1 7.80855 8.25995 7.97205
6 2 9.2131 6.66203 7.44315
4 1 6.54767 6.47203 6.84723
5 2 9.77815 8.07745 8.47869
10 2 5.63954 6.11771 6.3159
ITEM: TIMESTEP
2600
ITEM: NUMBER OF ATOMS
10
ITEM: BOX BOUNDS pp pp pp
0.0000000000000000e+00 1.5000000000000000e+01
0.0000000000000000e+00 1.5000000000000000e+01
0.0000000000000000e+00 1.5000000000000000e+01
ITEM: ATOMS id type x y z
7 2 7.88085 9.03958 8.73051
8 2 5.80537 8.48903 7.00799
9 2 7.30813 5.79736 7.26977
1 1 9.02904 7.72567 7.67471
3 1 6.5918 7.72706 7.33993
2 1 7.81348 8.21556 7.97982
6 2 9.20423 6.90914 7.00565
4 1 6.47364 6.45946 7.0344
5 2 9.88917 8.19811 8.1398
10 2 5.58842 6.02025 6.56212
ITEM: TIMESTEP
2700
ITEM: NUMBER OF ATOMS
10
ITEM: BOX BOUNDS pp pp pp
0.0000000000000000e+00 1.5000000000000000e+01
0.0000000000000000e+00 1.5000000000000000e+01
0.0000000000000000e+00 1.5000000000000000e+01
ITEM: ATOMS id type x y z
7 2 7.85785 8.95699 8.76211
8 2 5.75776 8.35152 7.20834
9 2 7.32761 5.75391 7.26499
1 1 9.03884 7.78758 7.47679
3 1 6.55698 7.70843 7.42721
2 1 7.87273 8.27246 7.95745
6 2 8.983 7.03173 6.6694
4 1 6.46329 6.41446 7.18448
5 2 10.0524 8.07099 7.8854
10 2 5.55438 5.95737 6.82315
ITEM: TIMESTEP
2800
ITEM: NUMBER OF ATOMS
10
ITEM: BOX BOUNDS pp pp pp
0.0000000000000000e+00 1.5000000000000000e+01
0.0000000000000000e+00 1.5000000000000000e+01
0.0000000000000000e+00 1.5000000000000000e+01
ITEM: ATOMS id type x y z
7 2 7.85439 9.24092 8.55764
8 2 5.66319 8.29673 7.63518
9 2 7.35944 5.70476 7.09135
1 1 9.00002 7.79246 7.32649
3 1 6.59636 7.66556 7.64722
2 1 7.90759 8.33256 7.85927
6 2 8.87869 6.92783 6.66409
4 1 6.47946 6.35077 7.24904
5 2 10.0171 8.15931 7.5003
10 2 5.45059 6.04231 6.94831
ITEM: TIMESTEP
2900
ITEM: NUMBER OF ATOMS
10
ITEM: BOX BOUNDS pp pp pp
0.0000000000000000e+00 1.5000000000000000e+01
0.0000000000000000e+00 1.5000000000000000e+01
0.0000000000000000e+00 1.5000000000000000e+01
ITEM: ATOMS id type x y z
7 2 8.0126 9.19133 8.27257
8 2 5.79445 8.2483 8.22317
9 2 7.27781 5.87581 6.89901
1 1 8.98227 7.81813 7.13586
3 1 6.60535 7.62673 7.81784
2 1 7.8775 8.30227 7.72537
6 2 9.06897 6.95068 6.54892
4 1 6.45581 6.37613 7.39562
5 2 9.90883 8.35405 7.27135
10 2 5.53575 5.86028 7.22581
ITEM: TIMESTEP
3000
ITEM: NUMBER OF ATOMS
10
ITEM: BOX BOUNDS pp pp pp
0.0000000000000000e+00 1.5000000000000000e+01
0.0000000000000000e+00 1.5000000000000000e+01
0.0000000000000000e+00 1.5000000000000000e+01
ITEM: ATOMS id type x y z
7 2 8.01915 9.30444 8.16463
8 2 6.01496 8.02171 8.62071
9 2 7.08084 5.82583 6.8055
1 1 8.87562 7.89656 6.87951
3 1 6.73742 7.57333 7.96853
2 1 7.88299 8.31315 7.69113
6 2 8.90755 6.81562 6.367
4 1 6.47674 6.35124 7.56191
5 2 9.80026 8.54477 6.71115
10 2 5.46467 5.90197 7.61353
ITEM: TIMESTEP
3100
ITEM: NUMBER OF ATOMS
10
ITEM: BOX BOUNDS pp pp pp
0.0000000000000000e+00 1.5000000000000000e+01
0.0000000000000000e+00 1.5000000000000000e+01
0.0000000000000000e+00 1.5000000000000000e+01
ITEM: ATOMS id type x y z
7 2 8.05626 9.33901 8.11974
8 2 6.23641 7.91646 9.00143
9 2 6.87378 5.84822 6.72091
1 1 8.73631 7.91733 6.67974
3 1 6.81696 7.5402 8.12957
2 1 7.92925 8.37314 7.61242
6 2 8.64437 6.92283 6.29713
4 1 6.53245 6.30926 7.63643
5 2 9.56375 8.44881 6.27403
10 2 5.6596 5.90509 8.12683
ITEM: TIMESTEP
3200
ITEM: NUMBER OF ATOMS
10
ITEM: BOX BOUNDS pp pp pp
0.0000000000000000e+00 1.5000000000000000e+01
0.0000000000000000e+00 1.5000000000000000e+01
0.0000000000000000e+00 1.5000000000000000e+01
ITEM: ATOMS id type x y z
7 2 8.08083 9.36624 7.89164
8 2 6.5261 7.83897 9.27077
9 2 6.77399 6.17241 6.71562
1 1 8.65334 7.90665 6.49404
3 1 6.93972 7.51459 8.31144
2 1 7.90557 8.35595 7.54656
6 2 8.67222 6.85476 6.18445
4 1 6.49935 6.34223 7.74968
5 2 9.2593 8.64647 5.98106
10 2 5.8237 5.62467 8.23516
ITEM: TIMESTEP
3300
ITEM: NUMBER OF ATOMS
10
ITEM: BOX BOUNDS pp pp pp
0.0000000000000000e+00 1.5000000000000000e+01
0.0000000000000000e+00 1.5000000000000000e+01
0.0000000000000000e+00 1.5000000000000000e+01
ITEM: ATOMS id type x y z
7 2 7.94269 9.46903 7.68652
8 2 7.09161 7.71556 9.40375
9 2 6.4488 6.3386 6.72971
1 1 8.52239 7.93897 6.42991
3 1 7.11768 7.40564 8.35917
2 1 7.85132 8.36684 7.47692
6 2 8.64443 6.80649 6.27783
4 1 6.49199 6.40448 7.84707
5 2 9.04765 8.61547 5.68011
10 2 6.0485 5.57932 8.4326
ITEM: TIMESTEP
3400
ITEM: NUMBER OF ATOMS
10
ITEM: BOX BOUNDS pp pp pp
0.0000000000000000e+00 1.5000000000000000e+01
0.0000000000000000e+00 1.5000000000000000e+01
0.0000000000000000e+00 1.5000000000000000e+01
ITEM: ATOMS id type x y z
7 2 7.85565 9.36689 7.86676
8 2 7.37684 7.6128 9.437
9 2 6.29476 6.16694 6.92783
1 1 8.36564 7.93846 6.27049
3 1 7.29327 7.44034 8.36014
2 1 7.86188 8.39197 7.45227
6 2 8.43997 6.91701 6.11784
4 1 6.51059 6.37602 7.95197
5 2 8.85456 8.58229 5.59539
10 2 6.11392 5.69331 8.73487
ITEM: TIMESTEP
3500
ITEM: NUMBER OF ATOMS
10
ITEM: BOX BOUNDS pp pp pp
0.0000000000000000e+00 1.5000000000000000e+01
0.0000000000000000e+00 1.5000000000000000e+01
0.0000000000000000e+00 1.5000000000000000e+01
ITEM: ATOMS id type x y z
7 2 8.1418 9.33662 7.78697
8 2 7.48598 7.81504 9.47128
9 2 6.47759 6.03537 7.0124
1 1 8.07556 7.98805 6.16931
3 1 7.37949 7.43475 8.42268
2 1 7.9383 8.29462 7.43197
6 2 7.98208 6.93901 5.76956
4 1 6.65163 6.38438 8.06959
5 2 8.5792 8.63898 5.442
10 2 6.18752 5.84421 8.84544
ITEM: TIMESTEP
3600
ITEM: NUMBER OF ATOMS
10
ITEM: BOX BOUNDS pp pp pp
0.0000000000000000e+00 1.5000000000000000e+01
0.0000000000000000e+00 1.5000000000000000e+01
0.0000000000000000e+00 1.5000000000000000e+01
ITEM: ATOMS id type x y z
7 2 8.56197 9.1921 7.5763
8 2 7.74703 7.70162 9.43398
9 2 6.4363 6.12202 7.24194
1 1 7.80586 7.99172 6.05578
3 1 7.48397 7.4954 8.43535
2 1 7.96958 8.31176 7.40564
6 2 7.35612 7.05052 5.67306
4 1 6.7669 6.37155 8.23542
5 2 8.41094 8.58954 5.26601
10 2 6.45384 5.54164 8.90459
ITEM: TIMESTEP
3700
ITEM: NUMBER OF ATOMS
10
ITEM: BOX BOUNDS pp pp pp
0.0000000000000000e+00 1.5000000000000000e+01
0.0000000000000000e+00 1.5000000000000000e+01
0.0000000000000000e+00 1.5000000000000000e+01
ITEM: ATOMS id type x y z
7 2 8.74901 9.14051 7.29973
8 2 8.01207 7.70568 9.46704
9 2 6.42839 6.04633 7.39275
1 1 7.53614 8.04892 6.05972
3 1 7.68567 7.40579 8.42601
2 1 8.06098 8.28391 7.22754
6 2 7.01366 7.15892 5.91906
4 1 6.84652 6.37635 8.34486
5 2 7.58095 8.61574 5.2156
10 2 6.564 5.86302 9.24598
ITEM: TIMESTEP
3800
ITEM: NUMBER OF ATOMS
10
ITEM: BOX BOUNDS pp pp pp
0.0000000000000000e+00 1.5000000000000000e+01
0.0000000000000000e+00 1.5000000000000000e+01
0.0000000000000000e+00 1.5000000000000000e+01
ITEM: ATOMS id type x y z
7 2 8.95287 8.86584 7.14775
8 2 8.43883 7.64448 9.32414
9 2 6.33764 6.1091 7.57847
1 1 7.26738 8.04766 6.03528
3 1 7.84497 7.44218 8.41833
2 1 8.02132 8.25472 7.14253
6 2 6.40879 7.26385 6.03016
4 1 6.96558 6.39952 8.45495
5 2 7.50322 8.66555 5.10932
10 2 6.88717 5.80673 9.39262
ITEM: TIMESTEP
3900
ITEM: NUMBER OF ATOMS
10
ITEM: BOX BOUNDS pp pp pp
0.0000000000000000e+00 1.5000000000000000e+01
0.0000000000000000e+00 1.5000000000000000e+01
0.0000000000000000e+00 1.5000000000000000e+01
ITEM: ATOMS id type x y z
7 2 8.93987 8.6452 6.83189
8 2 8.60963 7.81154 9.10616
9 2 6.50206 6.0311 7.7282
1 1 7.07929 8.09123 6.12071
3 1 7.91487 7.42428 8.35705
2 1 8.03639 8.1448 7.06323
6 2 6.14064 7.56171 6.19606
4 1 7.08999 6.42456 8.51592
5 2 7.25769 8.6571 5.17541
10 2 6.95089 6.0041 9.50982
ITEM: TIMESTEP
4000
ITEM: NUMBER OF ATOMS
10
ITEM: BOX BOUNDS pp pp pp
0.0000000000000000e+00 1.5000000000000000e+01
0.0000000000000000e+00 1.5000000000000000e+01
0.0000000000000000e+00 1.5000000000000000e+01
ITEM: ATOMS id type x y z
7 2 9.05377 8.36313 6.52154
8 2 8.60865 7.89933 9.07906
9 2 6.62984 5.86382 7.80454
1 1 6.93811 8.16171 6.21683
3 1 7.97577 7.48851 8.24961
2 1 8.02572 8.0334 6.96037
6 2 5.9777 7.86092 6.62082
4 1 7.21234 6.41417 8.57594
5 2 6.93901 8.51918 5.23866
10 2 7.00336 6.12688 9.60788
ITEM: TIMESTEP
4100
ITEM: NUMBER OF ATOMS
10
ITEM: BOX BOUNDS pp pp pp
0.0000000000000000e+00 1.5000000000000000e+01
0.0000000000000000e+00 1.5000000000000000e+01
0.0000000000000000e+00 1.5000000000000000e+01
ITEM: ATOMS id type x y z
7 2 8.88811 8.19237 6.3732
8 2 8.8911 7.73482 8.86566
9 2 6.4793 6.04627 7.97466
1 1 6.7901 8.13157 6.30989
3 1 8.10773 7.48976 8.21871
2 1 7.99512 8.01455 6.89388
6 2 5.83884 7.99476 6.84529
4 1 7.28001 6.4992 8.57959
5 2 6.64852 8.29598 5.20296
10 2 7.34034 6.14534 9.61481
ITEM: TIMESTEP
4200
ITEM: NUMBER OF ATOMS
10
ITEM: BOX BOUNDS pp pp pp
0.0000000000000000e+00 1.5000000000000000e+01
0.0000000000000000e+00 1.5000000000000000e+01
0.0000000000000000e+00 1.5000000000000000e+01
ITEM: ATOMS id type x y z
7 2 8.69558 8.49578 6.15381
8 2 9.29291 7.58121 8.45843
9 2 6.35921 6.38316 8.43181
1 1 6.62128 8.10869 6.38339
3 1 8.2542 7.31331 8.01515
2 1 7.94177 7.96489 6.78472
6 2 5.74932 7.62682 6.9081
4 1 7.35008 6.63976 8.76823
5 2 6.36141 8.63564 5.46009
10 2 7.66162 6.3375 9.7678
ITEM: TIMESTEP
4300
ITEM: NUMBER OF ATOMS
10
ITEM: BOX BOUNDS pp pp pp
0.0000000000000000e+00 1.5000000000000000e+01
0.0000000000000000e+00 1.5000000000000000e+01
0.0000000000000000e+00 1.5000000000000000e+01
ITEM: ATOMS id type x y z
7 2 8.5179 8.37546 5.9537
8 2 9.38519 7.17649 8.00929
9 2 6.47255 6.95802 8.94484
1 1 6.49886 8.06045 6.45623
3 1 8.325 7.25981 7.88481
2 1 7.75542 7.96774 6.71608
6 2 5.75739 7.61756 7.04573
4 1 7.57133 6.78951 8.89796
5 2 6.20376 8.53209 5.54812
10 2 7.88358 6.09538 9.65689
ITEM: TIMESTEP
4400
ITEM: NUMBER OF ATOMS
10
ITEM: BOX BOUNDS pp pp pp
0.0000000000000000e+00 1.5000000000000000e+01
0.0000000000000000e+00 1.5000000000000000e+01
0.0000000000000000e+00 1.5000000000000000e+01
ITEM: ATOMS id type x y z
7 2 8.33687 8.46793 6.02369
8 2 9.36181 6.80228 7.60532
9 2 6.77269 7.44877 9.14912
1 1 6.38408 8.00691 6.52031
3 1 8.32952 7.14164 7.79332
2 1 7.71797 7.93878 6.67462
6 2 5.69332 7.37656 7.13364
4 1 7.70585 6.95807 8.94883
5 2 5.90253 8.65683 5.73254
10 2 8.23226 6.19521 9.62218
ITEM: TIMESTEP
4500
ITEM: NUMBER OF ATOMS
10
ITEM: BOX BOUNDS pp pp pp
0.0000000000000000e+00 1.5000000000000000e+01
0.0000000000000000e+00 1.5000000000000000e+01
0.0000000000000000e+00 1.5000000000000000e+01
ITEM: ATOMS id type x y z
7 2 8.38658 8.51716 6.02642
8 2 9.26753 6.5009 7.40949
9 2 7.05655 7.71327 9.2932
1 1 6.27731 7.96009 6.63716
3 1 8.33062 7.07501 7.68365
2 1 7.6299 7.89976 6.62245
6 2 5.71987 7.25165 7.28677
4 1 7.8672 7.07054 8.92531
5 2 5.75846 8.7003 5.98233
10 2 8.30482 6.50427 9.6794
ITEM: TIMESTEP
4600
ITEM: NUMBER OF ATOMS
10
ITEM: BOX BOUNDS pp pp pp
0.0000000000000000e+00 1.5000000000000000e+01
0.0000000000000000e+00 1.5000000000000000e+01
0.0000000000000000e+00 1.5000000000000000e+01
ITEM: ATOMS id type x y z
7 2 7.97567 8.13667 5.68485
8 2 9.16799 6.56785 7.25844
9 2 7.20532 7.78818 9.25577
1 1 6.24756 7.99046 6.76461
3 1 8.34569 7.13871 7.6023
2 1 7.5564 7.78823 6.58923
6 2 5.78419 7.69277 7.67548
4 1 7.98369 7.11134 8.92414
5 2 5.59415 8.3811 6.06822
10 2 8.5966 6.48098 9.66461
ITEM: TIMESTEP
4700
ITEM: NUMBER OF ATOMS
10
ITEM: BOX BOUNDS pp pp pp
0.0000000000000000e+00 1.5000000000000000e+01
0.0000000000000000e+00 1.5000000000000000e+01
0.0000000000000000e+00 1.5000000000000000e+01
ITEM: ATOMS id type x y z
7 2 7.65912 7.76345 5.52102
8 2 9.35661 6.71759 7.19372
9 2 7.24808 7.62537 9.27933
1 1 6.18418 8.02814 6.92997
3 1 8.36717 7.09535 7.51135
2 1 7.41013 7.60557 6.59811
6 2 5.7056 8.10018 7.9397
4 1 8.17459 7.18218 8.82419
5 2 5.51031 8.52236 6.12115
10 2 8.82784 7.02356 9.65238
ITEM: TIMESTEP
4800
ITEM: NUMBER OF ATOMS
10
ITEM: BOX BOUNDS pp pp pp
0.0000000000000000e+00 1.5000000000000000e+01
0.0000000000000000e+00 1.5000000000000000e+01
0.0000000000000000e+00 1.5000000000000000e+01
ITEM: ATOMS id type x y z
7 2 7.29389 7.21061 5.5238
8 2 9.27899 6.69718 7.05851
9 2 7.50835 7.7188 9.3328
1 1 6.12408 8.03866 7.0427
3 1 8.37043 7.14962 7.44976
2 1 7.28739 7.50468 6.56758
6 2 6.0864 8.44539 8.0691
4 1 8.29794 7.28778 8.79682
5 2 5.30117 8.2673 6.42121
10 2 9.17617 6.99628 9.3424
ITEM: TIMESTEP
4900
ITEM: NUMBER OF ATOMS
10
ITEM: BOX BOUNDS pp pp pp
0.0000000000000000e+00 1.5000000000000000e+01
0.0000000000000000e+00 1.5000000000000000e+01
0.0000000000000000e+00 1.5000000000000000e+01
ITEM: ATOMS id type x y z
7 2 7.03485 6.7698 5.70033
8 2 9.24344 6.86819 6.82698
9 2 7.60496 7.66899 9.41458
1 1 6.11168 8.07994 7.14625
3 1 8.3647 7.1757 7.38446
2 1 7.08459 7.34075 6.62676
6 2 6.24756 8.6964 7.98862
4 1 8.48418 7.353 8.71302
5 2 5.19668 8.2566 6.5594
10 2 9.52566 7.26368 9.17613
ITEM: TIMESTEP
5000
ITEM: NUMBER OF ATOMS
10
ITEM: BOX BOUNDS pp pp pp
0.0000000000000000e+00 1.5000000000000000e+01
0.0000000000000000e+00 1.5000000000000000e+01
0.0000000000000000e+00 1.5000000000000000e+01
ITEM: ATOMS id type x y z
7 2 6.71355 6.52463 5.9728
8 2 9.14066 6.98733 6.55409
9 2 7.73109 7.54281 9.20272
1 1 6.09835 8.10904 7.19287
3 1 8.39136 7.18316 7.32027
2 1 6.99823 7.23629 6.78879
6 2 6.39941 8.90117 7.97403
4 1 8.59028 7.40207 8.60218
5 2 5.11032 8.15091 6.69823
10 2 9.55965 7.52983 9.06248
ITEM: TIMESTEP
5100
ITEM: NUMBER OF ATOMS
10
ITEM: BOX BOUNDS pp pp pp
0.0000000000000000e+00 1.5000000000000000e+01
0.0000000000000000e+00 1.5000000000000000e+01
0.0000000000000000e+00 1.5000000000000000e+01
ITEM: ATOMS id type x y z
7 2 6.65208 6.45641 6.10515
8 2 9.12482 6.76479 6.53296
9 2 7.84475 7.79822 9.11446
1 1 6.06943 8.11846 7.29893
3 1 8.36596 7.159 7.24771
2 1 6.95078 7.1763 6.82411
6 2 6.35397 8.86409 7.96407
4 1 8.68982 7.50635 8.50291
5 2 5.01197 8.06754 7.03156
10 2 9.68045 7.50828 8.89882
ITEM: TIMESTEP
5200
ITEM: NUMBER OF ATOMS
10
ITEM: BOX BOUNDS pp pp pp
0.0000000000000000e+00 1.5000000000000000e+01
0.0000000000000000e+00 1.5000000000000000e+01
0.0000000000000000e+00 1.5000000000000000e+01
ITEM: ATOMS id type x y z
7 2 6.57713 6.48892 5.98048
8 2 8.97008 6.56448 6.60141
9 2 8.25476 8.24518 9.2034
1 1 6.08035 8.02725 7.39509
3 1 8.28059 7.08116 7.24272
2 1 6.85952 7.12311 6.87229
6 2 6.54552 8.67626 8.21269
4 1 8.75648 7.69655 8.34524
5 2 5.02105 8.1348 7.26818
10 2 9.89385 7.54191 8.49072
ITEM: TIMESTEP
5300
ITEM: NUMBER OF ATOMS
10
ITEM: BOX BOUNDS pp pp pp
0.0000000000000000e+00 1.5000000000000000e+01
0.0000000000000000e+00 1.5000000000000000e+01
0.0000000000000000e+00 1.5000000000000000e+01
ITEM: ATOMS id type x y z
7 2 6.38932 6.4825 6.24939
8 2 8.83213 6.28935 6.65571
9 2 8.34564 8.49989 8.6841
1 1 6.05161 8.01438 7.60394
3 1 8.22897 7.01116 7.20791
2 1 6.86442 7.09348 6.9753
6 2 6.29681 8.7552 8.36697
4 1 8.91997 7.81088 8.07398
5 2 4.94699 7.90702 7.44872
10 2 9.92324 7.70667 8.31733
ITEM: TIMESTEP
5400
ITEM: NUMBER OF ATOMS
10
ITEM: BOX BOUNDS pp pp pp
0.0000000000000000e+00 1.5000000000000000e+01
0.0000000000000000e+00 1.5000000000000000e+01
0.0000000000000000e+00 1.5000000000000000e+01
ITEM: ATOMS id type x y z
7 2 6.22669 6.4309 6.43285
8 2 8.72059 6.1011 6.68197
9 2 8.55174 8.74745 8.35251
1 1 6.03619 7.94387 7.76495
3 1 8.2526 6.96906 7.22812
2 1 6.80657 7.09209 7.10751
6 2 6.37114 8.63497 8.50672
4 1 8.94237 7.91683 7.78813
5 2 4.99594 7.92393 7.60533
10 2 10.0315 7.85056 7.97739
ITEM: TIMESTEP
5500
ITEM: NUMBER OF ATOMS
10
ITEM: BOX BOUNDS pp pp pp
0.0000000000000000e+00 1.5000000000000000e+01
0.0000000000000000e+00 1.5000000000000000e+01
0.0000000000000000e+00 1.5000000000000000e+01
ITEM: ATOMS id type x y z
7 2 6.26496 6.2622 6.44716
8 2 8.71542 6.08988 7.0442
9 2 8.54243 9.05053 7.84718
1 1 6.08516 7.8902 7.94576
3 1 8.19044 6.96928 7.24362
2 1 6.71273 7.02 7.14364
6 2 6.67571 8.4561 8.69645
4 1 8.99365 8.04101 7.54513
5 2 4.96711 8.06126 7.91286
10 2 10.0665 7.77715 7.67224
ITEM: TIMESTEP
5600
ITEM: NUMBER OF ATOMS
10
ITEM: BOX BOUNDS pp pp pp
0.0000000000000000e+00 1.5000000000000000e+01
0.0000000000000000e+00 1.5000000000000000e+01
0.0000000000000000e+00 1.5000000000000000e+01
ITEM: ATOMS id type x y z
7 2 6.19549 6.39351 6.59801
8 2 8.65367 5.86863 7.15666
9 2 8.47424 9.00829 7.45072
1 1 6.10945 7.87431 8.07785
3 1 8.24496 6.94793 7.22719
2 1 6.71156 7.01056 7.27156
6 2 6.73077 8.39301 8.8024
4 1 8.93377 8.07211 7.33314
5 2 5.05923 8.06675 8.04414
10 2 10.0122 8.06032 7.37859
ITEM: TIMESTEP
5700
ITEM: NUMBER OF ATOMS
10
ITEM: BOX BOUNDS pp pp pp
0.0000000000000000e+00 1.5000000000000000e+01
0.0000000000000000e+00 1.5000000000000000e+01
0.0000000000000000e+00 1.5000000000000000e+01
ITEM: ATOMS id type x y z
7 2 6.09668 6.13329 6.97042
8 2 8.65196 5.97728 7.00385
9 2 8.31509 8.96839 7.38847
1 1 6.15319 7.92029 8.16801
3 1 8.19468 6.95459 7.11076
2 1 6.76604 6.97601 7.41131
6 2 6.66038 8.70835 8.70687
4 1 8.94096 8.06015 7.21217
5 2 5.03303 7.81606 8.28265
10 2 10.0377 8.15036 7.12327
ITEM: TIMESTEP
5800
ITEM: NUMBER OF ATOMS
10
ITEM: BOX BOUNDS pp pp pp
0.0000000000000000e+00 1.5000000000000000e+01
0.0000000000000000e+00 1.5000000000000000e+01
0.0000000000000000e+00 1.5000000000000000e+01
ITEM: ATOMS id type x y z
7 2 6.24616 6.0445 7.45222
8 2 8.64061 6.06907 6.75229