LAMMPS (2 Aug 2023 - Update 2)
#13 Butadiene
units           metal
boundary        p p p
atom_style      atomic

neighbor        2.0 bin
neigh_modify    delay 0 every 1 check yes

read_data       restart.lmp
Reading data file ...
  orthogonal box = (0 0 0) to (15 15 15)
  1 by 1 by 3 MPI processor grid
  reading atoms ...
  10 atoms
  reading velocities ...
  10 velocities
  read_data CPU = 0.001 seconds
mass            1 12.0
mass            2 2

variable        sysvol          equal vol
variable        sysmass         equal mass(all)/6.0221367e+23
variable        sysdensity      equal v_sysmass/v_sysvol/1.0e-24
variable	out_freq 	equal 100

pair_style      deepmd ../files/frozen_model_1_compressed.pb ../files/frozen_model_2_compressed.pb ../files/frozen_model_3_compressed.pb ../files/frozen_model_3_compressed.pb out_file md.out out_freq 10 atomic relative 1.0
Summary of lammps deepmd module ...
  >>> Info of deepmd-kit:
  installed to:       /rs1/researchers/w/wjpfaend/rahul/MLP/DeePMD-kit/deepmd_cpu
  source:             v2.2.8-dirty
  source branch:      master
  source commit:      b875ea8
  source commit at:   2024-01-22 22:28:58 -0500
  support model ver.: 1.1 
  build variant:      cpu
  build with tf inc:  /rs1/researchers/w/wjpfaend/rahul/MLP/DeePMD-kit/tensorflow/lib/python3.11/site-packages/tensorflow/include;/rs1/researchers/w/wjpfaend/rahul/MLP/DeePMD-kit/tensorflow/lib/python3.11/site-packages/tensorflow/include
  build with tf lib:  /rs1/researchers/w/wjpfaend/rahul/MLP/DeePMD-kit/tensorflow/lib/python3.11/site-packages/tensorflow/libtensorflow_cc.so.2
  set tf intra_op_parallelism_threads: 0
  set tf inter_op_parallelism_threads: 0
  >>> Info of lammps module:
  use deepmd-kit at:  /rs1/researchers/w/wjpfaend/rahul/MLP/DeePMD-kit/deepmd_cpu
  source:             v2.2.8-dirty
  source branch:      master
  source commit:      b875ea8
  source commit at:   2024-01-22 22:28:58 -0500
  build float prec:   double
  build with tf inc:  /rs1/researchers/w/wjpfaend/rahul/MLP/DeePMD-kit/tensorflow/lib/python3.11/site-packages/tensorflow/include;/rs1/researchers/w/wjpfaend/rahul/MLP/DeePMD-kit/tensorflow/lib/python3.11/site-packages/tensorflow/include
  build with tf lib:  /rs1/researchers/w/wjpfaend/rahul/MLP/DeePMD-kit/tensorflow/lib/python3.11/site-packages/tensorflow/libtensorflow_cc.so.2
pair_coeff	* *

#
velocity        all create 300.0 2345678 rot no dist gaussian
fix             1 all nvt temp 300.0 300.0 0.05
fix             2 all plumed plumedfile plumed.dat outfile PLUMED.log

timestep        0.0005
thermo_style    custom step pe ke etotal v_sysdensity temp press vol
thermo          10

dump            10 all custom 100 btd.dump id type x y z
dump		101 all xyz 20 btd.xyz
dump_modify	101 element C H

fix		extra all print 20 "$(step), $(ke), $(pe), $(etotal), $(temp), $(press), $(vol)" file logfile screen no

restart	        20000 dump.restart

run             50000

CITE-CITE-CITE-CITE-CITE-CITE-CITE-CITE-CITE-CITE-CITE-CITE-CITE

Your simulation uses code contributions which should be cited:

- USER-DEEPMD package:

@article{Wang_ComputPhysCommun_2018_v228_p178,
  author = {Wang, Han and Zhang, Linfeng and Han, Jiequn and E, Weinan},
  doi = {10.1016/j.cpc.2018.03.016},
  url = {https://doi.org/10.1016/j.cpc.2018.03.016},
  year = 2018,
  month = {jul},
  publisher = {Elsevier {BV}},
  volume = 228,
  journal = {Comput. Phys. Commun.},
  title = {{DeePMD-kit: A deep learning package for many-body potential energy representation and molecular dynamics}},
  pages = {178--184}
}
@misc{Zeng_JChemPhys_2023_v159_p054801,
  title  = {{DeePMD-kit v2: A software package for deep potential models}},
  author =   {Jinzhe Zeng and Duo Zhang and Denghui Lu and Pinghui Mo and Zeyu Li
         and Yixiao Chen and Mari{\'a}n Rynik and Li'ang Huang and Ziyao Li and 
         Shaochen Shi and Yingze Wang and Haotian Ye and Ping Tuo and Jiabin
         Yang and Ye Ding and Yifan Li and Davide Tisi and Qiyu Zeng and Han 
         Bao and Yu Xia and Jiameng Huang and Koki Muraoka and Yibo Wang and 
         Junhan Chang and Fengbo Yuan and Sigbj{\o}rn L{\o}land Bore and Chun
         Cai and Yinnian Lin and Bo Wang and Jiayan Xu and Jia-Xin Zhu and 
         Chenxing Luo and Yuzhi Zhang and Rhys E A Goodall and Wenshuo Liang
         and Anurag Kumar Singh and Sikai Yao and Jingchao Zhang and Renata
         Wentzcovitch and Jiequn Han and Jie Liu and Weile Jia and Darrin M
         York and Weinan E and Roberto Car and Linfeng Zhang and Han Wang},
  journal =  {J. Chem. Phys.},
  volume =   159,
  issue =    5,  
  year =    2023,
  pages  =   054801,
  doi =      {10.1063/5.0155600},
}

CITE-CITE-CITE-CITE-CITE-CITE-CITE-CITE-CITE-CITE-CITE-CITE-CITE

Generated 0 of 1 mixed pair_coeff terms from geometric mixing rule
Neighbor list info ...
  update: every = 1 steps, delay = 0 steps, check = yes
  max neighbors/atom: 2000, page size: 100000
  master list distance cutoff = 8
  ghost atom cutoff = 8
  binsize = 4, bins = 4 4 4
  1 neighbor lists, perpetual/occasional/extra = 1 0 0
  (1) pair deepmd, perpetual
      attributes: full, newton on
      pair build: full/bin/atomonly
      stencil: full/bin/3d
      bin: standard
Per MPI rank memory allocation (min/avg/max) = 2.958 | 2.999 | 3.082 Mbytes
   Step         PotEng         KinEng         TotEng      v_sysdensity       Temp          Press          Volume    
         0  -56.543952      0.34900239    -56.19495       0.029520714    300           -1665.1114      3375         
        10  -56.470404      0.49934602    -55.971058      0.029520714    429.23432     -309.49039      3375         
        20  -56.513422      0.50779939    -56.005622      0.029520714    436.50078      1194.1863      3375         
        30  -56.364682      0.36272851    -56.001953      0.029520714    311.79888      902.99316      3375         
        40  -56.342507      0.32899055    -56.013516      0.029520714    282.79797     -593.29336      3375         
        50  -56.494532      0.46805738    -56.026475      0.029520714    402.33883     -1303.9444      3375         
        60  -56.336726      0.30772029    -56.029005      0.029520714    264.5142       739.35349      3375         
        70  -56.515956      0.47111709    -56.044839      0.029520714    404.96894      876.88768      3375         
        80  -56.468427      0.40691594    -56.061511      0.029520714    349.78208     -1069.0377      3375         
        90  -56.476258      0.39718928    -56.079068      0.029520714    341.42111     -181.79279      3375         
       100  -56.361592      0.2694813     -56.092111      0.029520714    231.64423      1228.6225      3375         
       110  -56.546787      0.42931916    -56.117468      0.029520714    369.03973     -33.098676      3375         
       120  -56.473542      0.33997092    -56.133571      0.029520714    292.23661     -989.38227      3375         
       130  -56.521614      0.38108102    -56.140533      0.029520714    327.57457     -486.56628      3375         
       140  -56.496189      0.32025502    -56.175934      0.029520714    275.28896      933.79186      3375         
       150  -56.614243      0.42537867    -56.188865      0.029520714    365.65252      1006.8682      3375         
       160  -56.512462      0.28613888    -56.226323      0.029520714    245.96297     -1244.2419      3375         
       170  -56.512124      0.28432073    -56.227804      0.029520714    244.4001      -1135.6356      3375         
       180  -56.550983      0.29517037    -56.255813      0.029520714    253.72637      1484.4973      3375         
       190  -56.538895      0.27013921    -56.268756      0.029520714    232.20977      831.08434      3375         
       200  -56.531808      0.24721626    -56.284592      0.029520714    212.50536     -872.79377      3375         
       210  -56.610082      0.31333643    -56.296745      0.029520714    269.34179     -746.11271      3375         
       220  -56.626782      0.31899822    -56.307784      0.029520714    274.20862      196.58948      3375         
       230  -56.50421       0.1868372     -56.317373      0.029520714    160.60394      753.543        3375         
       240  -56.574572      0.24344319    -56.331128      0.029520714    209.26205     -264.24235      3375         
       250  -56.575273      0.2563234     -56.31895       0.029520714    220.33379     -408.70979      3375         
       260  -56.560359      0.22948575    -56.330873      0.029520714    197.26434      744.60122      3375         
       270  -56.546095      0.21367656    -56.332419      0.029520714    183.67487      124.4646       3375         
       280  -56.652975      0.32410976    -56.328865      0.029520714    278.60247     -1455.9566      3375         
       290  -56.528138      0.20322809    -56.32491       0.029520714    174.69344     -349.53532      3375         
       300  -56.525004      0.20075789    -56.324246      0.029520714    172.57007      1623.122       3375         
       310  -56.624247      0.30276564    -56.321482      0.029520714    260.25521      1007.1514      3375         
       320  -56.553851      0.23676695    -56.317084      0.029520714    203.52321     -1003.2596      3375         
       330  -56.488235      0.17852796    -56.309707      0.029520714    153.46138     -1206.8357      3375         
       340  -56.589733      0.28529947    -56.304434      0.029520714    245.24142      267.28228      3375         
       350  -56.609513      0.31076702    -56.298746      0.029520714    267.13315      851.26247      3375         
       360  -56.480667      0.18449839    -56.296168      0.029520714    158.59352     -165.44286      3375         
       370  -56.585309      0.30530262    -56.280006      0.029520714    262.43598     -506.00757      3375         
       380  -56.516784      0.23742705    -56.279357      0.029520714    204.09062      551.54418      3375         
       390  -56.569278      0.29649921    -56.272778      0.029520714    254.86863      377.17546      3375         
       400  -56.49418       0.22833387    -56.265846      0.029520714    196.27419     -937.69796      3375         
       410  -56.557652      0.29939448    -56.258258      0.029520714    257.35739     -504.38371      3375         
       420  -56.519079      0.2681174     -56.250961      0.029520714    230.47183      1202.4811      3375         
       430  -56.595582      0.35378321    -56.241799      0.029520714    304.10956      540.81324      3375         
       440  -56.447006      0.20922614    -56.23778       0.029520714    179.84932     -1031.9263      3375         
       450  -56.543463      0.32029309    -56.22317       0.029520714    275.32169     -765.49603      3375         
       460  -56.574054      0.35643026    -56.217624      0.029520714    306.38494      678.17356      3375         
       470  -56.474319      0.26538865    -56.208931      0.029520714    228.12621      1311.6022      3375         
       480  -56.523176      0.32149982    -56.201676      0.029520714    276.35898     -392.18391      3375         
       490  -56.567524      0.37961848    -56.187905      0.029520714    326.31738     -1686.5929      3375         
       500  -56.486412      0.31513333    -56.171278      0.029520714    270.88639      258.21217      3375         
       510  -56.458789      0.29162127    -56.167167      0.029520714    250.67559      1360.2264      3375         
       520  -56.619398      0.46005752    -56.15934       0.029520714    395.4622      -405.87922      3375         
       530  -56.410381      0.26426668    -56.146114      0.029520714    227.16178     -484.89543      3375         
       540  -56.477938      0.34111227    -56.136826      0.029520714    293.2177       537.78865      3375         
       550  -56.461758      0.33190975    -56.129848      0.029520714    285.30729     -13.56812       3375         
       560  -56.558317      0.43992805    -56.118389      0.029520714    378.15906     -677.96942      3375         
       570  -56.403695      0.29650286    -56.107193      0.029520714    254.87178     -360.57274      3375         
       580  -56.559025      0.4591548     -56.09987       0.029520714    394.68623      712.41448      3375         
       590  -56.384248      0.29711578    -56.087132      0.029520714    255.39864      1718.9847      3375         
       600  -56.481436      0.38052422    -56.100911      0.029520714    327.09595     -911.99377      3375         
       610  -56.391797      0.33697857    -56.054819      0.029520714    289.66441     -2114.4567      3375         
       620  -56.428751      0.36396433    -56.064787      0.029520714    312.86118      609.65133      3375         
       630  -56.392397      0.33994748    -56.052449      0.029520714    292.21646      1607.3503      3375         
       640  -56.52488       0.47723131    -56.047648      0.029520714    410.22468     -15.395167      3375         
       650  -56.449052      0.40682615    -56.042226      0.029520714    349.7049      -949.04294      3375         
       660  -56.424548      0.40153227    -56.023016      0.029520714    345.15431     -537.43319      3375         
       670  -56.522347      0.4924569     -56.02989       0.029520714    423.31249      705.27231      3375         
       680  -56.364705      0.35251805    -56.012186      0.029520714    303.02204      497.16548      3375         
       690  -56.380202      0.36312823    -56.017073      0.029520714    312.14247     -798.4228       3375         
       700  -56.502067      0.48977818    -56.012289      0.029520714    421.00988      49.212138      3375         
       710  -56.458754      0.44489374    -56.01386       0.029520714    382.42753      979.68515      3375         
       720  -56.442248      0.43153685    -56.010711      0.029520714    370.94604     -426.91802      3375         
       730  -56.498582      0.48474985    -56.013833      0.029520714    416.68756     -898.07001      3375         
       740  -56.385371      0.36211078    -56.02326       0.029520714    311.26788      266.13858      3375         
       750  -56.440305      0.40825699    -56.032048      0.029520714    350.93483      1238.1023      3375         
       760  -56.535691      0.48189846    -56.053793      0.029520714    414.23652     -56.054838      3375         
       770  -56.393822      0.32244564    -56.071376      0.029520714    277.172       -2105.9833      3375         
       780  -56.498507      0.43416212    -56.064345      0.029520714    373.20271     -253.64403      3375         
       790  -56.535629      0.42524526    -56.110384      0.029520714    365.53783      1947.7589      3375         
       800  -56.469069      0.34121352    -56.127855      0.029520714    293.30474      892.51567      3375         
       810  -56.376346      0.21810265    -56.158243      0.029520714    187.4795      -949.58563      3375         
       820  -56.608242      0.42693949    -56.181303      0.029520714    366.99418     -1118.8767      3375         
       830  -56.442433      0.24797091    -56.194462      0.029520714    213.15405      421.84131      3375         
       840  -56.546522      0.32447122    -56.222051      0.029520714    278.91318      543.36459      3375         
       850  -56.513328      0.26925843    -56.24407       0.029520714    231.45265     -520.93101      3375         
       860  -56.631522      0.37714418    -56.254378      0.029520714    324.19049     -160.4001       3375         
       870  -56.437014      0.16410663    -56.272907      0.029520714    141.06491      1055.1627      3375         
       880  -56.574937      0.2809583     -56.293978      0.029520714    241.50978     -21.540915      3375         
       890  -56.542931      0.26111385    -56.281818      0.029520714    224.45163     -1231.5995      3375         
       900  -56.55434       0.25980165    -56.294538      0.029520714    223.32367     -251.36721      3375         
       910  -56.495205      0.19009375    -56.305112      0.029520714    163.40325      1365.2945      3375         
       920  -56.660711      0.35697711    -56.303734      0.029520714    306.85501      481.98465      3375         
       930  -56.550349      0.22773354    -56.322615      0.029520714    195.75815     -1460.0591      3375         
       940  -56.524982      0.22785943    -56.297123      0.029520714    195.86636     -692.67028      3375         
       950  -56.563963      0.24861406    -56.315349      0.029520714    213.7069       1206.2842      3375         
       960  -56.543941      0.23745762    -56.306484      0.029520714    204.1169       925.44227      3375         
       970  -56.56715       0.26201939    -56.305131      0.029520714    225.23003     -468.93062      3375         
       980  -56.547543      0.24487788    -56.302665      0.029520714    210.4953      -1053.4547      3375         
       990  -56.581133      0.28771981    -56.293413      0.029520714    247.32192      158.7356       3375         
      1000  -56.551893      0.27028857    -56.281604      0.029520714    232.33815      821.99462      3375         
      1010  -56.568051      0.2928774     -56.275173      0.029520714    251.75536     -618.43906      3375         
      1020  -56.51758       0.2585493     -56.259031      0.029520714    222.24716     -260.78989      3375         
      1030  -56.57818       0.32845559    -56.249724      0.029520714    282.33811      1043.1982      3375         
      1040  -56.4985        0.26320417    -56.235296      0.029520714    226.24845     -178.12061      3375         
      1050  -56.532081      0.31726658    -56.214814      0.029520714    272.72012     -1482.5544      3375         
      1060  -56.511245      0.32098871    -56.190256      0.029520714    275.91964      105.12838      3375         
      1070  -56.556814      0.38377453    -56.173039      0.029520714    329.88989      1472.4996      3375         
      1080  -56.55092       0.40211238    -56.148808      0.029520714    345.65298      1100.5443      3375         
      1090  -56.44477       0.31346276    -56.131307      0.029520714    269.45038     -1182.3783      3375         
      1100  -56.50057       0.38801624    -56.112554      0.029520714    333.53603     -2257.1281      3375         
      1110  -56.489156      0.40941767    -56.079738      0.029520714    351.93255      998.93455      3375         
      1120  -56.475827      0.40654096    -56.069286      0.029520714    349.45975      1925.1891      3375         
      1130  -56.386997      0.32406409    -56.062933      0.029520714    278.56321     -750.27753      3375         
      1140  -56.505159      0.46827066    -56.036889      0.029520714    402.52216     -769.42534      3375         
      1150  -56.381072      0.34844403    -56.032628      0.029520714    299.52004      589.62844      3375         
      1160  -56.523882      0.49743358    -56.026449      0.029520714    427.59041     -126.43078      3375         
      1170  -56.31631       0.29846635    -56.017844      0.029520714    256.55958     -418.44849      3375         
      1180  -56.416884      0.40159042    -56.015294      0.029520714    345.2043      -278.49756      3375         
      1190  -56.466935      0.44842526    -56.01851       0.029520714    385.4632       927.1974       3375         
      1200  -56.424208      0.42033518    -56.003872      0.029520714    361.31716      1131.3722      3375         
      1210  -56.364951      0.33866678    -56.026284      0.029520714    291.11558     -1716.9571      3375         
      1220  -56.476834      0.47420835    -56.002625      0.029520714    407.62616     -1421.1576      3375         
      1230  -56.44409       0.42350919    -56.020581      0.029520714    364.04552      2167.5903      3375         
      1240  -56.380992      0.35965833    -56.021334      0.029520714    309.15977      1550.9136      3375         
      1250  -56.49642       0.46284223    -56.033577      0.029520714    397.85593     -1552.3547      3375         
      1260  -56.438799      0.39994197    -56.038857      0.029520714    343.7873      -1845.1761      3375         
      1270  -56.479256      0.44968232    -56.029573      0.029520714    386.54376      281.91588      3375         
      1280  -56.443076      0.39238614    -56.05069       0.029520714    337.29236      1712.7667      3375         
      1290  -56.512017      0.44525883    -56.066758      0.029520714    382.74136      333.48648      3375         
      1300  -56.481669      0.42074591    -56.060923      0.029520714    361.67023     -776.2155       3375         
      1310  -56.491094      0.41110109    -56.079993      0.029520714    353.3796       132.48713      3375         
      1320  -56.346713      0.25572893    -56.090984      0.029520714    219.82279      136.86116      3375         
      1330  -56.522748      0.4297502     -56.092998      0.029520714    369.41025     -1158.734       3375         
      1340  -56.443362      0.34200713    -56.101355      0.029520714    293.98692     -597.29689      3375         
      1350  -56.517302      0.40706077    -56.110242      0.029520714    349.90657      1527.0358      3375         
      1360  -56.491703      0.37302001    -56.118683      0.029520714    320.64538      1566.4294      3375         
      1370  -56.52696       0.37907877    -56.147881      0.029520714    325.85344     -1330.452       3375         
      1380  -56.40255       0.2884068     -56.114143      0.029520714    247.91246     -1790.7107      3375         
      1390  -56.478892      0.3347718     -56.144121      0.029520714    287.76748      650.28315      3375         
      1400  -56.481752      0.3427032     -56.139049      0.029520714    294.58526      1598.7107      3375         
      1410  -56.532557      0.37973566    -56.152821      0.029520714    326.4181       142.95704      3375         
      1420  -56.44883       0.29410329    -56.154727      0.029520714    252.80911     -1538.7894      3375         
      1430  -56.504221      0.34773147    -56.156489      0.029520714    298.90752     -374.08366      3375         
      1440  -56.558473      0.39284262    -56.16563       0.029520714    337.68475      1307.1259      3375         
      1450  -56.442939      0.27931071    -56.163628      0.029520714    240.09352     -278.33278      3375         
      1460  -56.419063      0.24670722    -56.172356      0.029520714    212.06779     -839.80386      3375         
      1470  -56.536715      0.36598133    -56.170734      0.029520714    314.59498      1094.0017      3375         
      1480  -56.503963      0.32935962    -56.174604      0.029520714    283.11521      573.65543      3375         
      1490  -56.490945      0.31499506    -56.17595       0.029520714    270.76754     -1063.6166      3375         
      1500  -56.516687      0.34601662    -56.17067       0.029520714    297.43345     -721.03217      3375         
      1510  -56.524887      0.34926439    -56.175623      0.029520714    300.22522      285.21139      3375         
      1520  -56.489909      0.31356648    -56.176342      0.029520714    269.53954      1440.7334      3375         
      1530  -56.526792      0.34346287    -56.183329      0.029520714    295.23827     -102.87666      3375         
      1540  -56.393241      0.21667558    -56.176566      0.029520714    186.2528      -2236.9572      3375         
      1550  -56.62058       0.45981124    -56.160769      0.029520714    395.2505       406.46823      3375         
      1560  -56.464624      0.29501148    -56.169613      0.029520714    253.58979      2146.3432      3375         
      1570  -56.48943       0.3300365     -56.159393      0.029520714    283.69705     -156.92582      3375         
      1580  -56.45878       0.30176898    -56.157011      0.029520714    259.3985      -994.38537      3375         
      1590  -56.599283      0.45158299    -56.1477        0.029520714    388.17756     -536.12239      3375         
      1600  -56.330675      0.19996755    -56.130707      0.029520714    171.8907       28.875192      3375         
      1610  -56.584398      0.46839433    -56.116004      0.029520714    402.62847      539.70684      3375         
      1620  -56.374773      0.27526455    -56.099508      0.029520714    236.61547     -249.53706      3375         
      1630  -56.481104      0.40371561    -56.077389      0.029520714    347.0311      -83.995162      3375         
      1640  -56.39478       0.35229531    -56.042485      0.029520714    302.83057      1920.7121      3375         
      1650  -56.538889      0.50861038    -56.030279      0.029520714    437.19791     -776.64626      3375         
      1660  -56.296769      0.33205816    -55.964711      0.029520714    285.43486     -2651.0632      3375         
      1670  -56.434912      0.47798363    -55.956928      0.029520714    410.87137      713.09516      3375         
      1680  -56.334496      0.41464524    -55.919851      0.029520714    356.42613      1950.366       3375         
      1690  -56.408217      0.51260276    -55.895615      0.029520714    440.62973     -151.08688      3375         
      1700  -56.305708      0.41335833    -55.892349      0.029520714    355.31991     -1046.3259      3375         
      1710  -56.342855      0.50622276    -55.836633      0.029520714    435.14552     -610.11787      3375         
      1720  -56.391114      0.53974417    -55.85137       0.029520714    463.96029      1354.7833      3375         
      1730  -56.442302      0.61113087    -55.831171      0.029520714    525.3238       1276.2597      3375         
      1740  -56.35907       0.52396645    -55.835104      0.029520714    450.39787     -1811.7607      3375         
      1750  -56.3385        0.49910678    -55.839393      0.029520714    429.02868     -1222.441       3375         
      1760  -56.345813      0.49211196    -55.853701      0.029520714    423.01598      1646.8595      3375         
      1770  -56.436864      0.57577707    -55.861087      0.029520714    494.93392      9.8845754      3375         
      1780  -56.338578      0.45744911    -55.881128      0.029520714    393.22004     -1262.6021      3375         
      1790  -56.493372      0.58749925    -55.905873      0.029520714    505.01022      679.66349      3375         
      1800  -56.431831      0.4916886     -55.940142      0.029520714    422.65206      1385.8279      3375         
      1810  -56.416856      0.45023179    -55.966625      0.029520714    387.01608     -292.75222      3375         
      1820  -56.352591      0.35122544    -56.001366      0.029520714    301.91092     -1747.6176      3375         
      1830  -56.500733      0.49241593    -56.008317      0.029520714    423.27726     -497.11544      3375         
      1840  -56.35969       0.31389697    -56.045793      0.029520714    269.82363      1902.5849      3375         
      1850  -56.58639       0.51319295    -56.073197      0.029520714    441.13705      1179.6671      3375         
      1860  -56.393524      0.29017173    -56.103353      0.029520714    249.42958     -1792.0475      3375         
      1870  -56.485733      0.37079652    -56.114937      0.029520714    318.73408     -1359.1291      3375         
      1880  -56.399343      0.27039108    -56.128952      0.029520714    232.42627      1833.1833      3375         
      1890  -56.621395      0.47368109    -56.147714      0.029520714    407.17293      652.97296      3375         
      1900  -56.393282      0.22993586    -56.163346      0.029520714    197.65124     -1138.223       3375         
      1910  -56.571694      0.40423842    -56.167456      0.029520714    347.4805      -141.83591      3375         
      1920  -56.488308      0.30698102    -56.181327      0.029520714    263.87872      595.47769      3375         
      1930  -56.596077      0.40434722    -56.191729      0.029520714    347.57403     -64.50342       3375         
      1940  -56.451006      0.25397507    -56.197031      0.029520714    218.31518     -683.58025      3375         
      1950  -56.546531      0.34838444    -56.198147      0.029520714    299.46881     -503.05164      3375         
      1960  -56.53938       0.330288      -56.209092      0.029520714    283.91324      1599.3225      3375         
      1970  -56.524235      0.31467248    -56.209562      0.029520714    270.49025      991.20412      3375         
      1980  -56.491414      0.26777574    -56.223639      0.029520714    230.17815     -2189.3728      3375         
      1990  -56.593603      0.38819594    -56.205407      0.029520714    333.6905      -787.23289      3375         
      2000  -56.535942      0.31553952    -56.220403      0.029520714    271.23555      1928.8591      3375         
      2010  -56.462868      0.24392639    -56.218941      0.029520714    209.67741      532.55392      3375         
      2020  -56.574317      0.35210198    -56.222215      0.029520714    302.66439     -1235.2259      3375         
      2030  -56.533185      0.31491136    -56.218274      0.029520714    270.69558     -1040.4028      3375         
      2040  -56.475141      0.25960582    -56.215535      0.029520714    223.15534      496.88675      3375         
      2050  -56.47872       0.26360077    -56.215119      0.029520714    226.58937      1574.773       3375         
      2060  -56.567218      0.34828861    -56.218929      0.029520714    299.38643     -277.39235      3375         
      2070  -56.507471      0.30442451    -56.203047      0.029520714    261.68116     -1025.078       3375         
      2080  -56.505455      0.30259698    -56.202858      0.029520714    260.11023      856.20811      3375         
      2090  -56.531559      0.33126249    -56.200297      0.029520714    284.7509       34.95035       3375         
      2100  -56.491511      0.30086795    -56.190643      0.029520714    258.62397     -1673.8088      3375         
      2110  -56.415954      0.23443862    -56.181516      0.029520714    201.52178      84.724903      3375         
      2120  -56.51797       0.34456764    -56.173402      0.029520714    296.18792      1745.1595      3375         
      2130  -56.555189      0.39297078    -56.162218      0.029520714    337.79492      796.96131      3375         
      2140  -56.379689      0.22267645    -56.157013      0.029520714    191.41111     -1195.172       3375         
      2150  -56.526104      0.40680623    -56.119298      0.029520714    349.68777     -1706.2214      3375         
      2160  -56.480082      0.36328138    -56.116801      0.029520714    312.27412      790.344        3375         
      2170  -56.404967      0.32124007    -56.083727      0.029520714    276.13571      1913.4111      3375         
      2180  -56.386757      0.31571991    -56.071037      0.029520714    271.39062     -648.18048      3375         
      2190  -56.501671      0.46420302    -56.037468      0.029520714    399.02565     -1479.1896      3375         
      2200  -56.338642      0.33535881    -56.003284      0.029520714    288.27207      827.35686      3375         
      2210  -56.440266      0.46461906    -55.975647      0.029520714    399.38328      639.642        3375         
      2220  -56.384507      0.44504044    -55.939466      0.029520714    382.55363     -824.49391      3375         
      2230  -56.345535      0.43512483    -55.91041       0.029520714    374.03024     -438.37141      3375         
      2240  -56.359936      0.48699823    -55.872938      0.029520714    418.62025      1108.6772      3375         
      2250  -56.332538      0.47836035    -55.854178      0.029520714    411.19519      1038.9877      3375         
      2260  -56.344344      0.50850411    -55.835839      0.029520714    437.10655     -1549.9631      3375         
      2270  -56.309063      0.50290051    -55.806162      0.029520714    432.28974     -1842.2982      3375         
      2280  -56.409358      0.60080354    -55.808555      0.029520714    516.4465       1362.913       3375         
      2290  -56.226658      0.43089625    -55.795762      0.029520714    370.39538      2437.4646      3375         
      2300  -56.404056      0.58525002    -55.818806      0.029520714    503.0768      -1158.3846      3375         
      2310  -56.212245      0.41429912    -55.797946      0.029520714    356.12861     -2176.9295      3375         
      2320  -56.418833      0.59947205    -55.819361      0.029520714    515.30196      847.99895      3375         
      2330  -56.289594      0.45621774    -55.833376      0.029520714    392.16156      1822.3037      3375         
      2340  -56.464553      0.60815459    -55.856398      0.029520714    522.7654      -291.08072      3375         
      2350  -56.20912       0.33249765    -55.876622      0.029520714    285.81264     -1336.8808      3375         
      2360  -56.470558      0.57711597    -55.893442      0.029520714    496.08483     -219.99664      3375         
      2370  -56.361816      0.44413447    -55.917682      0.029520714    381.77487      881.58665      3375         
      2380  -56.427111      0.48507565    -55.942035      0.029520714    416.96762     -206.38076      3375         
      2390  -56.280993      0.3194099     -55.961583      0.029520714    274.5625      -897.87253      3375         
      2400  -56.543113      0.56489111    -55.978222      0.029520714    485.57643      1035.9072      3375         
      2410  -56.31027       0.31912222    -55.991148      0.029520714    274.31522      1761.2308      3375         
      2420  -56.432952      0.41473933    -56.018213      0.029520714    356.50701     -1476.4758      3375         
      2430  -56.451282      0.44548049    -56.005801      0.029520714    382.93189     -2085.2531      3375         
      2440  -56.471424      0.43895606    -56.032468      0.029520714    377.32354      532.07256      3375         
      2450  -56.356881      0.32155634    -56.035325      0.029520714    276.40757      1657.7146      3375         
      2460  -56.542713      0.4901381     -56.052575      0.029520714    421.31926      628.36777      3375         
      2470  -56.411801      0.34029768    -56.071503      0.029520714    292.51749     -1331.8995      3375         
      2480  -56.318623      0.26911887    -56.049504      0.029520714    231.33269     -606.2405       3375         
      2490  -56.507479      0.43244988    -56.075029      0.029520714    371.73087      1458.2974      3375         
      2500  -56.555878      0.47414002    -56.081738      0.029520714    407.56742      15.501333      3375         
      2510  -56.422757      0.33154278    -56.091215      0.029520714    284.99184     -1486.4031      3375         
      2520  -56.506669      0.40527522    -56.101394      0.029520714    348.37173      369.14407      3375         
      2530  -56.51537       0.4012337     -56.114136      0.029520714    344.89767      955.20451      3375         
      2540  -56.462007      0.33950497    -56.122502      0.029520714    291.83608     -590.32305      3375         
      2550  -56.386376      0.25995256    -56.126423      0.029520714    223.45339     -565.09203      3375         
      2560  -56.560246      0.41860658    -56.14164       0.029520714    359.83127      289.96346      3375         
      2570  -56.535579      0.39087488    -56.144704      0.029520714    335.99329      1159.9602      3375         
      2580  -56.573187      0.40580221    -56.167385      0.029520714    348.82472      12.196542      3375         
      2590  -56.416367      0.24512433    -56.171242      0.029520714    210.70715     -1925.207       3375         
      2600  -56.574828      0.40371038    -56.171118      0.029520714    347.0266      -1.2679956      3375         
      2610  -56.433149      0.24411883    -56.189031      0.029520714    209.84283      2113.2086      3375         
      2620  -56.579276      0.38342038    -56.195856      0.029520714    329.58546     -50.43575       3375         
      2630  -56.491517      0.28074072    -56.210776      0.029520714    241.32275     -1586.7708      3375         
      2640  -56.575675      0.36790467    -56.20777       0.029520714    316.24827     -172.48068      3375         
      2650  -56.427727      0.21082135    -56.216906      0.029520714    181.22055      943.4187       3375         
      2660  -56.601896      0.37594993    -56.225946      0.029520714    323.16391      129.19494      3375         
      2670  -56.45832       0.22837767    -56.229942      0.029520714    196.31184     -333.15793      3375         
      2680  -56.563921      0.32636762    -56.237553      0.029520714    280.54331     -27.437219      3375         
      2690  -56.479118      0.24289029    -56.236228      0.029520714    208.78678      725.74694      3375         
      2700  -56.560467      0.31149949    -56.248967      0.029520714    267.76277     -370.18714      3375         
      2710  -56.52787       0.28564075    -56.242229      0.029520714    245.53478     -1615.7425      3375         
      2720  -56.542198      0.3003366     -56.241861      0.029520714    258.16723      510.60982      3375         
      2730  -56.527945      0.27964243    -56.248302      0.029520714    240.37866      2124.1246      3375         
      2740  -56.582848      0.3349713     -56.247877      0.029520714    287.93897     -13.823521      3375         
      2750  -56.48933       0.23431588    -56.255014      0.029520714    201.41628     -1650.3975      3375         
      2760  -56.516871      0.28331538    -56.233555      0.029520714    243.53591     -485.27305      3375         
      2770  -56.619733      0.37981841    -56.239914      0.029520714    326.48923      842.70524      3375         
      2780  -56.567023      0.33214734    -56.234875      0.029520714    285.51152      727.19515      3375         
      2790  -56.494183      0.26677617    -56.227407      0.029520714    229.31892     -689.28111      3375         
      2800  -56.540009      0.31939022    -56.220619      0.029520714    274.54558     -935.31975      3375         
      2810  -56.511717      0.30047398    -56.211243      0.029520714    258.28532      904.85699      3375         
      2820  -56.496863      0.29996219    -56.196901      0.029520714    257.84539      704.39038      3375         
      2830  -56.489622      0.30555077    -56.184071      0.029520714    262.64929     -931.68718      3375         
      2840  -56.612353      0.45536403    -56.156989      0.029520714    391.42772      152.31613      3375         
      2850  -56.451704      0.31589427    -56.135809      0.029520714    271.54049      984.82103      3375         
      2860  -56.487472      0.37123917    -56.116233      0.029520714    319.11458     -555.478        3375         
      2870  -56.463572      0.37269993    -56.090872      0.029520714    320.37024     -1363.1845      3375         
      2880  -56.463557      0.40849015    -56.055067      0.029520714    351.13526     -166.60636      3375         
      2890  -56.321576      0.2850102     -56.036566      0.029520714    244.99276      1676.5848      3375         
      2900  -56.55863       0.54267862    -56.015952      0.029520714    466.48273      1032.2715      3375         
      2910  -56.327749      0.34034545    -55.987403      0.029520714    292.55856     -1692.4803      3375         
      2920  -56.451778      0.48693598    -55.964842      0.029520714    418.56675     -1459.0177      3375         
      2930  -56.499457      0.55058336    -55.948874      0.029520714    473.27759      1590.1602      3375         
      2940  -56.406183      0.48054412    -55.925638      0.029520714    413.07234      953.55981      3375         
      2950  -56.218949      0.29333471    -55.925615      0.029520714    252.14845     -833.79764      3375         
      2960  -56.399         0.49149202    -55.907508      0.029520714    422.48308      15.772804      3375         
      2970  -56.410982      0.50534423    -55.905638      0.029520714    434.39035     -89.880586      3375         
      2980  -56.388128      0.48092259    -55.907205      0.029520714    413.39767     -344.73469      3375         
      2990  -56.350302      0.44515584    -55.905147      0.029520714    382.65282     -69.161366      3375         
      3000  -56.328684      0.42098042    -55.907704      0.029520714    361.87181     -221.82662      3375         
      3010  -56.487682      0.57036159    -55.917321      0.029520714    490.27881      1320.6457      3375         
      3020  -56.436148      0.50461325    -55.931535      0.029520714    433.762        858.13591      3375         
      3030  -56.286109      0.33706715    -55.949041      0.029520714    289.74055     -2290.4857      3375         
      3040  -56.41057       0.45091089    -55.95966       0.029520714    387.59983     -969.8662       3375         
      3050  -56.405622      0.42499029    -55.980631      0.029520714    365.31866      1762.5923      3375         
      3060  -56.304236      0.30916031    -55.995076      0.029520714    265.75202      672.18027      3375         
      3070  -56.595552      0.56900227    -56.02655       0.029520714    489.11034     -506.48288      3375         
      3080  -56.478208      0.43834975    -56.039858      0.029520714    376.80236     -372.83135      3375         
      3090  -56.337827      0.27004971    -56.067777      0.029520714    232.13283     -333.88855      3375         
      3100  -56.554572      0.46402324    -56.090549      0.029520714    398.87111      840.56989      3375         
      3110  -56.538458      0.42361297    -56.114845      0.029520714    364.13473      163.72275      3375         
      3120  -56.367966      0.23605813    -56.131908      0.029520714    202.91391     -1265.2397      3375         
      3130  -56.540248      0.39106302    -56.149185      0.029520714    336.15502      582.54796      3375         
      3140  -56.562403      0.39757622    -56.164827      0.029520714    341.75372      577.31684      3375         
      3150  -56.431361      0.25749315    -56.173867      0.029520714    221.3393      -1299.5444      3375         
      3160  -56.61326       0.42306358    -56.190197      0.029520714    363.66248      195.33079      3375         
      3170  -56.593961      0.39224645    -56.201715      0.029520714    337.17228      1448.1393      3375         
      3180  -56.409981      0.20306239    -56.206918      0.029520714    174.551        132.34371      3375         
      3190  -56.478162      0.25753584    -56.220626      0.029520714    221.376       -879.39061      3375         
      3200  -56.611687      0.40384314    -56.207844      0.029520714    347.14072     -1285.0752      3375         
      3210  -56.498599      0.27629232    -56.222307      0.029520714    237.49894      14.863416      3375         
      3220  -56.552257      0.33779512    -56.214462      0.029520714    290.36631      1959.4605      3375         
      3230  -56.631919      0.40498727    -56.226932      0.029520714    348.12421      255.74275      3375         
      3240  -56.47799       0.25434085    -56.223649      0.029520714    218.62961     -1575.9268      3375         
      3250  -56.487529      0.27150975    -56.216019      0.029520714    233.38787      363.33585      3375         
      3260  -56.598494      0.38091625    -56.217578      0.029520714    327.43293      369.09187      3375         
      3270  -56.47441       0.2557232     -56.218687      0.029520714    219.81787     -784.29143      3375         
      3280  -56.489366      0.27286193    -56.216504      0.029520714    234.5502       371.01834      3375         
      3290  -56.639266      0.42480478    -56.214461      0.029520714    365.1592       488.18661      3375         
      3300  -56.458072      0.24527346    -56.212799      0.029520714    210.83534     -78.184153      3375         
      3310  -56.542682      0.33127274    -56.21141       0.029520714    284.75972     -162.87613      3375         
      3320  -56.508798      0.30814369    -56.200655      0.029520714    264.87814     -680.46756      3375         
      3330  -56.433854      0.22848612    -56.205368      0.029520714    196.40506      166.59336      3375         
      3340  -56.484484      0.29112778    -56.193357      0.029520714    250.25139      1727.6375      3375         
      3350  -56.637623      0.44150181    -56.196121      0.029520714    379.51185     -545.80177      3375         
      3360  -56.398904      0.21251428    -56.18639       0.029520714    182.67578     -1801.1667      3375         
      3370  -56.5356        0.36585945    -56.169741      0.029520714    314.49021      619.42444      3375         
      3380  -56.532917      0.35929696    -56.17362       0.029520714    308.84914      969.21834      3375         
      3390  -56.457887      0.29749213    -56.160395      0.029520714    255.72214     -131.89445      3375         
      3400  -56.463771      0.30131532    -56.162456      0.029520714    259.00853     -245.07752      3375         
      3410  -56.551742      0.41138242    -56.14036       0.029520714    353.62143     -575.00469      3375         
      3420  -56.505756      0.37119078    -56.134566      0.029520714    319.07298      349.2611       3375         
      3430  -56.507011      0.38352203    -56.123489      0.029520714    329.67284      777.97803      3375         
      3440  -56.489882      0.36956362    -56.120319      0.029520714    317.67429     -592.01083      3375         
      3450  -56.426502      0.31955079    -56.106951      0.029520714    274.68361      11.435373      3375         
      3460  -56.437799      0.33751719    -56.100282      0.029520714    290.12741      701.61843      3375         
      3470  -56.517216      0.4211425     -56.096073      0.029520714    362.01113     -1562.4692      3375         
      3480  -56.529523      0.46047167    -56.069051      0.029520714    395.8182      -948.82867      3375         
      3490  -56.374751      0.30689141    -56.06786       0.029520714    263.8017       2004.4465      3375         
      3500  -56.451873      0.3947208     -56.057152      0.029520714    339.29922      1464.9983      3375         
      3510  -56.54939       0.49591043    -56.053479      0.029520714    426.28112     -426.58312      3375         
      3520  -56.352802      0.30407293    -56.048729      0.029520714    261.37895     -1820.2334      3375         
      3530  -56.402124      0.39556318    -56.006561      0.029520714    340.02333     -1276.1039      3375         
      3540  -56.469404      0.45253992    -56.016864      0.029520714    389.00013      1528.3306      3375         
      3550  -56.412268      0.41654768    -55.99572       0.029520714    358.06145      1217.3465      3375         
      3560  -56.395857      0.41485518    -55.981002      0.029520714    356.60659     -1040.4862      3375         
      3570  -56.48047       0.5151325     -55.965337      0.029520714    442.80427     -46.445079      3375         
      3580  -56.278865      0.32672237    -55.952143      0.029520714    280.84825      655.15029      3375         
      3590  -56.420986      0.49571288    -55.925273      0.029520714    426.1113      -963.49015      3375         
      3600  -56.323096      0.41239974    -55.910696      0.029520714    354.49591     -57.391477      3375         
      3610  -56.381247      0.48774549    -55.893502      0.029520714    419.26259      1100.3577      3375         
      3620  -56.291182      0.42161404    -55.869568      0.029520714    362.41646      502.61715      3375         
      3630  -56.422081      0.54630375    -55.875777      0.029520714    469.59886     -888.81585      3375         
      3640  -56.277079      0.43695087    -55.840128      0.029520714    375.59989     -1860.374       3375         
      3650  -56.427599      0.61239714    -55.815202      0.029520714    526.41227      129.33266      3375         
      3660  -56.334478      0.51256695    -55.821911      0.029520714    440.59894      2717.736       3375         
      3670  -56.485777      0.66402334    -55.821754      0.029520714    570.78979      790.57996      3375         
      3680  -56.210008      0.38300968    -55.826998      0.029520714    329.23242     -2128.9017      3375         
      3690  -56.328364      0.49233122    -55.836033      0.029520714    423.20445     -1193.5608      3375         
      3700  -56.338054      0.49671208    -55.841342      0.029520714    426.97021      884.90816      3375         
      3710  -56.328486      0.46534407    -55.863142      0.029520714    400.00649      696.93199      3375         
      3720  -56.340325      0.45266342    -55.887661      0.029520714    389.10629      234.56644      3375         
      3730  -56.473371      0.56012858    -55.913243      0.029520714    481.48259     -411.33429      3375         
      3740  -56.414519      0.463386      -55.951133      0.029520714    398.32335     -355.83354      3375         
      3750  -56.366614      0.37678373    -55.98983       0.029520714    323.88064      232.02908      3375         
      3760  -56.429097      0.41883078    -56.010266      0.029520714    360.02399     -479.28714      3375         
      3770  -56.393037      0.34937936    -56.043657      0.029520714    300.32404      198.06853      3375         
      3780  -56.482405      0.40889015    -56.073514      0.029520714    351.4791       1734.0594      3375         
      3790  -56.41834       0.3147487     -56.103591      0.029520714    270.55577     -367.84478      3375         
      3800  -56.448854      0.31986206    -56.128992      0.029520714    274.95118     -2396.2741      3375         
      3810  -56.566417      0.43190076    -56.134516      0.029520714    371.25886     -256.38252      3375         
      3820  -56.442403      0.27782896    -56.164574      0.029520714    238.81982      1560.6406      3375         
      3830  -56.472779      0.29870091    -56.174078      0.029520714    256.7612       1106.0405      3375         
      3840  -56.59957       0.41172185    -56.187848      0.029520714    353.91321     -4.694854       3375         
      3850  -56.424516      0.22793628    -56.19658       0.029520714    195.93243     -1275.751       3375         
      3860  -56.497149      0.29387795    -56.203271      0.029520714    252.61542     -568.56973      3375         
      3870  -56.649899      0.43856197    -56.211337      0.029520714    376.98478      810.37453      3375         
      3880  -56.428513      0.21026815    -56.218245      0.029520714    180.74502     -51.790478      3375         
      3890  -56.542233      0.32172425    -56.220508      0.029520714    276.5519      -60.642152      3375         
      3900  -56.634579      0.40973423    -56.224844      0.029520714    352.20466      599.8355       3375         
      3910  -56.514152      0.28332952    -56.230822      0.029520714    243.54806     -749.51534      3375         
      3920  -56.529577      0.30308482    -56.226492      0.029520714    260.52958     -725.98205      3375         
      3930  -56.622188      0.38891127    -56.233276      0.029520714    334.30539      659.10602      3375         
      3940  -56.473803      0.24129918    -56.232504      0.029520714    207.41908      894.04694      3375         
      3950  -56.561781      0.32825025    -56.233531      0.029520714    282.16161      449.78153      3375         
      3960  -56.576088      0.34002521    -56.236062      0.029520714    292.28328     -1093.6184      3375         
      3970  -56.51276       0.2863401     -56.22642       0.029520714    246.13593     -1572.4906      3375         
      3980  -56.554965      0.32087417    -56.23409       0.029520714    275.82118      909.97307      3375         
      3990  -56.563527      0.34342338    -56.220103      0.029520714    295.20432      1598.7167      3375         
      4000  -56.51216       0.28190025    -56.23026       0.029520714    242.31947     -337.09208      3375         
      4010  -56.53331       0.32191305    -56.211397      0.029520714    276.71419     -609.84665      3375         
      4020  -56.533037      0.32357123    -56.209466      0.029520714    278.13955     -278.62643      3375         
      4030  -56.477315      0.2758136     -56.201501      0.029520714    237.08743     -209.7857       3375         
      4040  -56.450145      0.25476027    -56.195385      0.029520714    218.99013      451.82887      3375         
      4050  -56.524543      0.33783032    -56.186713      0.029520714    290.39657      299.39997      3375         
      4060  -56.531767      0.36364763    -56.168119      0.029520714    312.58895      159.98392      3375         
      4070  -56.506952      0.35452123    -56.152431      0.029520714    304.74396     -11.453506      3375         
      4080  -56.532331      0.4029655     -56.129365      0.029520714    346.38631     -1359.8315      3375         
      4090  -56.399844      0.28821366    -56.11163       0.029520714    247.74644     -177.50254      3375         
      4100  -56.445619      0.36027935    -56.08534       0.029520714    309.6936       1953.0818      3375         
      4110  -56.562842      0.50220955    -56.060633      0.029520714    431.69579      807.7751       3375         
      4120  -56.387975      0.35334736    -56.034627      0.029520714    303.7349      -1385.6705      3375         
      4130  -56.3891        0.39365273    -55.995447      0.029520714    338.38112     -1188.925       3375         
      4140  -56.576902      0.60875741    -55.968144      0.029520714    523.28359     -61.985973      3375         
      4150  -56.351753      0.40474267    -55.94701       0.029520714    347.91396      1174.3671      3375         
      4160  -56.477048      0.56440471    -55.912644      0.029520714    485.15831      681.64862      3375         
      4170  -56.518634      0.61245431    -55.90618       0.029520714    526.46141     -880.91143      3375         
      4180  -56.182644      0.3010489     -55.881595      0.029520714    258.77951     -157.05172      3375         
      4190  -56.414662      0.54357147    -55.87109       0.029520714    467.25021      163.53409      3375         
      4200  -56.503204      0.63319922    -55.870005      0.029520714    544.29359     -445.78542      3375         
      4210  -56.263693      0.39498445    -55.868708      0.029520714    339.52586      408.15803      3375         
      4220  -56.349586      0.48146896    -55.868117      0.029520714    413.86733      949.46107      3375         
      4230  -56.470357      0.58115879    -55.889199      0.029520714    499.56001     -647.50723      3375         
      4240  -56.358825      0.46308824    -55.895737      0.029520714    398.06739     -1530.6623      3375         
      4250  -56.445897      0.55326378    -55.892634      0.029520714    475.58165      83.494484      3375         
      4260  -56.328839      0.38414076    -55.944698      0.029520714    330.20469      1586.0387      3375         
      4270  -56.399681      0.46113817    -55.938543      0.029520714    396.39113      1251.0855      3375         
      4280  -56.437839      0.44936279    -55.988476      0.029520714    386.26909     -935.30042      3375         
      4290  -56.371944      0.36855381    -56.00339       0.029520714    316.80626     -2155.4267      3375         
      4300  -56.411998      0.39650748    -56.01549       0.029520714    340.83504      82.456852      3375         
      4310  -56.533496      0.47315039    -56.060346      0.029520714    406.71674      1633.1669      3375         
      4320  -56.439785      0.35866005    -56.081125      0.029520714    308.30166      383.77937      3375         
      4330  -56.532618      0.41688674    -56.115731      0.029520714    358.35291     -444.28732      3375         
      4340  -56.46149       0.32399389    -56.137496      0.029520714    278.50286     -188.55695      3375         
      4350  -56.461578      0.30644894    -56.155129      0.029520714    263.42135     -504.02354      3375         
      4360  -56.527555      0.36838345    -56.159171      0.029520714    316.65982     -342.41752      3375         
      4370  -56.469073      0.28813413    -56.180939      0.029520714    247.67807      541.85227      3375         
      4380  -56.5822        0.4027631     -56.179437      0.029520714    346.21232      759.80562      3375         
      4390  -56.525535      0.33422447    -56.191311      0.029520714    287.29701      460.03177      3375         
      4400  -56.498985      0.29685382    -56.202131      0.029520714    255.17345     -1185.6944      3375         
      4410  -56.565898      0.37463101    -56.191267      0.029520714    322.03018     -1405.9547      3375         
      4420  -56.540569      0.34411972    -56.196449      0.029520714    295.80289      1336.9619      3375         
      4430  -56.421386      0.22264717    -56.198738      0.029520714    191.38594      1606.608       3375         
      4440  -56.584169      0.37846099    -56.205708      0.029520714    325.3224      -927.33614      3375         
      4450  -56.460276      0.26040355    -56.199872      0.029520714    223.84106     -1371.3199      3375         
      4460  -56.506203      0.30841306    -56.19779       0.029520714    265.1097      -47.048059      3375         
      4470  -56.505051      0.30650655    -56.198545      0.029520714    263.47087      941.49691      3375         
      4480  -56.508578      0.31160317    -56.196975      0.029520714    267.85189      1115.7914      3375         
      4490  -56.545952      0.35206544    -56.193887      0.029520714    302.63297     -322.14302      3375         
      4500  -56.477354      0.28569436    -56.19166       0.029520714    245.58087     -964.66799      3375         
      4510  -56.442521      0.25480549    -56.187715      0.029520714    219.02901     -3.9439         3375         
      4520  -56.569592      0.38562038    -56.183972      0.029520714    331.47656     -516.72654      3375         
      4530  -56.393943      0.22009945    -56.173843      0.029520714    189.19594      29.386233      3375         
      4540  -56.518293      0.34538598    -56.172907      0.029520714    296.89135      1894.3008      3375         
      4550  -56.636448      0.47313551    -56.163312      0.029520714    406.70395      343.28813      3375         
      4560  -56.402314      0.24043379    -56.16188       0.029520714    206.67519     -2006.4187      3375         
      4570  -56.49923       0.3564666     -56.142763      0.029520714    306.41618     -1178.0556      3375         
      4580  -56.626201      0.4879683     -56.138233      0.029520714    419.45412      752.43165      3375         
      4590  -56.419858      0.28855863    -56.1313        0.029520714    248.04296      2067.2491      3375         
      4600  -56.494731      0.37156983    -56.123161      0.029520714    319.39882      848.82863      3375         
      4610  -56.539301      0.42368323    -56.115618      0.029520714    364.19512     -2025.2882      3375         
      4620  -56.411372      0.30815555    -56.103217      0.029520714    264.88835     -1140.9372      3375         
      4630  -56.430667      0.33333744    -56.097329      0.029520714    286.53452      852.2985       3375         
      4640  -56.529225      0.44056748    -56.088657      0.029520714    378.7087       119.67534      3375         
      4650  -56.499517      0.41691406    -56.082603      0.029520714    358.37639      114.68402      3375         
      4660  -56.46063       0.38988398    -56.070746      0.029520714    335.14152      777.81327      3375         
      4670  -56.415165      0.35029703    -56.064868      0.029520714    301.11286     -249.08931      3375         
      4680  -56.552793      0.49081481    -56.061978      0.029520714    421.90095     -849.28187      3375         
      4690  -56.348604      0.30137164    -56.047233      0.029520714    259.05694     -324.88337      3375         
      4700  -56.377845      0.326932      -56.050913      0.029520714    281.02845      554.36038      3375         
      4710  -56.526909      0.48645204    -56.040457      0.029520714    418.15075      1470.1741      3375         
      4720  -56.444511      0.40147266    -56.043039      0.029520714    345.10307     -700.09239      3375         
      4730  -56.307129      0.28066913    -56.02646       0.029520714    241.26121     -2293.8112      3375         
      4740  -56.682427      0.65703341    -56.025394      0.029520714    564.7813       507.92649      3375         
      4750  -56.348592      0.32154476    -56.027047      0.029520714    276.39761      2302.1432      3375         
      4760  -56.368894      0.34724727    -56.021646      0.029520714    298.49131      328.91042      3375         
      4770  -56.51412       0.47507719    -56.039042      0.029520714    408.37301     -1340.605       3375         
      4780  -56.368919      0.36100981    -56.007909      0.029520714    310.32149     -1068.8987      3375         
      4790  -56.357396      0.33120834    -56.026187      0.029520714    284.70436      184.37999      3375         
      4800  -56.591976      0.56113134    -56.030845      0.029520714    482.34455      879.54498      3375         
      4810  -56.346354      0.3110267     -56.035327      0.029520714    267.35636      274.9334       3375         
      4820  -56.547726      0.50235541    -56.045371      0.029520714    431.82117     -141.57245      3375         
      4830  -56.472839      0.41181282    -56.061026      0.029520714    353.9914       341.21901      3375         
      4840  -56.41749       0.35173765    -56.065753      0.029520714    302.35121     -987.65036      3375         
      4850  -56.428128      0.346087      -56.082041      0.029520714    297.49395     -1211.9888      3375         
      4860  -56.469953      0.36675324    -56.1032        0.029520714    315.2585       1358.1872      3375         
      4870  -56.483529      0.37003153    -56.113497      0.029520714    318.0765       1843.3686      3375         
      4880  -56.553719      0.40169661    -56.152022      0.029520714    345.29558     -484.81817      3375         
      4890  -56.501135      0.34187352    -56.159262      0.029520714    293.87208     -1766.6233      3375         
      4900  -56.526007      0.35889204    -56.167115      0.029520714    308.50107     -892.26789      3375         
      4910  -56.56141       0.35599529    -56.205414      0.029520714    306.01104      914.14868      3375         
      4920  -56.540526      0.31951942    -56.221006      0.029520714    274.65664      1572.2976      3375         
      4930  -56.541554      0.29832103    -56.243233      0.029520714    256.43466     -342.43053      3375         
      4940  -56.517964      0.26081879    -56.257146      0.029520714    224.198       -983.34834      3375         
      4950  -56.573457      0.31014004    -56.263317      0.029520714    266.5942       382.44263      3375         
      4960  -56.612668      0.33025046    -56.282417      0.029520714    283.88097     -230.03268      3375         
      4970  -56.527532      0.23445093    -56.293082      0.029520714    201.53237     -398.88271      3375         
      4980  -56.59174       0.29086891    -56.300871      0.029520714    250.02887      706.42334      3375         
      4990  -56.561027      0.25130359    -56.309723      0.029520714    216.0188       329.46078      3375         
      5000  -56.559986      0.24243073    -56.317555      0.029520714    208.39175     -460.69513      3375         
      5010  -56.610014      0.29878368    -56.311231      0.029520714    256.83235     -422.76713      3375         
      5020  -56.585228      0.26711819    -56.31811       0.029520714    229.61292     -140.78288      3375         
      5030  -56.523691      0.2046372     -56.319054      0.029520714    175.9047       1139.5847      3375         
      5040  -56.624637      0.30329719    -56.321339      0.029520714    260.71213      811.48547      3375         
      5050  -56.519521      0.19596021    -56.32356       0.029520714    168.44602     -1863.4223      3375         
      5060  -56.58128       0.2783463     -56.302933      0.029520714    239.26452     -1051.8319      3375         
      5070  -56.55465       0.24667242    -56.307978      0.029520714    212.03787      1487.6403      3375         
      5080  -56.542695      0.24280433    -56.29989       0.029520714    208.71289      735.75049      3375         
      5090  -56.620969      0.33244609    -56.288523      0.029520714    285.76832     -198.52776      3375         
      5100  -56.608025      0.32596759    -56.282057      0.029520714    280.19945     -481.21093      3375         
      5110  -56.456106      0.19818137    -56.257925      0.029520714    170.35531     -478.20014      3375         
      5120  -56.594798      0.34273658    -56.252062      0.029520714    294.61395      413.70673      3375         
      5130  -56.491714      0.26023678    -56.231477      0.029520714    223.6977       242.07587      3375         
      5140  -56.494561      0.28047634    -56.214085      0.029520714    241.09549     -393.7881       3375         
      5150  -56.638278      0.45403253    -56.184245      0.029520714    390.28316      803.42033      3375         
      5160  -56.505732      0.33653723    -56.169195      0.029520714    289.28503      65.542481      3375         
      5170  -56.418219      0.29225063    -56.125969      0.029520714    251.21659     -1917.0094      3375         
      5180  -56.566081      0.46292783    -56.103153      0.029520714    397.92951     -21.255044      3375         
      5190  -56.440813      0.35268307    -56.08813       0.029520714    303.16388      2047.8305      3375         
      5200  -56.328468      0.27254635    -56.055921      0.029520714    234.27892      632.50321      3375         
      5210  -56.52594       0.46687559    -56.059065      0.029520714    401.32297     -1172.9464      3375         
      5220  -56.40608       0.38694277    -56.019137      0.029520714    332.61328     -1429.9774      3375         
      5230  -56.417536      0.40720169    -56.010335      0.029520714    350.02771      154.51931      3375         
      5240  -56.544384      0.54023633    -56.004148      0.029520714    464.38335      1673.7704      3375         
      5250  -56.469818      0.47022215    -55.999596      0.029520714    404.19965      481.16558      3375         
      5260  -56.313264      0.31519779    -55.998066      0.029520714    270.9418      -1311.0798      3375         
      5270  -56.414103      0.41048725    -56.003616      0.029520714    352.85195     -234.28646      3375         
      5280  -56.452934      0.45983038    -55.993104      0.029520714    395.26696      353.45314      3375         
      5290  -56.348234      0.35213576    -55.996098      0.029520714    302.69342     -663.86549      3375         
      5300  -56.451998      0.45183377    -56.000164      0.029520714    388.39313      530.57595      3375         
      5310  -56.559679      0.55106737    -56.008611      0.029520714    473.69364      1239.0125      3375         
      5320  -56.367389      0.35651602    -56.010873      0.029520714    306.45866     -345.33594      3375         
      5330  -56.42059       0.38995865    -56.030632      0.029520714    335.20571     -1296.2359      3375         
      5340  -56.499133      0.48297677    -56.016156      0.029520714    415.16343     -989.27864      3375         
      5350  -56.317423      0.27868117    -56.038742      0.029520714    239.55237      888.6781       3375         
      5360  -56.375955      0.33678967    -56.039165      0.029520714    289.50203      2329.1995      3375         
      5370  -56.535745      0.48457371    -56.051171      0.029520714    416.53615     -261.20828      3375         
      5380  -56.393558      0.32970788    -56.06385       0.029520714    283.41458     -2391.8857      3375         
      5390  -56.514323      0.45276088    -56.061562      0.029520714    389.19007     -58.567003      3375         
      5400  -56.527414      0.44648616    -56.080927      0.029520714    383.79636      1162.8496      3375         
      5410  -56.367243      0.27513611    -56.092107      0.029520714    236.50506      180.50744      3375         
      5420  -56.454535      0.3517682     -56.102766      0.029520714    302.37747      95.749981      3375         
      5430  -56.528187      0.41390287    -56.114284      0.029520714    355.78799     -282.49117      3375         
      5440  -56.378008      0.25571899    -56.122289      0.029520714    219.81424     -309.14935      3375         
      5450  -56.569119      0.43430828    -56.134811      0.029520714    373.32834     -41.204803      3375         
      5460  -56.505421      0.35881613    -56.146605      0.029520714    308.43582     -463.39978      3375         
      5470  -56.501311      0.34137442    -56.159937      0.029520714    293.44305      689.26075      3375         
      5480  -56.527231      0.35620622    -56.171025      0.029520714    306.19236      1297.6714      3375         
      5490  -56.505076      0.31440691    -56.190669      0.029520714    270.26197     -1321.8641      3375         
      5500  -56.437387      0.24987197    -56.187515      0.029520714    214.78819     -1471.7557      3375         
      5510  -56.565278      0.36157076    -56.203707      0.029520714    310.80368      1186.3421      3375         
      5520  -56.517503      0.30412784    -56.213375      0.029520714    261.42615      1446.4434      3375         
      5530  -56.582595      0.35457039    -56.228024      0.029520714    304.78621     -50.344478      3375         
      5540  -56.508387      0.26926331    -56.239123      0.029520714    231.45685     -1361.7099      3375         
      5550  -56.532878      0.30108743    -56.231791      0.029520714    258.81263     -1160.1743      3375         
      5560  -56.535013      0.28213497    -56.252878      0.029520714    242.52124      1018.752       3375         
      5570  -56.467188      0.21194846    -56.255239      0.029520714    182.18941      1239.2405      3375         
      5580  -56.550392      0.28698692    -56.263405      0.029520714    246.69194     -493.35993      3375         
      5590  -56.602786      0.33516699    -56.267619      0.029520714    288.10719     -134.06713      3375         
      5600  -56.498865      0.22477968    -56.274086      0.029520714    193.21903      103.87501      3375         
      5610  -56.585775      0.30945725    -56.276317      0.029520714    266.00728     -890.481        3375         
      5620  -56.545846      0.26373868    -56.282107      0.029520714    226.70792     -112.64746      3375         
      5630  -56.4674        0.18343949    -56.283961      0.029520714    157.6833       1095.2318      3375         
      5640  -56.608294      0.32185966    -56.286434      0.029520714    276.6683       873.1103       3375         
      5650  -56.630718      0.33117857    -56.299539      0.029520714    284.67877     -630.94054      3375         
      5660  -56.486314      0.20330717    -56.283007      0.029520714    174.76141     -1784.8494      3375         
      5670  -56.619439      0.33528163    -56.284158      0.029520714    288.20573     -141.56836      3375         
      5680  -56.571009      0.28446877    -56.28654       0.029520714    244.52736      2023.2099      3375         
      5690  -56.571872      0.28718129    -56.284691      0.029520714    246.85902      739.40379      3375         
      5700  -56.533084      0.25094348    -56.28214       0.029520714    215.70925     -1426.0444      3375         
      5710  -56.567989      0.300212      -56.267777      0.029520714    258.06012     -599.92372      3375         
      5720  -56.561357      0.29997869    -56.261378      0.029520714    257.85957      462.53525      3375         
      5730  -56.588789      0.34044071    -56.248348      0.029520714    292.64044     -7.4447286      3375         
      5740  -56.523579      0.28928503    -56.234293      0.029520714    248.66738     -6.9750782      3375         
      5750  -56.604135      0.38593743    -56.218197      0.029520714    331.7491       192.61074      3375         
      5760  -56.448538      0.2475628     -56.200975      0.029520714    212.80324      383.32833      3375         
      5770  -56.490622      0.30306214    -56.18756       0.029520714    260.51008     -270.16647      3375         
      5780  -56.481208      0.32552419    -56.155684      0.029520714    279.8183      -927.2726       3375         
      5790  -56.552055      0.41028952    -56.141766      0.029520714    352.68198      399.70679      3375         
      5800  -56.475569      0.36075616    -56.114813      0.029520714    310.10345      1732.6069      3375         
      5810  -56.514198      0.41314219    -56.101056      0.029520714    355.13412     -691.10934      3375         
      5820  -56.423407      0.35086572    -56.072542      0.029520714    301.60171     -2319.5371      3375         
      5830  -56.513115      0.46800973    -56.045105      0.029520714    402.29787      326.84622      3375         
      5840  -56.329154      0.2891847     -56.039969      0.029520714    248.58113      1668.8356      3375         
      5850  -56.42726       0.41170609    -56.015554      0.029520714    353.89966      746.16478      3375         
      5860  -56.441201      0.42869219    -56.012509      0.029520714    368.50079     -453.63524      3375         
      5870  -56.393346      0.40317323    -55.990173      0.029520714    346.56488     -1256.2357      3375         
      5880  -56.47936       0.50528889    -55.974071      0.029520714    434.34278     -22.285108      3375         
      5890  -56.528458      0.55984307    -55.968615      0.029520714    481.23717      668.52278      3375         
      5900  -56.200006      0.2380641     -55.961942      0.029520714    204.63823     -340.49274      3375         
      5910  -56.456886      0.49731265    -55.959573      0.029520714    427.48645      336.18161      3375         
      5920  -56.51809       0.55806296    -55.960027      0.029520714    479.70699      894.1379       3375         
      5930  -56.253908      0.28480345    -55.969104      0.029520714    244.81504     -1228.2342      3375         
      5940  -56.365411      0.41992601    -55.945485      0.029520714    360.96544     -1317.3367      3375         
      5950  -56.573347      0.60615167    -55.967195      0.029520714    521.04371      1071.9433      3375         
      5960  -56.354528      0.38339404    -55.971133      0.029520714    329.56282      1571.2369      3375         
      5970  -56.441158      0.45854783    -55.982611      0.029520714    394.16449      383.44359      3375         
      5980  -56.482419      0.47108118    -56.011338      0.029520714    404.93807     -1654.7153      3375         
      5990  -56.33185       0.33018447    -56.001665      0.029520714    283.82425     -1534.4327      3375         
      6000  -56.444224      0.40768049    -56.036543      0.029520714    350.43928      1324.1496      3375         
      6010  -56.569663      0.51669321    -56.05297       0.029520714    444.14585      1150.6855      3375         
      6020  -56.418156      0.3383161     -56.07984       0.029520714    290.81414     -947.54398      3375         
      6030  -56.486161      0.3823985     -56.103762      0.029520714    328.70706     -167.42261      3375         
      6040  -56.523613      0.39544333    -56.12817       0.029520714    339.92031      754.075        3375         
      6050  -56.533496      0.38457466    -56.148921      0.029520714    330.57767     -290.42901      3375         
      6060  -56.482007      0.30582648    -56.176181      0.029520714    262.88629     -354.47293      3375         
      6070  -56.590922      0.39450941    -56.196413      0.029520714    339.11751     -65.882758      3375         
      6080  -56.449905      0.23770374    -56.212201      0.029520714    204.32846      357.72976      3375         
      6090  -56.558053      0.32596856    -56.232084      0.029520714    280.20028      214.70431      3375         
      6100  -56.589761      0.34556252    -56.244199      0.029520714    297.04311     -1103.4843      3375         
      6110  -56.463765      0.217249      -56.246516      0.029520714    186.74572     -176.71883      3375         
      6120  -56.479374      0.21827725    -56.261097      0.029520714    187.62959      1833.8511      3375         
      6130  -56.646506      0.3825364     -56.263969      0.029520714    328.8256       561.63766      3375         
      6140  -56.463685      0.1911112     -56.272574      0.029520714    164.27784     -1500.8505      3375         
      6150  -56.599292      0.33134897    -56.267943      0.029520714    284.82525     -974.57465      3375         
      6160  -56.634023      0.3637134     -56.27031       0.029520714    312.64548      588.43788      3375         
      6170  -56.433625      0.16219774    -56.271427      0.029520714    139.42403      871.14882      3375         
      6180  -56.481189      0.20860999    -56.272579      0.029520714    179.31968      163.6123       3375         
      6190  -56.691318      0.4223783     -56.268939      0.029520714    363.07341     -711.23731      3375         
      6200  -56.45234       0.18785048    -56.26449       0.029520714    161.47495     -93.241427      3375         
      6210  -56.522676      0.26199156    -56.260685      0.029520714    225.2061       375.52474      3375         
      6220  -56.663837      0.40766842    -56.256169      0.029520714    350.4289      -504.46505      3375         
      6230  -56.488706      0.23735111    -56.251355      0.029520714    204.02535      75.391876      3375         
      6240  -56.546126      0.30093115    -56.245195      0.029520714    258.6783       1233.2042      3375         
      6250  -56.602162      0.36073726    -56.241425      0.029520714    310.08721     -202.67331      3375         
      6260  -56.465411      0.22405831    -56.241353      0.029520714    192.59895     -1461.2273      3375         
      6270  -56.471092      0.25010323    -56.220989      0.029520714    214.98697     -230.18876      3375         
      6280  -56.611487      0.38832509    -56.223162      0.029520714    333.80151      847.90876      3375         
      6290  -56.507282      0.29175379    -56.215528      0.029520714    250.7895       1053.5213      3375         
      6300  -56.496125      0.28783871    -56.208286      0.029520714    247.42413     -228.60363      3375         
      6310  -56.507779      0.30869172    -56.199087      0.029520714    265.34923     -1517.9012      3375         
      6320  -56.525289      0.33539405    -56.189895      0.029520714    288.30236      180.15055      3375         
      6330  -56.480928      0.29537847    -56.185549      0.029520714    253.90525      1265.1162      3375         
      6340  -56.504454      0.32554597    -56.178908      0.029520714    279.83703     -500.48337      3375         
      6350  -56.460444      0.28816199    -56.172282      0.029520714    247.70202     -575.8585       3375         
      6360  -56.464513      0.30160426    -56.162909      0.029520714    259.2569       539.19065      3375         
[...]
     48420  -56.49784       0.33743494    -56.160405      0.029520714    290.0567       526.82611      3375         
     48430  -56.501346      0.34117411    -56.160172      0.029520714    293.27086     -171.92533      3375         
     48440  -56.526647      0.3603614     -56.166286      0.029520714    309.76413     -522.11367      3375         
     48450  -56.422209      0.2679067     -56.154302      0.029520714    230.29071     -1173.5455      3375         
     48460  -56.423414      0.26494742    -56.158467      0.029520714    227.74694      265.8285       3375         
     48470  -56.652184      0.49066612    -56.161518      0.029520714    421.77314      817.20054      3375         
     48480  -56.51981       0.36912718    -56.150682      0.029520714    317.29913      34.067959      3375         
     48490  -56.390011      0.23653331    -56.153478      0.029520714    203.32237      564.50098      3375         
     48500  -56.579414      0.42039729    -56.159017      0.029520714    361.37055     -149.15168      3375         
     48510  -56.609784      0.46385743    -56.145927      0.029520714    398.72858     -945.20941      3375         
     48520  -56.343233      0.19532046    -56.147912      0.029520714    167.89609      139.11023      3375         
     48530  -56.522237      0.37093613    -56.1513        0.029520714    318.85408      192.70422      3375         
     48540  -56.547514      0.40425336    -56.143261      0.029520714    347.49334     -237.6076       3375         
     48550  -56.44942       0.30783996    -56.14158       0.029520714    264.61706      84.00159       3375         
     48560  -56.543075      0.40673299    -56.136342      0.029520714    349.62482      17.51356       3375         
     48570  -56.56276       0.42820648    -56.134553      0.029520714    368.08327      512.41072      3375         
     48580  -56.432212      0.30877759    -56.123434      0.029520714    265.42305      672.79677      3375         
     48590  -56.506725      0.38314228    -56.123583      0.029520714    329.34641     -557.94188      3375         
     48600  -56.445727      0.33890282    -56.106824      0.029520714    291.31848     -1061.2243      3375         
     48610  -56.423221      0.32384445    -56.099377      0.029520714    278.37441     -333.54061      3375         
     48620  -56.571378      0.49999016    -56.071388      0.029520714    429.78802      439.87602      3375         
     48630  -56.412712      0.35351211    -56.0592        0.029520714    303.87652      797.3165       3375         
     48640  -56.346612      0.31634144    -56.03027       0.029520714    271.92487      718.04672      3375         
     48650  -56.48092       0.47959962    -56.001321      0.029520714    412.26046     -120.23975      3375         
     48660  -56.464284      0.48541686    -55.978867      0.029520714    417.26092     -1226.1856      3375         
     48670  -56.297082      0.35721062    -55.939871      0.029520714    307.05573     -899.01405      3375         
     48680  -56.443104      0.52074527    -55.922359      0.029520714    447.62897      578.20357      3375         
     48690  -56.373335      0.48328523    -55.89005       0.029520714    415.42858      1176.8446      3375         
     48700  -56.292334      0.41326455    -55.879069      0.029520714    355.2393       625.65559      3375         
     48710  -56.362385      0.50414762    -55.858237      0.029520714    433.36175     -616.24222      3375         
     48720  -56.459622      0.60968232    -55.84994       0.029520714    524.07863     -1286.7176      3375         
     48730  -56.169479      0.34752843    -55.821951      0.029520714    298.73299      241.21991      3375         
     48740  -56.344167      0.51260326    -55.831564      0.029520714    440.63015      775.08893      3375         
     48750  -56.52481       0.69068991    -55.83412       0.029520714    593.71219     -164.65587      3375         
     48760  -56.325409      0.48849198    -55.836917      0.029520714    419.90427      82.589794      3375         
     48770  -56.301042      0.44855224    -55.85249       0.029520714    385.57235      59.85607       3375         
     48780  -56.458042      0.58998186    -55.86806       0.029520714    507.14425     -528.88995      3375         
     48790  -56.373321      0.48171277    -55.891609      0.029520714    414.07691      90.432479      3375         
     48800  -56.307581      0.39651968    -55.911061      0.029520714    340.84552      43.380637      3375         
     48810  -56.447287      0.51045669    -55.93683       0.029520714    438.78498     -84.657517      3375         
     48820  -56.41288       0.44580258    -55.967078      0.029520714    383.20876      577.74022      3375         
     48830  -56.527543      0.51302107    -56.014522      0.029520714    440.9893      -131.68276      3375         
     48840  -56.492689      0.472283      -56.020406      0.029520714    405.97114     -413.05189      3375         
     48850  -56.345242      0.28291226    -56.06233       0.029520714    243.18939      555.50357      3375         
     48860  -56.450566      0.36195088    -56.088615      0.029520714    311.13043      137.26282      3375         
     48870  -56.60179       0.49548547    -56.106305      0.029520714    425.91582     -552.96089      3375         
     48880  -56.399387      0.26992404    -56.129463      0.029520714    232.02481     -638.57872      3375         
     48890  -56.507631      0.35514434    -56.152487      0.029520714    305.27957     -463.20311      3375         
     48900  -56.597904      0.43604299    -56.161861      0.029520714    374.81948      1011.0586      3375         
     48910  -56.428289      0.2561993     -56.17209       0.029520714    220.22712      1237.6593      3375         
     48920  -56.505175      0.31447082    -56.190704      0.029520714    270.31691     -282.15029      3375         
     48930  -56.628819      0.42843241    -56.200386      0.029520714    368.27748     -690.01377      3375         
     48940  -56.437227      0.22745455    -56.209772      0.029520714    195.51833     -591.43744      3375         
     48950  -56.476856      0.26294081    -56.213915      0.029520714    226.02207     -491.86312      3375         
     48960  -56.632979      0.41170141    -56.221277      0.029520714    353.89564      654.54468      3375         
     48970  -56.501299      0.2750819     -56.226218      0.029520714    236.45846      700.21138      3375         
     48980  -56.512765      0.28316955    -56.229596      0.029520714    243.41055      186.90367      3375         
     48990  -56.578163      0.34403296    -56.23413       0.029520714    295.72831     -62.510124      3375         
     49000  -56.53024       0.29005298    -56.240187      0.029520714    249.3275      -1091.629       3375         
     49010  -56.533778      0.30579374    -56.227985      0.029520714    262.85815     -368.63286      3375         
     49020  -56.624275      0.38649603    -56.237779      0.029520714    332.22927      987.70909      3375         
     49030  -56.51274       0.27674589    -56.235994      0.029520714    237.88882      179.25129      3375         
     49040  -56.468167      0.23336515    -56.234802      0.029520714    200.59904     -254.51941      3375         
     49050  -56.558021      0.32406124    -56.23396       0.029520714    278.56076      31.907221      3375         
     49060  -56.536206      0.30863551    -56.22757       0.029520714    265.30091     -272.49361      3375         
     49070  -56.551549      0.32981726    -56.221732      0.029520714    283.5086       469.50024      3375         
     49080  -56.597594      0.37656162    -56.221032      0.029520714    323.68972      287.02405      3375         
     49090  -56.478499      0.27168236    -56.206816      0.029520714    233.53624     -934.2939       3375         
     49100  -56.453958      0.25393077    -56.200027      0.029520714    218.27711     -134.97852      3375         
     49110  -56.577641      0.3848206     -56.19282       0.029520714    330.78908      519.19536      3375         
     49120  -56.547648      0.37093265    -56.176715      0.029520714    318.85109     -50.003146      3375         
     49130  -56.430505      0.26609041    -56.164414      0.029520714    228.72944      337.97041      3375         
     49140  -56.462116      0.31065543    -56.151461      0.029520714    267.03722      131.20196      3375         
     49150  -56.488768      0.3598427     -56.128925      0.029520714    309.31825     -643.16069      3375         
     49160  -56.538807      0.43146742    -56.10734       0.029520714    370.88636     -400.05497      3375         
     49170  -56.448556      0.36995977    -56.078596      0.029520714    318.01482     -57.890067      3375         
     49180  -56.353239      0.28963383    -56.063605      0.029520714    248.9672       646.5915       3375         
     49190  -56.519677      0.49179803    -56.027878      0.029520714    422.74613      1452.6033      3375         
     49200  -56.566541      0.56598979    -56.000551      0.029520714    486.52084     -152.72413      3375         
     49210  -56.244335      0.28233209    -55.962003      0.029520714    242.69068     -2045.1878      3375         
     49220  -56.434897      0.48614989    -55.948747      0.029520714    417.89103     -909.14553      3375         
     49230  -56.49833       0.58438828    -55.913942      0.029520714    502.33606      1277.6547      3375         
     49240  -56.278145      0.39279419    -55.885351      0.029520714    337.64313      979.05392      3375         
     49250  -56.457531      0.56405241    -55.893479      0.029520714    484.85548     -150.97228      3375         
     49260  -56.403713      0.56344257    -55.84027       0.029520714    484.33127     -69.674949      3375         
     49270  -56.24661       0.39751001    -55.8491        0.029520714    341.69681     -303.57918      3375         
     49280  -56.431997      0.58476736    -55.84723       0.029520714    502.66191     -310.53774      3375         
     49290  -56.430121      0.58236392    -55.847757      0.029520714    500.59593     -25.125472      3375         
     49300  -56.282242      0.43761383    -55.844628      0.029520714    376.16977     -260.56994      3375         
     49310  -56.341181      0.47431244    -55.866869      0.029520714    407.71564      729.64812      3375         
     49320  -56.412         0.54620926    -55.865791      0.029520714    469.51764      596.10856      3375         
     49330  -56.388436      0.49941837    -55.889018      0.029520714    429.29652     -1334.8758      3375         
     49340  -56.392596      0.48506148    -55.907534      0.029520714    416.95543      75.843503      3375         
     49350  -56.341691      0.40648665    -55.935204      0.029520714    349.41306      1480.7805      3375         
     49360  -56.488932      0.52590283    -55.963029      0.029520714    452.06237     -574.51434      3375         
     49370  -56.435617      0.45022309    -55.985394      0.029520714    387.0086      -1383.8878      3375         
     49380  -56.337167      0.34467382    -55.992493      0.029520714    296.27919     -65.230935      3375         
     49390  -56.416057      0.3892349     -56.026822      0.029520714    334.58358      552.87453      3375         
     49400  -56.54598       0.4946631     -56.051317      0.029520714    425.20892      1658.0895      3375         
     49410  -56.458289      0.40023343    -56.058056      0.029520714    344.03784      283.91422      3375         
     49420  -56.409926      0.31926147    -56.090664      0.029520714    274.43491     -1987.5167      3375         
     49430  -56.509003      0.42799063    -56.081013      0.029520714    367.89773     -312.37704      3375         
     49440  -56.542608      0.44296495    -56.099643      0.029520714    380.76956      311.37769      3375         
     49450  -56.35899       0.25362651    -56.105364      0.029520714    218.01556     -332.12451      3375         
     49460  -56.479312      0.36360174    -56.11571       0.029520714    312.5495       1370.9079      3375         
     49470  -56.622494      0.50577429    -56.116719      0.029520714    434.76002      847.39967      3375         
     49480  -56.448268      0.32048142    -56.127786      0.029520714    275.48357     -1156.7584      3375         
     49490  -56.392923      0.26930116    -56.123622      0.029520714    231.48938     -848.82217      3375         
     49500  -56.515794      0.39104252    -56.124751      0.029520714    336.1374      -738.93296      3375         
     49510  -56.50693       0.36844507    -56.138485      0.029520714    316.71279      796.29637      3375         
     49520  -56.511654      0.38629036    -56.125364      0.029520714    332.05248      2007.8345      3375         
     49530  -56.508514      0.35480053    -56.153714      0.029520714    304.98404     -897.41363      3375         
     49540  -56.440511      0.30689124    -56.13362       0.029520714    263.80155     -1429.2848      3375         
     49550  -56.500961      0.35479679    -56.146164      0.029520714    304.98082      887.9449       3375         
     49560  -56.439443      0.29169855    -56.147745      0.029520714    250.74202      179.02409      3375         
     49570  -56.504904      0.35231099    -56.152593      0.029520714    302.84405     -456.00857      3375         
     49580  -56.57991       0.42346302    -56.156447      0.029520714    364.00584      49.653029      3375         
     49590  -56.454857      0.30151904    -56.153338      0.029520714    259.18364     -195.97128      3375         
     49600  -56.420193      0.260792      -56.159401      0.029520714    224.17497      578.12859      3375         
     49610  -56.597103      0.4276759     -56.169427      0.029520714    367.62719      336.63074      3375         
     49620  -56.532488      0.37546732    -56.157021      0.029520714    322.74906     -596.83785      3375         
     49630  -56.431564      0.26612085    -56.165443      0.029520714    228.75561      278.15677      3375         
     49640  -56.507893      0.32860346    -56.179289      0.029520714    282.46522      119.52216      3375         
     49650  -56.535783      0.37455061    -56.161232      0.029520714    321.96107     -1427.6426      3375         
     49660  -56.506237      0.33577012    -56.170467      0.029520714    288.62563     -117.32438      3375         
     49670  -56.446027      0.27440048    -56.171627      0.029520714    235.87272      1839.6561      3375         
     49680  -56.542574      0.36482797    -56.177746      0.029520714    313.60356      921.53603      3375         
     49690  -56.520657      0.34514467    -56.175512      0.029520714    296.68393     -900.88761      3375         
     49700  -56.438384      0.26487429    -56.173509      0.029520714    227.68407     -1552.2198      3375         
     49710  -56.545859      0.37142696    -56.174432      0.029520714    319.27601     -545.47752      3375         
     49720  -56.575096      0.40245905    -56.172637      0.029520714    345.95096      1079.8431      3375         
     49730  -56.424364      0.2507652     -56.173598      0.029520714    215.556        1158.0783      3375         
     49740  -56.496562      0.32412768    -56.172434      0.029520714    278.61787     -53.794394      3375         
     49750  -56.594322      0.41510492    -56.179217      0.029520714    356.82127     -360.3268       3375         
     49760  -56.46018       0.29778623    -56.162394      0.029520714    255.97495     -318.14667      3375         
     49770  -56.473223      0.30789762    -56.165325      0.029520714    264.66663     -1020.3063      3375         
     49780  -56.549847      0.38515637    -56.16469       0.029520714    331.0777      -93.580646      3375         
     49790  -56.557331      0.40026963    -56.157061      0.029520714    344.06895      1465.4143      3375         
     49800  -56.408402      0.25810073    -56.150301      0.029520714    221.86157      561.16183      3375         
     49810  -56.4885        0.3364344     -56.152065      0.029520714    289.19664     -816.98512      3375         
     49820  -56.512418      0.37561491    -56.136803      0.029520714    322.87594     -583.57241      3375         
     49830  -56.51886       0.38827037    -56.13059       0.029520714    333.75447     -375.60791      3375         
     49840  -56.37349       0.25107216    -56.122418      0.029520714    215.81987      806.60567      3375         
     49850  -56.474576      0.36167197    -56.112904      0.029520714    310.89068      687.32774      3375         
     49860  -56.496879      0.38798273    -56.108896      0.029520714    333.50722     -1109.4742      3375         
     49870  -56.497533      0.41866994    -56.078863      0.029520714    359.88573     -0.52422562     3375         
     49880  -56.44453       0.36892212    -56.075608      0.029520714    317.12285      1306.1182      3375         
     49890  -56.401621      0.33595866    -56.065662      0.029520714    288.7877      -296.92102      3375         
     49900  -56.413857      0.36299302    -56.050864      0.029520714    312.02624     -583.51982      3375         
     49910  -56.509293      0.47220765    -56.037086      0.029520714    405.90638     -373.14983      3375         
     49920  -56.394264      0.37628737    -56.017976      0.029520714    323.45397     -725.19715      3375         
     49930  -56.448196      0.44040973    -56.007786      0.029520714    378.57311      548.31687      3375         
     49940  -56.501833      0.50874236    -55.993091      0.029520714    437.31135      557.77251      3375         
     49950  -56.343525      0.35978959    -55.983735      0.029520714    309.2726       238.12469      3375         
     49960  -56.389344      0.41778981    -55.971554      0.029520714    359.12918      1351.4204      3375         
     49970  -56.487307      0.50679575    -55.980511      0.029520714    435.63806     -778.68282      3375         
     49980  -56.449279      0.5082926     -55.940987      0.029520714    436.92474     -2462.9358      3375         
     49990  -56.332032      0.37859491    -55.953437      0.029520714    325.43752      352.52505      3375         
     50000  -56.435293      0.48881488    -55.946478      0.029520714    420.18183      1451.0611      3375         
Loop time of 83.1196 on 3 procs for 50000 steps with 10 atoms

Performance: 25.987 ns/day, 0.924 hours/ns, 601.543 timesteps/s, 6.015 katom-step/s
168.7% CPU use with 3 MPI tasks x no OpenMP threads

MPI task timing breakdown:
Section |  min time  |  avg time  |  max time  |%varavg| %total
---------------------------------------------------------------
Pair    | 29.79      | 46.625     | 79.107     | 336.4 | 56.09
Neigh   | 0.0010446  | 0.0013967  | 0.0019927  |   1.1 |  0.00
Comm    | 1.446      | 33.854     | 50.681     | 393.9 | 40.73
Output  | 0.46714    | 0.47438    | 0.48404    |   1.0 |  0.57
Modify  | 1.8982     | 1.9672     | 2.0384     |   4.1 |  2.37
Other   |            | 0.1975     |            |       |  0.24

Nlocal:        3.33333 ave          10 max           0 min
Histogram: 2 0 0 0 0 0 0 0 0 1
Nghost:             74 ave          92 max          44 min
Histogram: 1 0 0 0 0 0 0 0 1 1
Neighs:              0 ave           0 max           0 min
Histogram: 3 0 0 0 0 0 0 0 0 0
FullNghs:           30 ave          90 max           0 min
Histogram: 2 0 0 0 0 0 0 0 0 1

Total # of neighbors = 90
Ave neighs/atom = 9
Neighbor list builds = 231
Dangerous builds = 0

write_data	restart.data
System init for write_data ...
Generated 0 of 1 mixed pair_coeff terms from geometric mixing rule
#
Total wall time: 0:01:25
