LAMMPS data file via write_data, version 2 Aug 2023, timestep = 50000, units = metal

10 atoms
2 atom types

0 15 xlo xhi
0 15 ylo yhi
0 15 zlo zhi

Masses

1 12
2 2

Atoms # atomic

10 2 10.024979582927653 7.11036340210828 7.653606311086492 0 0 0
5 2 5.218775349517584 8.307490310321272 6.322454338859114 0 0 0
8 2 8.201955132251944 6.2535886107056475 8.775964799282976 0 0 0
9 2 8.936705089658936 8.423178211983139 6.876446953092748 0 0 0
1 1 6.238158744976627 7.949878565873127 6.683460445662286 0 0 0
3 1 8.002966945350643 7.004517975154579 8.045632793915255 0 0 0
2 1 6.632822910998712 7.464959538139886 7.892463464483346 0 0 0
6 2 6.959944673877146 7.921952992313875 5.832527150324828 0 0 0
4 1 9.099837218953658 7.539102272404868 7.491324164807202 0 0 0
7 2 5.938925250802379 7.452676364560826 8.750715232656912 0 0 0

Velocities

10 5.732398237487861 0.9848305518043886 -4.44526031979144
5 -15.706522522924448 3.5410466663500384 21.621785386905326
8 -7.274445952917667 -0.6726420368802157 0.5572386667726574
9 22.636217031200456 11.832307069207644 4.763684432511527
1 -2.4555710494455054 -3.5493377191497486 -4.228577816411642
3 -3.443879897847431 3.4019302767757353 2.149977532041185
2 1.6920348542302757 -3.5972859354986864 1.9799095035386787
6 5.236946669953192 3.3608270900606256 2.1711492449067054
4 3.562788316659863 -0.19643916726609267 -4.484216266144847
7 -6.756826804384072 4.60042593029083 2.828844870555903
