ITEM: TIMESTEP
0
ITEM: NUMBER OF ATOMS
10
ITEM: BOX BOUNDS pp pp pp
0.0000000000000000e+00 1.5000000000000000e+01
0.0000000000000000e+00 1.5000000000000000e+01
0.0000000000000000e+00 1.5000000000000000e+01
ITEM: ATOMS id type x y z
10 2 7.09546 5.13857 7.9639
4 1 7.36795 6.15146 7.62146
7 2 8.7158 9.06669 7.56662
8 2 8.38732 6.9891 9.31844
9 2 7.14939 6.19236 6.55582
1 1 6.88351 8.46207 6.68752
3 1 7.95478 7.14825 8.28231
2 1 7.97085 8.3477 7.4949
6 2 6.10951 7.77346 6.87558
5 2 6.60398 9.40297 6.09151
ITEM: TIMESTEP
100
ITEM: NUMBER OF ATOMS
10
ITEM: BOX BOUNDS pp pp pp
0.0000000000000000e+00 1.5000000000000000e+01
0.0000000000000000e+00 1.5000000000000000e+01
0.0000000000000000e+00 1.5000000000000000e+01
ITEM: ATOMS id type x y z
10 2 7.30439 5.1384 7.92528
4 1 7.43323 6.1493 7.51806
7 2 8.69089 9.22007 7.42555
8 2 8.57846 6.90633 9.05761
9 2 7.15586 6.35386 6.51257
1 1 6.79046 8.46264 6.8866
3 1 7.99959 7.09439 8.19262
2 1 7.95154 8.37169 7.48038
6 2 5.92485 7.8287 7.22263
5 2 6.42059 9.30456 6.27943
ITEM: TIMESTEP
200
ITEM: NUMBER OF ATOMS
10
ITEM: BOX BOUNDS pp pp pp
0.0000000000000000e+00 1.5000000000000000e+01
0.0000000000000000e+00 1.5000000000000000e+01
0.0000000000000000e+00 1.5000000000000000e+01
ITEM: ATOMS id type x y z
10 2 7.36742 5.0833 7.78727
4 1 7.43318 6.14153 7.45163
7 2 8.60382 9.23918 7.51849
8 2 8.93589 6.85795 8.85985
9 2 6.91839 6.26474 6.49616
1 1 6.67735 8.45804 6.98679
3 1 8.14369 7.0979 8.12438
2 1 7.91381 8.4163 7.52348
6 2 5.93877 7.77915 7.30284
5 2 6.35151 9.31309 6.40674
ITEM: TIMESTEP
300
ITEM: NUMBER OF ATOMS
10
ITEM: BOX BOUNDS pp pp pp
0.0000000000000000e+00 1.5000000000000000e+01
0.0000000000000000e+00 1.5000000000000000e+01
0.0000000000000000e+00 1.5000000000000000e+01
ITEM: ATOMS id type x y z
10 2 7.36786 5.15395 7.80843
4 1 7.44706 6.16335 7.38725
7 2 8.68931 9.18296 7.40816
8 2 8.89283 6.93695 8.8809
9 2 7.11731 6.39379 6.37806
1 1 6.59705 8.43283 7.13961
3 1 8.21394 7.09339 8.01949
2 1 7.91154 8.39746 7.49128
6 2 5.85829 7.69096 7.56675
5 2 6.18088 9.33922 6.62089
ITEM: TIMESTEP
400
ITEM: NUMBER OF ATOMS
10
ITEM: BOX BOUNDS pp pp pp
0.0000000000000000e+00 1.5000000000000000e+01
0.0000000000000000e+00 1.5000000000000000e+01
0.0000000000000000e+00 1.5000000000000000e+01
ITEM: ATOMS id type x y z
10 2 7.61546 5.14495 7.58104
4 1 7.4536 6.17928 7.38843
7 2 8.62704 9.17395 7.44614
8 2 9.12682 6.98067 8.60147
9 2 6.85037 6.28325 6.50598
1 1 6.54552 8.44176 7.22308
3 1 8.29493 7.07427 7.91638
2 1 7.86971 8.39792 7.54225
6 2 5.8071 7.74366 7.53112
5 2 6.11463 9.33407 6.80238
ITEM: TIMESTEP
500
ITEM: NUMBER OF ATOMS
10
ITEM: BOX BOUNDS pp pp pp
0.0000000000000000e+00 1.5000000000000000e+01
0.0000000000000000e+00 1.5000000000000000e+01
0.0000000000000000e+00 1.5000000000000000e+01
ITEM: ATOMS id type x y z
10 2 7.73323 5.03093 7.48202
4 1 7.50475 6.14903 7.31514
7 2 8.5214 9.21141 7.28863
8 2 9.14635 6.92779 8.53595
9 2 6.9179 6.36634 6.38628
1 1 6.51436 8.44415 7.41151
3 1 8.28611 7.13133 7.82677
2 1 7.83951 8.38694 7.50197
6 2 5.89604 7.66284 7.85739
5 2 6.04066 9.35198 7.00636
ITEM: TIMESTEP
600
ITEM: NUMBER OF ATOMS
10
ITEM: BOX BOUNDS pp pp pp
0.0000000000000000e+00 1.5000000000000000e+01
0.0000000000000000e+00 1.5000000000000000e+01
0.0000000000000000e+00 1.5000000000000000e+01
ITEM: ATOMS id type x y z
10 2 7.70138 5.12164 7.41558
4 1 7.53593 6.15978 7.26386
7 2 8.30362 9.37194 7.44968
8 2 9.27019 6.89686 8.13633
9 2 6.87981 6.29831 6.44057
1 1 6.51729 8.40046 7.56476
3 1 8.35081 7.11375 7.70734
2 1 7.80552 8.42937 7.49885
6 2 5.85022 7.64031 7.96188
5 2 5.86148 9.27075 7.27615
ITEM: TIMESTEP
700
ITEM: NUMBER OF ATOMS
10
ITEM: BOX BOUNDS pp pp pp
0.0000000000000000e+00 1.5000000000000000e+01
0.0000000000000000e+00 1.5000000000000000e+01
0.0000000000000000e+00 1.5000000000000000e+01
ITEM: ATOMS id type x y z
10 2 7.92775 5.13531 7.24107
4 1 7.55213 6.19673 7.19973
7 2 8.2228 9.43081 7.40531
8 2 9.51939 6.8472 7.74023
9 2 6.71102 6.41397 6.54172
1 1 6.41755 8.34756 7.72002
3 1 8.39402 7.14103 7.58551
2 1 7.788 8.42325 7.5385
6 2 5.99378 7.50014 8.23215
5 2 5.83909 9.24116 7.466
ITEM: TIMESTEP
800
ITEM: NUMBER OF ATOMS
10
ITEM: BOX BOUNDS pp pp pp
0.0000000000000000e+00 1.5000000000000000e+01
0.0000000000000000e+00 1.5000000000000000e+01
0.0000000000000000e+00 1.5000000000000000e+01
ITEM: ATOMS id type x y z
10 2 7.92717 5.19585 7.15622
4 1 7.56222 6.22702 7.08123
7 2 8.14746 9.41951 7.15886
8 2 9.41166 6.95518 7.77919
9 2 6.69555 6.36513 6.42114
1 1 6.45239 8.24512 7.92913
3 1 8.44478 7.17514 7.46253
2 1 7.71838 8.47829 7.49963
6 2 6.08696 7.41294 8.57416
5 2 5.7886 9.118 7.9643
ITEM: TIMESTEP
900
ITEM: NUMBER OF ATOMS
10
ITEM: BOX BOUNDS pp pp pp
0.0000000000000000e+00 1.5000000000000000e+01
0.0000000000000000e+00 1.5000000000000000e+01
0.0000000000000000e+00 1.5000000000000000e+01
ITEM: ATOMS id type x y z
10 2 8.0869 5.2355 7.04299
4 1 7.57165 6.20474 7.06777
7 2 8.10049 9.42237 7.32127
8 2 9.54015 7.23062 7.39723
9 2 6.5385 6.30434 6.738
1 1 6.45142 8.21303 7.99013
3 1 8.41052 7.24581 7.27972
2 1 7.70845 8.43789 7.61086
6 2 6.1789 7.30492 8.48498
5 2 5.82676 9.11339 8.21372
ITEM: TIMESTEP
1000
ITEM: NUMBER OF ATOMS
10
ITEM: BOX BOUNDS pp pp pp
0.0000000000000000e+00 1.5000000000000000e+01
0.0000000000000000e+00 1.5000000000000000e+01
0.0000000000000000e+00 1.5000000000000000e+01
ITEM: ATOMS id type x y z
10 2 7.94552 5.2013 6.91005
4 1 7.59674 6.24813 6.96369
7 2 7.94623 9.40286 7.10666
8 2 9.50114 7.22473 7.32512
9 2 6.56928 6.31787 6.66657
1 1 6.50018 8.13753 8.15656
3 1 8.39422 7.28826 7.24911
2 1 7.68425 8.47063 7.58861
6 2 6.34831 7.29558 8.82944
5 2 5.76118 8.91026 8.30332
ITEM: TIMESTEP
1100
ITEM: NUMBER OF ATOMS
10
ITEM: BOX BOUNDS pp pp pp
0.0000000000000000e+00 1.5000000000000000e+01
0.0000000000000000e+00 1.5000000000000000e+01
0.0000000000000000e+00 1.5000000000000000e+01
ITEM: ATOMS id type x y z
10 2 8.13554 5.33528 6.94723
4 1 7.60401 6.28326 6.95278
7 2 7.83159 9.49446 7.43246
8 2 9.3917 7.31651 6.97951
9 2 6.51782 6.3099 6.75864
1 1 6.55924 8.09687 8.24886
3 1 8.36436 7.3255 7.13581
2 1 7.64222 8.42133 7.58142
6 2 6.42041 7.12835 8.7186
5 2 5.808 8.87375 8.53931
ITEM: TIMESTEP
1200
ITEM: NUMBER OF ATOMS
10
ITEM: BOX BOUNDS pp pp pp
0.0000000000000000e+00 1.5000000000000000e+01
0.0000000000000000e+00 1.5000000000000000e+01
0.0000000000000000e+00 1.5000000000000000e+01
ITEM: ATOMS id type x y z
10 2 8.12968 5.33337 6.64171
4 1 7.60477 6.30507 6.88039
7 2 7.65878 9.50896 7.39135
8 2 9.44325 7.31489 6.64368
9 2 6.54636 6.17478 6.81626
1 1 6.62066 7.99819 8.42609
3 1 8.34973 7.41131 7.06694
2 1 7.5819 8.4687 7.5762
6 2 6.53759 7.06663 8.96937
5 2 5.86602 8.7218 8.72888
ITEM: TIMESTEP
1300
ITEM: NUMBER OF ATOMS
10
ITEM: BOX BOUNDS pp pp pp
0.0000000000000000e+00 1.5000000000000000e+01
0.0000000000000000e+00 1.5000000000000000e+01
0.0000000000000000e+00 1.5000000000000000e+01
ITEM: ATOMS id type x y z
10 2 8.14153 5.53693 6.42651
4 1 7.59489 6.31664 6.87141
7 2 7.32327 9.53828 7.34752
8 2 9.28729 7.50683 6.6076
9 2 6.5037 6.33211 6.90592
1 1 6.74276 7.90534 8.53083
3 1 8.32027 7.4486 6.91992
2 1 7.50792 8.46478 7.63135
6 2 6.92384 6.92896 8.95627
5 2 5.94925 8.56472 8.92413
ITEM: TIMESTEP
1400
ITEM: NUMBER OF ATOMS
10
ITEM: BOX BOUNDS pp pp pp
0.0000000000000000e+00 1.5000000000000000e+01
0.0000000000000000e+00 1.5000000000000000e+01
0.0000000000000000e+00 1.5000000000000000e+01
ITEM: ATOMS id type x y z
10 2 8.16438 5.41787 6.297
4 1 7.64301 6.30411 6.85183
7 2 7.38764 9.56206 7.49842
8 2 9.24351 7.74109 6.33368
9 2 6.5819 6.11339 6.97029
1 1 6.79924 7.82534 8.63698
3 1 8.16893 7.56611 6.75363
2 1 7.51046 8.50763 7.68105
6 2 6.91706 6.78693 8.95208
5 2 6.09965 8.37949 9.29657
ITEM: TIMESTEP
1500
ITEM: NUMBER OF ATOMS
10
ITEM: BOX BOUNDS pp pp pp
0.0000000000000000e+00 1.5000000000000000e+01
0.0000000000000000e+00 1.5000000000000000e+01
0.0000000000000000e+00 1.5000000000000000e+01
ITEM: ATOMS id type x y z
10 2 8.0975 5.58807 6.25946
4 1 7.61495 6.37894 6.77784
7 2 7.09267 9.46943 7.39462
8 2 9.0572 7.85501 6.32347
9 2 6.56798 6.25567 7.0495
1 1 6.95112 7.74666 8.71561
3 1 8.11972 7.59888 6.74298
2 1 7.44356 8.46316 7.69901
6 2 7.40124 6.79498 8.94288
5 2 6.13129 8.13096 9.30637
ITEM: TIMESTEP
1600
ITEM: NUMBER OF ATOMS
10
ITEM: BOX BOUNDS pp pp pp
0.0000000000000000e+00 1.5000000000000000e+01
0.0000000000000000e+00 1.5000000000000000e+01
0.0000000000000000e+00 1.5000000000000000e+01
ITEM: ATOMS id type x y z
10 2 8.18781 5.58577 6.15727
4 1 7.62841 6.39409 6.72347
7 2 7.1767 9.51515 7.64121
8 2 8.79212 8.07303 5.98522
9 2 6.7829 5.95908 7.22205
1 1 7.03104 7.7059 8.75625
3 1 8.03693 7.67656 6.70167
2 1 7.40287 8.44709 7.71599
6 2 7.2911 6.65732 8.97368
5 2 6.29783 8.08778 9.52529
ITEM: TIMESTEP
1700
ITEM: NUMBER OF ATOMS
10
ITEM: BOX BOUNDS pp pp pp
0.0000000000000000e+00 1.5000000000000000e+01
0.0000000000000000e+00 1.5000000000000000e+01
0.0000000000000000e+00 1.5000000000000000e+01
ITEM: ATOMS id type x y z
10 2 8.21355 5.69654 6.16819
4 1 7.59846 6.43076 6.67112
7 2 6.92388 9.41715 7.68503
8 2 8.81024 8.04522 6.06953
9 2 6.69992 6.11078 7.2059
1 1 7.13752 7.6492 8.77482
3 1 8.00207 7.70415 6.71665
2 1 7.3184 8.42427 7.71417
6 2 7.61283 6.71284 8.90994
5 2 6.52491 7.98722 9.5899
ITEM: TIMESTEP
1800
ITEM: NUMBER OF ATOMS
10
ITEM: BOX BOUNDS pp pp pp
0.0000000000000000e+00 1.5000000000000000e+01
0.0000000000000000e+00 1.5000000000000000e+01
0.0000000000000000e+00 1.5000000000000000e+01
ITEM: ATOMS id type x y z
10 2 8.10784 5.71014 6.04491
4 1 7.61456 6.46257 6.67838
7 2 6.83222 9.45338 7.7573
8 2 8.60998 8.14345 5.88856
9 2 6.90647 5.91973 7.29978
1 1 7.161 7.59612 8.79703
3 1 7.94877 7.7515 6.64207
2 1 7.33443 8.43595 7.76484
6 2 7.7461 6.64284 8.91413
5 2 6.56885 7.87367 9.69045
ITEM: TIMESTEP
1900
ITEM: NUMBER OF ATOMS
10
ITEM: BOX BOUNDS pp pp pp
0.0000000000000000e+00 1.5000000000000000e+01
0.0000000000000000e+00 1.5000000000000000e+01
0.0000000000000000e+00 1.5000000000000000e+01
ITEM: ATOMS id type x y z
10 2 8.1936 5.8549 5.90812
4 1 7.65678 6.44937 6.66369
7 2 6.79981 9.34757 7.86459
8 2 8.46052 8.2825 5.82898
9 2 6.9664 6.06495 7.40829
1 1 7.24872 7.51086 8.81497
3 1 7.7931 7.79997 6.60102
2 1 7.30369 8.45005 7.7987
6 2 7.83282 6.63943 8.81459
5 2 6.8571 7.76918 9.79417
ITEM: TIMESTEP
2000
ITEM: NUMBER OF ATOMS
10
ITEM: BOX BOUNDS pp pp pp
0.0000000000000000e+00 1.5000000000000000e+01
0.0000000000000000e+00 1.5000000000000000e+01
0.0000000000000000e+00 1.5000000000000000e+01
ITEM: ATOMS id type x y z
10 2 8.05142 5.81596 5.90137
4 1 7.63672 6.50262 6.61255
7 2 6.45313 9.28821 7.91448
8 2 8.33739 8.42472 5.87678
9 2 7.03903 5.87929 7.26475
1 1 7.4256 7.4937 8.83058
3 1 7.73157 7.87841 6.57484
2 1 7.21337 8.38316 7.88295
6 2 8.19639 6.67833 8.69657
5 2 7.0031 7.58608 9.82947
ITEM: TIMESTEP
2100
ITEM: NUMBER OF ATOMS
10
ITEM: BOX BOUNDS pp pp pp
0.0000000000000000e+00 1.5000000000000000e+01
0.0000000000000000e+00 1.5000000000000000e+01
0.0000000000000000e+00 1.5000000000000000e+01
ITEM: ATOMS id type x y z
10 2 8.14925 6.12522 5.60327
4 1 7.67192 6.54567 6.54143
7 2 6.60683 9.17783 8.15164
8 2 7.82156 8.55971 5.78509
9 2 7.36503 5.97063 7.41389
1 1 7.56844 7.45391 8.85596
3 1 7.56454 7.85565 6.60382
2 1 7.17609 8.3565 7.90326
6 2 8.14723 6.61266 8.62721
5 2 7.14823 7.50361 9.88117
ITEM: TIMESTEP
2200
ITEM: NUMBER OF ATOMS
10
ITEM: BOX BOUNDS pp pp pp
0.0000000000000000e+00 1.5000000000000000e+01
0.0000000000000000e+00 1.5000000000000000e+01
0.0000000000000000e+00 1.5000000000000000e+01
ITEM: ATOMS id type x y z
10 2 8.10705 6.07184 5.70532
4 1 7.62987 6.61937 6.48186
7 2 6.25814 8.99127 8.28731
8 2 7.78236 8.62492 5.82479
9 2 7.31769 5.90356 7.19331
1 1 7.74338 7.47215 8.83488
3 1 7.50522 7.93223 6.61028
2 1 7.07052 8.23676 7.98921
6 2 8.52339 6.77655 8.49916
5 2 7.44148 7.28878 9.88177
ITEM: TIMESTEP
2300
ITEM: NUMBER OF ATOMS
10
ITEM: BOX BOUNDS pp pp pp
0.0000000000000000e+00 1.5000000000000000e+01
0.0000000000000000e+00 1.5000000000000000e+01
0.0000000000000000e+00 1.5000000000000000e+01
ITEM: ATOMS id type x y z
10 2 8.09024 6.31483 5.4891
4 1 7.69447 6.65772 6.46194
7 2 6.3973 8.93271 8.4496
8 2 7.32206 8.67975 5.79978
9 2 7.55366 5.95472 7.28294
1 1 7.79433 7.40839 8.81259
3 1 7.34197 7.94125 6.61981
2 1 7.10524 8.204 8.03504
6 2 8.55667 6.78044 8.404
5 2 7.58804 7.28936 9.8873
ITEM: TIMESTEP
2400
ITEM: NUMBER OF ATOMS
10
ITEM: BOX BOUNDS pp pp pp
0.0000000000000000e+00 1.5000000000000000e+01
0.0000000000000000e+00 1.5000000000000000e+01
0.0000000000000000e+00 1.5000000000000000e+01
ITEM: ATOMS id type x y z
10 2 8.06184 6.29856 5.43721
4 1 7.69554 6.7068 6.42925
7 2 6.2268 8.7369 8.53588
8 2 7.26492 8.74221 5.88124
9 2 7.57747 5.94295 7.17963
1 1 7.89754 7.37003 8.78924
3 1 7.26191 7.96726 6.64044
2 1 7.04053 8.18073 8.07546
6 2 8.76984 6.88841 8.37114
5 2 7.85003 7.26202 9.8775
ITEM: TIMESTEP
2500
ITEM: NUMBER OF ATOMS
10
ITEM: BOX BOUNDS pp pp pp
0.0000000000000000e+00 1.5000000000000000e+01
0.0000000000000000e+00 1.5000000000000000e+01
0.0000000000000000e+00 1.5000000000000000e+01
ITEM: ATOMS id type x y z
10 2 7.93022 6.48907 5.44432
4 1 7.71482 6.76852 6.4043
7 2 6.17719 8.60972 8.64889
8 2 7.06868 8.7722 5.97343
9 2 7.70572 5.93612 7.09175
1 1 7.95616 7.35573 8.74263
3 1 7.16989 7.9492 6.69205
2 1 7.06956 8.10485 8.11309
6 2 8.84296 7.0462 8.17489
5 2 7.93668 7.29684 9.8433
ITEM: TIMESTEP
2600
ITEM: NUMBER OF ATOMS
10
ITEM: BOX BOUNDS pp pp pp
0.0000000000000000e+00 1.5000000000000000e+01
0.0000000000000000e+00 1.5000000000000000e+01
0.0000000000000000e+00 1.5000000000000000e+01
ITEM: ATOMS id type x y z
10 2 7.9596 6.6862 5.20667
4 1 7.71522 6.83429 6.32533
7 2 6.29279 8.48132 8.73817
8 2 6.73251 8.74339 6.07779
9 2 7.94349 5.98662 6.99604
1 1 8.06187 7.36237 8.70576
3 1 7.04874 7.95021 6.77351
2 1 7.0016 8.03679 8.17313
6 2 8.97989 7.04006 8.21468
5 2 8.25112 7.18048 9.7893
ITEM: TIMESTEP
2700
ITEM: NUMBER OF ATOMS
10
ITEM: BOX BOUNDS pp pp pp
0.0000000000000000e+00 1.5000000000000000e+01
0.0000000000000000e+00 1.5000000000000000e+01
0.0000000000000000e+00 1.5000000000000000e+01
ITEM: ATOMS id type x y z
10 2 7.88059 6.80419 5.22866
4 1 7.6482 6.93189 6.30811
7 2 6.1267 8.10556 8.91568
8 2 6.54794 8.72523 6.20724
9 2 7.89049 6.01521 6.86595
1 1 8.20606 7.41627 8.65199
3 1 6.99643 7.96455 6.81984
2 1 7.04095 7.85071 8.22323
6 2 9.0606 7.53018 7.99736
5 2 8.26791 7.05912 9.65506
ITEM: TIMESTEP
2800
ITEM: NUMBER OF ATOMS
10
ITEM: BOX BOUNDS pp pp pp
0.0000000000000000e+00 1.5000000000000000e+01
0.0000000000000000e+00 1.5000000000000000e+01
0.0000000000000000e+00 1.5000000000000000e+01
ITEM: ATOMS id type x y z
10 2 7.81367 7.16114 5.16946
4 1 7.66928 7.03475 6.21416
7 2 6.33675 8.16082 9.04236
8 2 6.14813 8.58967 6.41146
9 2 8.13768 6.22249 6.70006
1 1 8.27476 7.38992 8.62186
3 1 6.86887 7.88537 6.85069
2 1 7.01265 7.78946 8.29181
6 2 9.1535 7.34838 8.029
5 2 8.58089 7.14043 9.66556
ITEM: TIMESTEP
2900
ITEM: NUMBER OF ATOMS
10
ITEM: BOX BOUNDS pp pp pp
0.0000000000000000e+00 1.5000000000000000e+01
0.0000000000000000e+00 1.5000000000000000e+01
0.0000000000000000e+00 1.5000000000000000e+01
ITEM: ATOMS id type x y z
10 2 7.72177 7.19824 5.05811
4 1 7.62993 7.10269 6.19665
7 2 6.2577 7.73668 9.05494
8 2 6.12935 8.61972 6.46861
9 2 8.1416 6.21723 6.64262
1 1 8.34252 7.41412 8.56705
3 1 6.81858 7.89416 6.92326
2 1 7.06962 7.6876 8.3505
6 2 9.09195 7.79821 7.82154
5 2 8.61775 7.05856 9.61839
ITEM: TIMESTEP
3000
ITEM: NUMBER OF ATOMS
10
ITEM: BOX BOUNDS pp pp pp
0.0000000000000000e+00 1.5000000000000000e+01
0.0000000000000000e+00 1.5000000000000000e+01
0.0000000000000000e+00 1.5000000000000000e+01
ITEM: ATOMS id type x y z
10 2 7.53282 7.34546 5.10459
4 1 7.64418 7.19866 6.16237
7 2 6.3065 7.61162 9.20796
8 2 5.97329 8.52048 6.64005
9 2 8.24107 6.3769 6.49264
1 1 8.37736 7.39059 8.53385
3 1 6.75762 7.82987 6.93501
2 1 7.07758 7.65025 8.38457
6 2 9.10113 7.79205 7.90052
5 2 8.82876 7.15726 9.4484
ITEM: TIMESTEP
3100
ITEM: NUMBER OF ATOMS
10
ITEM: BOX BOUNDS pp pp pp
0.0000000000000000e+00 1.5000000000000000e+01
0.0000000000000000e+00 1.5000000000000000e+01
0.0000000000000000e+00 1.5000000000000000e+01
ITEM: ATOMS id type x y z
10 2 7.54338 7.5134 5.04404
4 1 7.60008 7.30161 6.15453
7 2 6.40765 7.49131 9.20716
8 2 5.88895 8.4584 6.70546
9 2 8.24687 6.47653 6.41301
1 1 8.44975 7.39891 8.47897
3 1 6.71242 7.783 7.02665
2 1 7.09085 7.54489 8.3841
6 2 9.09674 7.88796 7.70967
5 2 8.82186 7.22188 9.54413
ITEM: TIMESTEP
3200
ITEM: NUMBER OF ATOMS
10
ITEM: BOX BOUNDS pp pp pp
0.0000000000000000e+00 1.5000000000000000e+01
0.0000000000000000e+00 1.5000000000000000e+01
0.0000000000000000e+00 1.5000000000000000e+01
ITEM: ATOMS id type x y z
10 2 7.39638 7.55132 5.11399
4 1 7.54698 7.36635 6.168
7 2 6.55898 7.09046 9.19003
8 2 5.75979 8.31687 6.89645
9 2 8.29778 6.54906 6.34726
1 1 8.46228 7.47507 8.42518
3 1 6.6707 7.82818 7.08395
2 1 7.13742 7.4064 8.34701
6 2 9.1371 8.16864 7.88546
5 2 9.06974 7.08763 9.31098
ITEM: TIMESTEP
3300
ITEM: NUMBER OF ATOMS
10
ITEM: BOX BOUNDS pp pp pp
0.0000000000000000e+00 1.5000000000000000e+01
0.0000000000000000e+00 1.5000000000000000e+01
0.0000000000000000e+00 1.5000000000000000e+01
ITEM: ATOMS id type x y z
10 2 7.20766 7.92524 5.1553
4 1 7.49427 7.55788 6.14195
7 2 6.60506 7.19743 9.30066
8 2 5.55435 7.96669 7.0093
9 2 8.33154 6.94202 6.20036
1 1 8.5379 7.49236 8.37532
3 1 6.64483 7.6725 7.18381
2 1 7.20571 7.28534 8.35687
6 2 9.10783 8.02205 7.68301
5 2 9.02131 7.11812 9.19272
ITEM: TIMESTEP
3400
ITEM: NUMBER OF ATOMS
10
ITEM: BOX BOUNDS pp pp pp
0.0000000000000000e+00 1.5000000000000000e+01
0.0000000000000000e+00 1.5000000000000000e+01
0.0000000000000000e+00 1.5000000000000000e+01
ITEM: ATOMS id type x y z
10 2 7.10573 8.05184 5.18376
4 1 7.42804 7.64571 6.17218
7 2 6.78457 6.64337 9.17607
8 2 5.62326 8.04781 7.28869
9 2 8.29593 6.9123 6.00312
1 1 8.55314 7.5547 8.32571
3 1 6.601 7.65265 7.22525
2 1 7.26036 7.14462 8.35468
6 2 8.88094 8.46476 7.777
5 2 9.37835 7.11383 8.99341
ITEM: TIMESTEP
3500
ITEM: NUMBER OF ATOMS
10
ITEM: BOX BOUNDS pp pp pp
0.0000000000000000e+00 1.5000000000000000e+01
0.0000000000000000e+00 1.5000000000000000e+01
0.0000000000000000e+00 1.5000000000000000e+01
ITEM: ATOMS id type x y z
10 2 6.8493 8.0993 5.24619
4 1 7.3542 7.80784 6.1676
7 2 6.9184 6.47119 9.14416
8 2 5.50465 7.82163 7.34192
9 2 8.29156 7.33226 6.06337
1 1 8.61393 7.51531 8.27344
3 1 6.56996 7.5558 7.23978
2 1 7.34244 7.11357 8.3823
6 2 8.9014 8.41765 7.71955
5 2 9.37551 7.12289 8.99512
ITEM: TIMESTEP
3600
ITEM: NUMBER OF ATOMS
10
ITEM: BOX BOUNDS pp pp pp
0.0000000000000000e+00 1.5000000000000000e+01
0.0000000000000000e+00 1.5000000000000000e+01
0.0000000000000000e+00 1.5000000000000000e+01
ITEM: ATOMS id type x y z
10 2 6.82638 8.32129 5.30549
4 1 7.25887 7.87385 6.20049
7 2 7.1108 6.27591 9.11346
8 2 5.45895 7.80216 7.43888
9 2 8.22132 7.43544 5.99105
1 1 8.65883 7.53744 8.24994
3 1 6.53372 7.51343 7.26546
2 1 7.4257 7.02449 8.32751
6 2 8.8702 8.43855 7.77774
5 2 9.3736 7.2514 9.00203
ITEM: TIMESTEP
3700
ITEM: NUMBER OF ATOMS
10
ITEM: BOX BOUNDS pp pp pp
0.0000000000000000e+00 1.5000000000000000e+01
0.0000000000000000e+00 1.5000000000000000e+01
0.0000000000000000e+00 1.5000000000000000e+01
ITEM: ATOMS id type x y z
10 2 6.66384 8.49556 5.39632
4 1 7.18071 7.90165 6.24031
7 2 7.32108 6.15671 8.95336
8 2 5.49765 7.60057 7.45319
9 2 8.236 7.5927 6.09753
1 1 8.65489 7.55272 8.22007
3 1 6.53002 7.53053 7.31799
2 1 7.48318 6.94235 8.27807
6 2 8.75919 8.63312 7.85367
5 2 9.55344 7.17789 8.79632
ITEM: TIMESTEP
3800
ITEM: NUMBER OF ATOMS
10
ITEM: BOX BOUNDS pp pp pp
0.0000000000000000e+00 1.5000000000000000e+01
0.0000000000000000e+00 1.5000000000000000e+01
0.0000000000000000e+00 1.5000000000000000e+01
ITEM: ATOMS id type x y z
10 2 6.54795 8.68548 5.6561
4 1 7.10557 8.00995 6.26899
7 2 7.32596 6.09839 9.02126
8 2 5.43181 7.33146 7.47523
9 2 8.13097 7.9815 6.02589
1 1 8.68324 7.57251 8.15999
3 1 6.56457 7.43899 7.36891
2 1 7.54311 6.87296 8.23903
6 2 8.7178 8.553 7.81332
5 2 9.5906 7.2037 8.67575
ITEM: TIMESTEP
3900
ITEM: NUMBER OF ATOMS
10
ITEM: BOX BOUNDS pp pp pp
0.0000000000000000e+00 1.5000000000000000e+01
0.0000000000000000e+00 1.5000000000000000e+01
0.0000000000000000e+00 1.5000000000000000e+01
ITEM: ATOMS id type x y z
10 2 6.40702 8.79115 5.87832
4 1 7.05316 8.063 6.35038
7 2 7.53835 5.83195 8.63343
8 2 5.53615 7.38882 7.78562
9 2 8.08431 7.94771 6.01133
1 1 8.68099 7.60737 8.11859
3 1 6.54794 7.40963 7.41041
2 1 7.61797 6.78661 8.13647
6 2 8.51825 8.6967 7.97232
5 2 9.63956 7.36402 8.5129
ITEM: TIMESTEP
4000
ITEM: NUMBER OF ATOMS
10
ITEM: BOX BOUNDS pp pp pp
0.0000000000000000e+00 1.5000000000000000e+01
0.0000000000000000e+00 1.5000000000000000e+01
0.0000000000000000e+00 1.5000000000000000e+01
ITEM: ATOMS id type x y z
10 2 6.16211 8.81016 5.81255
4 1 6.91815 8.20322 6.50418
7 2 7.65294 5.74483 8.47301
8 2 5.52715 7.06356 7.71056
9 2 8.00478 8.39561 6.2589
1 1 8.74649 7.61862 8.02913
3 1 6.545 7.28133 7.40849
2 1 7.67987 6.77445 8.11265
6 2 8.6635 8.69716 7.86025
5 2 9.77644 7.24299 8.44707
ITEM: TIMESTEP
4100
ITEM: NUMBER OF ATOMS
10
ITEM: BOX BOUNDS pp pp pp
0.0000000000000000e+00 1.5000000000000000e+01
0.0000000000000000e+00 1.5000000000000000e+01
0.0000000000000000e+00 1.5000000000000000e+01
ITEM: ATOMS id type x y z
10 2 6.12603 8.87547 6.17612
4 1 6.8352 8.2863 6.6242
7 2 8.02732 5.64708 8.13827
8 2 5.57743 7.06527 7.96267
9 2 7.77545 8.30605 6.18992
1 1 8.74143 7.63917 8.03655
3 1 6.52858 7.24199 7.42179
2 1 7.79507 6.70168 7.93565
6 2 8.50939 8.67317 8.02355
5 2 9.70671 7.43812 8.28938
ITEM: TIMESTEP
4200
ITEM: NUMBER OF ATOMS
10
ITEM: BOX BOUNDS pp pp pp
0.0000000000000000e+00 1.5000000000000000e+01
0.0000000000000000e+00 1.5000000000000000e+01
0.0000000000000000e+00 1.5000000000000000e+01
ITEM: ATOMS id type x y z
10 2 5.90665 9.00438 6.38647
4 1 6.70709 8.3385 6.78165
7 2 8.19289 5.63053 8.06448
8 2 5.57099 6.90165 7.77136
9 2 7.70313 8.54992 6.31492
1 1 8.74801 7.6539 7.99454
3 1 6.57957 7.1863 7.44898
2 1 7.86307 6.65137 7.83184
6 2 8.47391 8.72243 8.0182
5 2 9.88992 7.43064 7.99152
ITEM: TIMESTEP
4300
ITEM: NUMBER OF ATOMS
10
ITEM: BOX BOUNDS pp pp pp
0.0000000000000000e+00 1.5000000000000000e+01
0.0000000000000000e+00 1.5000000000000000e+01
0.0000000000000000e+00 1.5000000000000000e+01
ITEM: ATOMS id type x y z
10 2 5.75358 8.95383 6.64062
4 1 6.67364 8.34935 6.87686
7 2 8.23998 5.64661 7.87252
8 2 5.64566 6.73848 7.75581
9 2 7.55478 8.76035 6.43959
1 1 8.77042 7.64657 7.9437
3 1 6.57872 7.17628 7.47555
2 1 7.91652 6.64634 7.74813
6 2 8.44135 8.67467 8.08332
5 2 9.85281 7.53483 7.83165
ITEM: TIMESTEP
4400
ITEM: NUMBER OF ATOMS
10
ITEM: BOX BOUNDS pp pp pp
0.0000000000000000e+00 1.5000000000000000e+01
0.0000000000000000e+00 1.5000000000000000e+01
0.0000000000000000e+00 1.5000000000000000e+01
ITEM: ATOMS id type x y z
10 2 5.73441 8.97334 6.96411
4 1 6.59474 8.36167 6.92862
7 2 8.27068 5.56556 7.48767
8 2 5.71654 6.69634 8.03767
9 2 7.49332 8.75689 6.44809
1 1 8.77986 7.68085 7.92368
3 1 6.61003 7.13216 7.50029
2 1 7.95605 6.65892 7.62005
6 2 8.42444 8.64659 8.19191
5 2 9.84046 7.57968 7.92371
ITEM: TIMESTEP
4500
ITEM: NUMBER OF ATOMS
10
ITEM: BOX BOUNDS pp pp pp
0.0000000000000000e+00 1.5000000000000000e+01
0.0000000000000000e+00 1.5000000000000000e+01
0.0000000000000000e+00 1.5000000000000000e+01
ITEM: ATOMS id type x y z
10 2 5.53509 8.94029 7.10104
4 1 6.54285 8.36558 7.10241
7 2 8.25229 5.68887 7.37853
8 2 5.83201 6.4357 7.78964
9 2 7.36616 9.02176 6.87217
1 1 8.81538 7.70544 7.78764
3 1 6.60294 7.08713 7.46107
2 1 7.98637 6.66353 7.61844
6 2 8.48559 8.71838 8.15898
5 2 9.96767 7.48497 7.7713
ITEM: TIMESTEP
4600
ITEM: NUMBER OF ATOMS
10
ITEM: BOX BOUNDS pp pp pp
0.0000000000000000e+00 1.5000000000000000e+01
0.0000000000000000e+00 1.5000000000000000e+01
0.0000000000000000e+00 1.5000000000000000e+01
ITEM: ATOMS id type x y z
10 2 5.63789 8.88921 7.52811
4 1 6.48514 8.35302 7.25183
7 2 8.42706 5.80834 6.85304
8 2 5.9002 6.35936 7.98746
9 2 7.32516 8.92169 6.79073
1 1 8.7966 7.74798 7.75226
3 1 6.60641 7.04887 7.50015
2 1 8.02721 6.68754 7.43523
6 2 8.48434 8.5035 8.44353
5 2 9.85717 7.71346 7.64934
ITEM: TIMESTEP
4700
ITEM: NUMBER OF ATOMS
10
ITEM: BOX BOUNDS pp pp pp
0.0000000000000000e+00 1.5000000000000000e+01
0.0000000000000000e+00 1.5000000000000000e+01
0.0000000000000000e+00 1.5000000000000000e+01
ITEM: ATOMS id type x y z
10 2 5.47291 8.79967 7.90021
4 1 6.41448 8.35754 7.47341
7 2 8.52822 5.82136 6.79199
8 2 5.81083 6.34743 7.7903
9 2 7.12366 9.06249 7.1298
1 1 8.81816 7.77506 7.67062
3 1 6.68035 6.97606 7.46471
2 1 8.05826 6.71524 7.29501
6 2 8.48672 8.50991 8.38279
5 2 9.87414 7.73577 7.47137
ITEM: TIMESTEP
4800
ITEM: NUMBER OF ATOMS
10
ITEM: BOX BOUNDS pp pp pp
0.0000000000000000e+00 1.5000000000000000e+01
0.0000000000000000e+00 1.5000000000000000e+01
0.0000000000000000e+00 1.5000000000000000e+01
ITEM: ATOMS id type x y z
10 2 5.45988 8.55843 8.03887
4 1 6.42903 8.26606 7.61407
7 2 8.52437 6.06527 6.53745
8 2 5.95141 6.2752 7.80405
9 2 7.05313 9.14684 7.29293
1 1 8.79952 7.75334 7.62093
3 1 6.67016 7.00637 7.5347
2 1 8.0611 6.77736 7.13994
6 2 8.50664 8.40318 8.4621
5 2 9.86966 7.95237 7.29577
ITEM: TIMESTEP
4900
ITEM: NUMBER OF ATOMS
10
ITEM: BOX BOUNDS pp pp pp
0.0000000000000000e+00 1.5000000000000000e+01
0.0000000000000000e+00 1.5000000000000000e+01
0.0000000000000000e+00 1.5000000000000000e+01
ITEM: ATOMS id type x y z
10 2 5.4603 8.49529 8.26675
4 1 6.37149 8.23648 7.76467
7 2 8.45846 6.12067 6.2723
8 2 6.00974 6.16924 7.86934
9 2 6.9264 9.05198 7.40328
1 1 8.84867 7.79614 7.6114
3 1 6.71399 6.95968 7.5044
2 1 8.04262 6.848 7.02932
6 2 8.58142 8.44379 8.4493
5 2 9.82708 7.89724 7.16928
ITEM: TIMESTEP
5000
ITEM: NUMBER OF ATOMS
10
ITEM: BOX BOUNDS pp pp pp
0.0000000000000000e+00 1.5000000000000000e+01
0.0000000000000000e+00 1.5000000000000000e+01
0.0000000000000000e+00 1.5000000000000000e+01
ITEM: ATOMS id type x y z
10 2 5.46646 8.34524 8.49786
4 1 6.42788 8.18596 7.91257
7 2 8.36394 6.2607 6.189
8 2 6.13829 6.01844 7.68302
9 2 6.94707 9.08809 7.582
1 1 8.82038 7.82757 7.53624
3 1 6.66146 6.9304 7.46757
2 1 8.05673 6.9008 7.00424
6 2 8.62922 8.39159 8.39893
5 2 9.78025 8.04759 7.01443
ITEM: TIMESTEP
5100
ITEM: NUMBER OF ATOMS
10
ITEM: BOX BOUNDS pp pp pp
0.0000000000000000e+00 1.5000000000000000e+01
0.0000000000000000e+00 1.5000000000000000e+01
0.0000000000000000e+00 1.5000000000000000e+01
ITEM: ATOMS id type x y z
10 2 5.56675 8.18838 8.75477
4 1 6.42795 8.10269 8.054
7 2 8.18826 6.50078 5.88458
8 2 6.23777 5.96135 7.75372
9 2 6.85867 9.05925 7.66955
1 1 8.81273 7.86716 7.49394
3 1 6.69557 6.92823 7.47607
2 1 8.03724 6.94171 6.8605
6 2 8.77592 8.20295 8.59989
5 2 9.65572 8.26857 6.91941
ITEM: TIMESTEP
5200
ITEM: NUMBER OF ATOMS
10
ITEM: BOX BOUNDS pp pp pp
0.0000000000000000e+00 1.5000000000000000e+01
0.0000000000000000e+00 1.5000000000000000e+01
0.0000000000000000e+00 1.5000000000000000e+01
ITEM: ATOMS id type x y z
10 2 5.68261 7.82029 9.00169
4 1 6.45764 7.96901 8.26684
7 2 8.25905 6.61807 5.76729
8 2 6.19352 6.00327 7.63461
9 2 6.79534 8.9448 8.2141
1 1 8.82385 7.94531 7.37827
3 1 6.72727 6.93626 7.45219
2 1 7.95932 7.04171 6.75924
6 2 8.71399 8.19865 8.37695
5 2 9.67096 8.28113 6.75514
ITEM: TIMESTEP
5300
ITEM: NUMBER OF ATOMS
10
ITEM: BOX BOUNDS pp pp pp
0.0000000000000000e+00 1.5000000000000000e+01
0.0000000000000000e+00 1.5000000000000000e+01
0.0000000000000000e+00 1.5000000000000000e+01
ITEM: ATOMS id type x y z
10 2 5.80604 7.5409 9.14643
4 1 6.52932 7.86022 8.34608
7 2 8.04914 7.07321 5.62104
8 2 6.25765 5.94389 7.68602
9 2 6.85872 8.92291 8.2754
1 1 8.72826 7.93503 7.30146
3 1 6.78101 6.88777 7.52078
2 1 7.90414 7.19826 6.65822
6 2 8.93032 8.00596 8.40004
5 2 9.56574 8.44541 6.80078
ITEM: TIMESTEP
5400
ITEM: NUMBER OF ATOMS
10
ITEM: BOX BOUNDS pp pp pp
0.0000000000000000e+00 1.5000000000000000e+01
0.0000000000000000e+00 1.5000000000000000e+01
0.0000000000000000e+00 1.5000000000000000e+01
ITEM: ATOMS id type x y z
10 2 5.99367 7.45479 9.36538
4 1 6.56734 7.75441 8.48169
7 2 7.93809 7.13931 5.52239
8 2 6.16997 5.96576 7.54107
9 2 6.91184 8.7901 8.53963
1 1 8.74548 8.04459 7.2767
3 1 6.78609 6.84523 7.4584
2 1 7.85312 7.24825 6.61643
6 2 8.91893 8.02313 8.33123
5 2 9.47926 8.49204 6.58996
ITEM: TIMESTEP
5500
ITEM: NUMBER OF ATOMS
10
ITEM: BOX BOUNDS pp pp pp
0.0000000000000000e+00 1.5000000000000000e+01
0.0000000000000000e+00 1.5000000000000000e+01
0.0000000000000000e+00 1.5000000000000000e+01
ITEM: ATOMS id type x y z
10 2 6.19944 7.22369 9.39526
4 1 6.68188 7.67004 8.5374
7 2 7.77485 7.34751 5.48955
8 2 6.3087 5.8316 7.33641
9 2 6.94999 8.70132 8.49925
1 1 8.69882 8.07611 7.24011
3 1 6.74381 6.85003 7.50651
2 1 7.78484 7.3151 6.59406
6 2 9.02431 7.98381 8.27161
5 2 9.4106 8.66436 6.62844
ITEM: TIMESTEP
5600
ITEM: NUMBER OF ATOMS
10
ITEM: BOX BOUNDS pp pp pp
0.0000000000000000e+00 1.5000000000000000e+01
0.0000000000000000e+00 1.5000000000000000e+01
0.0000000000000000e+00 1.5000000000000000e+01
ITEM: ATOMS id type x y z
10 2 6.26964 7.11702 9.54155
4 1 6.74545 7.53297 8.63676
7 2 7.41124 7.41188 5.52022
8 2 6.35715 5.85994 7.3712
9 2 7.01562 8.61322 8.73609
1 1 8.69337 8.11219 7.20083
3 1 6.77923 6.8407 7.45202
2 1 7.74077 7.43502 6.53513
6 2 9.05653 7.92237 8.24231
5 2 9.26092 8.77025 6.52915
ITEM: TIMESTEP
5700
ITEM: NUMBER OF ATOMS
10
ITEM: BOX BOUNDS pp pp pp
0.0000000000000000e+00 1.5000000000000000e+01
0.0000000000000000e+00 1.5000000000000000e+01
0.0000000000000000e+00 1.5000000000000000e+01
ITEM: ATOMS id type x y z
10 2 6.33952 6.79411 9.47266
4 1 6.87274 7.41783 8.70575
7 2 7.39174 7.67335 5.46039
8 2 6.381 5.84185 7.2483
9 2 7.17584 8.41255 8.98007
1 1 8.64203 8.15443 7.09677
3 1 6.81666 6.84382 7.49909
2 1 7.60819 7.52346 6.54394
6 2 8.97009 7.93418 8.06562
5 2 9.22811 8.92669 6.58869
ITEM: TIMESTEP
5800
ITEM: NUMBER OF ATOMS
10
ITEM: BOX BOUNDS pp pp pp
0.0000000000000000e+00 1.5000000000000000e+01
0.0000000000000000e+00 1.5000000000000000e+01
0.0000000000000000e+00 1.5000000000000000e+01
ITEM: ATOMS id type x y z
10 2 6.67324 6.69076 9.59828
4 1 6.98387 7.24927 8.72177