10
 Atoms. Timestep: 0
C 6.88351 8.46207 6.68752
C 7.97085 8.3477 7.4949
C 7.95478 7.14825 8.28231
C 7.36795 6.15146 7.62146
H 6.60398 9.40297 6.09151
H 6.10951 7.77346 6.87558
H 8.7158 9.06669 7.56662
H 8.38732 6.9891 9.31844
H 7.14939 6.19236 6.55582
H 7.09546 5.13857 7.9639
10
 Atoms. Timestep: 20
C 6.84574 8.3935 6.77249
C 7.98172 8.39999 7.49361
C 7.96299 7.13101 8.31554
C 7.38276 6.17762 7.54337
H 6.70214 9.1959 6.09597
H 5.96341 7.8063 6.93214
H 8.79961 9.16613 7.41874
H 8.40962 6.9192 9.25694
H 7.10399 6.28784 6.49345
H 7.10593 5.23192 7.94174
10
 Atoms. Timestep: 40
C 6.81169 8.47043 6.83688
C 7.94005 8.37209 7.55999
C 8.00992 7.1261 8.21987
C 7.3989 6.1405 7.5217
H 6.77436 9.08307 5.9117
H 5.86652 7.88823 7.05423
H 8.75775 9.11454 7.3104
H 8.37448 6.96137 9.22642
H 7.21349 6.34346 6.48482
H 7.17404 5.1746 8.07081
10
 Atoms. Timestep: 60
C 6.784 8.46298 6.85863
C 7.90225 8.37966 7.55469
C 8.06388 7.1023 8.1755
C 7.39497 6.18825 7.52302
H 6.74499 9.09077 5.94067
H 5.87244 8.00343 7.20448
H 8.75245 8.98041 7.41691
H 8.38877 7.00855 9.26416
H 7.22346 6.15422 6.44686
H 7.27129 5.18346 7.94488
10
 Atoms. Timestep: 80
C 6.73599 8.43673 6.84206
C 7.96699 8.38521 7.52677
C 8.06636 7.13479 8.23237
C 7.38076 6.1487 7.48884
H 6.55568 9.2284 6.11666
H 5.85887 8.00437 7.2385
H 8.80935 9.08785 7.48378
H 8.5077 6.95433 9.20458
H 7.16076 6.16816 6.40378
H 7.33102 5.14432 7.90147
10
 Atoms. Timestep: 100
C 6.79046 8.46264 6.8866
C 7.95154 8.37169 7.48038
C 7.99959 7.09439 8.19262
C 7.43323 6.1493 7.51806
H 6.42059 9.30456 6.27943
H 5.92485 7.8287 7.22263
H 8.69089 9.22007 7.42555
H 8.57846 6.90633 9.05761
H 7.15586 6.35386 6.51257
H 7.30439 5.1384 7.92528
10
 Atoms. Timestep: 120
C 6.73534 8.4589 6.93277
C 7.9486 8.37214 7.49475
C 8.07379 7.13005 8.16834
C 7.40999 6.14964 7.48839
H 6.46407 9.3771 6.36244
H 6.01675 7.64205 7.08691
H 8.6681 9.16531 7.4004
H 8.64966 6.92335 9.14187
H 7.05135 6.32871 6.48111
H 7.26776 5.1191 7.91075
10
 Atoms. Timestep: 140
C 6.68149 8.4587 6.95806
C 7.92297 8.40471 7.52812
C 8.17662 7.07388 8.12301
C 7.40589 6.17607 7.49357
H 6.46321 9.31925 6.35939
H 5.91473 7.74813 6.99339
H 8.72016 9.12775 7.46056
H 8.60926 6.98694 9.11774
H 7.01328 6.17546 6.46673
H 7.28155 5.18224 7.87462
10
 Atoms. Timestep: 160
C 6.70347 8.49126 6.96607
C 7.88221 8.374 7.55182
C 8.19001 7.08501 8.06287
C 7.42683 6.13137 7.50113
H 6.41944 9.34945 6.30606
H 5.81944 7.86132 7.10913
H 8.6307 9.20869 7.51233
H 8.64505 6.90536 8.99739
H 7.06582 6.2614 6.48918
H 7.32845 5.14391 7.98363
10
 Atoms. Timestep: 180
C 6.69583 8.42467 6.95243
C 7.90835 8.39072 7.54115
C 8.14526 7.0914 8.08257
C 7.41835 6.17234 7.46547
H 6.5003 9.36058 6.4029
H 5.83705 7.80031 7.32804
H 8.54411 9.26651 7.54621
H 8.85158 6.83276 8.92911
H 7.00515 6.30537 6.4862
H 7.37912 5.17971 7.94682
10
 Atoms. Timestep: 200
C 6.67735 8.45804 6.98679
C 7.91381 8.4163 7.52348
C 8.14369 7.0979 8.12438
C 7.43318 6.14153 7.45163
H 6.35151 9.31309 6.40674
H 5.93877 7.77915 7.30284
H 8.60382 9.23918 7.51849
H 8.93589 6.85795 8.85985
H 6.91839 6.26474 6.49616
H 7.36742 5.0833 7.78727
10
 Atoms. Timestep: 220
C 6.67164 8.48619 7.04197
C 7.90408 8.39925 7.54465
C 8.15553 7.08408 8.0699
C 7.4457 6.15018 7.46592
H 6.21533 9.25818 6.39285
H 5.92964 7.7359 7.21527
H 8.71633 9.15603 7.42798
H 8.82664 6.92036 8.85633
H 6.91527 6.33002 6.53704
H 7.45907 5.1013 7.72488
10
 Atoms. Timestep: 240
C 6.64392 8.45255 7.07471
C 7.89306 8.40204 7.54201
C 8.20169 7.09444 8.03637
C 7.41927 6.16714 7.42843
H 6.34518 9.3354 6.46403
H 5.86472 7.66772 7.29482
H 8.70173 9.11541 7.36411
H 8.78369 6.89272 8.9747
H 6.91949 6.37131 6.49424
H 7.56154 5.14043 7.80795
10
 Atoms. Timestep: 260
C 6.61948 8.47737 7.09052
C 7.89125 8.39689 7.51513
C 8.19759 7.07783 8.03396
C 7.48368 6.15257 7.41872
H 6.37247 9.37838 6.55148
H 5.83916 7.82467 7.42875
H 8.54659 9.22878 7.33623
H 8.79613 6.82026 8.93506
H 6.98496 6.23541 6.4676
H 7.43265 5.10447 7.81985
10
 Atoms. Timestep: 280
C 6.62433 8.44854 7.11789
C 7.91117 8.38139 7.49312
C 8.20057 7.09488 8.05053
C 7.48223 6.14357 7.39621
H 6.23865 9.35625 6.627
H 5.80257 7.89924 7.49506
H 8.52773 9.28901 7.36638
H 8.8375 6.86077 8.85404
H 7.05557 6.23954 6.39295
H 7.35214 5.16494 7.80704
10
 Atoms. Timestep: 300
C 6.59705 8.43283 7.13961
C 7.91154 8.39746 7.49128
C 8.21394 7.09339 8.01949
C 7.44706 6.16335 7.38725
H 6.18088 9.33922 6.62089
H 5.85829 7.69096 7.56675
H 8.68931 9.18296 7.40816
H 8.89283 6.93695 8.8809
H 7.11731 6.39379 6.37806
H 7.36786 5.15395 7.80843
10
 Atoms. Timestep: 320
C 6.59621 8.4807 7.17766
C 7.8788 8.40359 7.50609
C 8.22603 7.08351 7.97498
C 7.47291 6.17089 7.40962
H 6.11633 9.23956 6.59637
H 5.99976 7.63891 7.51658
H 8.66689 9.10419 7.36089
H 8.87815 6.93072 8.87544
H 7.06405 6.39572 6.44177
H 7.35513 5.07874 7.68782
10
 Atoms. Timestep: 340
C 6.58925 8.45126 7.19763
C 7.91154 8.41492 7.52464
C 8.25231 7.09533 8.00486
C 7.46175 6.15729 7.37079
H 6.10344 9.248 6.61466
H 5.89764 7.71292 7.48442
H 8.58629 9.2471 7.26782
H 8.90418 6.85631 8.81331
H 6.88246 6.32779 6.46437
H 7.4609 5.11508 7.65686
10
 Atoms. Timestep: 360
C 6.59261 8.43182 7.19894
C 7.88211 8.43194 7.52139
C 8.22834 7.06227 7.98642
C 7.49247 6.15711 7.3559
H 6.23724 9.36567 6.67528
H 5.79221 7.77113 7.58476
H 8.51467 9.31975 7.28068
H 8.9724 6.77608 8.72157
H 6.82198 6.32881 6.52035
H 7.61235 5.15972 7.73047
10
 Atoms. Timestep: 380
C 6.57407 8.48107 7.19843
C 7.8455 8.38309 7.53768
C 8.23314 7.1068 7.92905
C 7.51301 6.14239 7.37496
H 6.23339 9.399 6.74115
H 5.82012 7.79732 7.62656
H 8.52226 9.19168 7.38082
H 9.04796 6.79365 8.6451
H 6.84649 6.31294 6.53718
H 7.65949 5.04532 7.71747
10
 Atoms. Timestep: 400
C 6.54552 8.44176 7.22308
C 7.86971 8.39792 7.54225
C 8.29493 7.07427 7.91638
C 7.4536 6.17928 7.38843
H 6.11463 9.33407 6.80238
H 5.8071 7.74366 7.53112
H 8.62704 9.17395 7.44614
H 9.12682 6.98067 8.60147
H 6.85037 6.28325 6.50598
H 7.61546 5.14495 7.58104
10
 Atoms. Timestep: 420
C 6.55041 8.45382 7.27288
C 7.86813 8.41818 7.52846
C 8.31992 7.08358 7.90467
C 7.45658 6.13223 7.37593
H 6.007 9.34795 6.78765
H 5.88211 7.63665 7.47716
H 8.54603 9.3012 7.446
H 9.1571 6.91866 8.55489
H 6.83794 6.42015 6.51873
H 7.52363 5.06858 7.61295
10
 Atoms. Timestep: 440
C 6.56265 8.43035 7.29526
C 7.85831 8.42366 7.52527
C 8.28084 7.08522 7.85621
C 7.52164 6.17737 7.36169
H 6.0984 9.30546 6.8894
H 5.92446 7.5678 7.56185
H 8.39303 9.3535 7.42118
H 9.11716 6.73944 8.51475
H 6.82304 6.44282 6.57766
H 7.42726 5.1114 7.69362
10
 Atoms. Timestep: 460
C 6.5124 8.41496 7.31015
C 7.87306 8.43123 7.53664
C 8.34974 7.10713 7.85749
C 7.484 6.15129 7.29314
H 6.08112 9.33632 6.97255
H 5.81363 7.673 7.69377
H 8.46542 9.32907 7.39617
H 9.11922 6.7862 8.59219
H 6.7823 6.32579 6.49182
H 7.54707 5.14195 7.75804
10
 Atoms. Timestep: 480
C 6.52314 8.4432 7.36194
C 7.83276 8.40731 7.535
C 8.32223 7.06124 7.81609
C 7.52072 6.16927 7.31227
H 5.97384 9.37924 6.98252
H 5.80631 7.78437 7.78744
H 8.54831 9.23299 7.36296
H 9.06708 6.95849 8.54746
H 6.89039 6.2187 6.44193
H 7.64496 5.16013 7.61493
10
 Atoms. Timestep: 500
C 6.51436 8.44415 7.41151
C 7.83951 8.38694 7.50197
C 8.28611 7.13133 7.82677
C 7.50475 6.14903 7.31514
H 6.04066 9.35198 7.00636
H 5.89604 7.66284 7.85739
H 8.5214 9.21141 7.28863
H 9.14635 6.92779 8.53595
H 6.9179 6.36634 6.38628
H 7.73323 5.03093 7.48202
10
 Atoms. Timestep: 520
C 6.50722 8.39484 7.43786
C 7.85536 8.45381 7.46294
C 8.29478 7.07197 7.87804
C 7.50754 6.18857 7.28005
H 6.01047 9.23635 7.07127
H 5.91685 7.57494 7.89507
H 8.45331 9.31319 7.17683
H 9.20017 6.81616 8.47328
H 6.86507 6.48855 6.48631
H 7.68872 5.13576 7.43293
10
 Atoms. Timestep: 540
C 6.50335 8.43481 7.46101
C 7.84865 8.42426 7.50633
C 8.35382 7.09394 7.85597
C 7.55541 6.16751 7.23108
H 5.76125 9.22471 7.07344
H 5.93957 7.65039 7.91333
H 8.36907 9.30355 7.11402
H 9.14727 6.75935 8.45112
H 6.77484 6.4476 6.55824
H 7.56458 5.11122 7.45253
10
 Atoms. Timestep: 560
C 6.49339 8.38131 7.48479
C 7.81304 8.41436 7.55478
C 8.36893 7.10356 7.74831
C 7.54566 6.22152 7.23844
H 5.90213 9.22914 7.08545
H 5.93465 7.63177 8.00036
H 8.46423 9.21899 7.15853
H 9.16912 6.86057 8.48302
H 6.73134 6.41966 6.49104
H 7.5964 5.13535 7.51262
10
 Atoms. Timestep: 580
C 6.44664 8.39071 7.53636
C 7.83779 8.43126 7.5391
C 8.36243 7.11968 7.69772
C 7.50622 6.15611 7.23852
H 6.01955 9.26508 7.12043
H 5.8678 7.58025 8.04584
H 8.46671 9.29303 7.30775
H 9.26477 6.96609 8.38532
H 6.85171 6.4246 6.42181
H 7.73498 5.10435 7.5376
10
 Atoms. Timestep: 600
C 6.51729 8.40046 7.56476
C 7.80552 8.42937 7.49885
C 8.35081 7.11375 7.70734
C 7.53593 6.15978 7.26386
H 5.86148 9.27075 7.27615
H 5.85022 7.64031 7.96188
H 8.30362 9.37194 7.44968
H 9.27019 6.89686 8.13633
H 6.87981 6.29831 6.44057
H 7.70138 5.12164 7.41558
10
 Atoms. Timestep: 620
C 6.44659 8.37498 7.55086
C 7.83009 8.43658 7.50173
C 8.39017 7.12127 7.71354
C 7.52922 6.18686 7.24115
H 5.8301 9.33503 7.49126
H 5.95774 7.49399 7.89678
H 8.35847 9.42727 7.43421
H 9.3801 6.83001 8.08052
H 6.66545 6.32916 6.54223
H 7.7557 5.08635 7.40033
10
 Atoms. Timestep: 640
C 6.46559 8.36997 7.56713
C 7.76949 8.45868 7.56318
C 8.3866 7.11525 7.63021
C 7.54443 6.18336 7.20714
H 5.88489 9.2294 7.53948
H 5.9892 7.45146 7.8682
H 8.42802 9.29895 7.34852
H 9.41081 6.89114 8.14154
H 6.59718 6.44202 6.76743
H 7.81726 5.14346 7.41783
10
 Atoms. Timestep: 660
C 6.46106 8.3827 7.63744
C 7.82377 8.42299 7.59971
C 8.38519 7.1551 7.56539
C 7.5738 6.15429 7.20322
H 5.78296 9.25867 7.4296
H 5.82525 7.51233 7.95064
H 8.33709 9.33154 7.33355
H 9.29235 6.98622 8.0471
H 6.62365 6.32501 6.77138
H 7.79969 5.11574 7.32216
10
 Atoms. Timestep: 680
C 6.46624 8.32968 7.69385
C 7.76486 8.46067 7.56872
C 8.43922 7.13076 7.57087
C 7.51881 6.19096 7.21197
H 5.92598 9.23867 7.35128
H 5.85775 7.56355 8.10051
H 8.26712 9.42727 7.41535
H 9.45422 6.94915 7.9212
H 6.60325 6.24014 6.57785
H 7.88085 5.1287 7.25035
10
 Atoms. Timestep: 700
C 6.41755 8.34756 7.72002
C 7.788 8.42325 7.5385
C 8.39402 7.14103 7.58551
C 7.55213 6.19673 7.19973
H 5.83909 9.24116 7.466
H 5.99378 7.50014 8.23215
H 8.2228 9.43081 7.40531
H 9.51939 6.8472 7.74023
H 6.71102 6.41397 6.54172
H 7.92775 5.13531 7.24107
10
 Atoms. Timestep: 720
C 6.46795 8.33187 7.72563
C 7.75159 8.43109 7.54755
C 8.40191 7.16104 7.57383
C 7.57316 6.19546 7.15613
H 5.68562 9.09709 7.70634
H 6.03114 7.46782 8.27717
H 8.30467 9.30221 7.25025
H 9.42462 6.95944 7.79387
H 6.71186 6.51093 6.62693
H 7.79839 5.1657 7.21558
10
 Atoms. Timestep: 740
C 6.43201 8.28126 7.80418
C 7.78198 8.487 7.53188
C 8.44836 7.15255 7.54883
C 7.55843 6.20938 7.1052
H 5.67488 9.11889 7.78222
H 6.09715 7.34748 8.2568
H 8.32717 9.33474 7.10438
H 9.41625 7.09149 7.97454
H 6.58222 6.44049 6.6488
H 7.70168 5.10575 7.18176
10
 Atoms. Timestep: 760
C 6.48946 8.28969 7.88478
C 7.74266 8.44385 7.50809
C 8.4033 7.1753 7.48579
C 7.57612 6.22546 7.09775
H 5.77199 9.07115 7.74976
H 6.15691 7.38565 8.2797
H 8.10285 9.42803 7.15586
H 9.40917 6.97671 8.08945
H 6.63449 6.42461 6.57256
H 7.77937 5.12808 7.18324
10
 Atoms. Timestep: 780
C 6.48745 8.2788 7.94159
C 7.74371 8.44285 7.46865
C 8.40438 7.19167 7.47363
C 7.57069 6.2117 7.08926
H 5.7874 9.12872 7.78472
H 6.08099 7.38159 8.45401
H 7.99944 9.47596 7.22822
H 9.33245 6.83521 7.91341
H 6.74485 6.44046 6.4668
H 7.94151 5.20787 7.20308
10
 Atoms. Timestep: 800
C 6.45239 8.24512 7.92913
C 7.71838 8.47829 7.49963
C 8.44478 7.17514 7.46253
C 7.56222 6.22702 7.08123
H 5.7886 9.118 7.9643
H 6.08696 7.41294 8.57416
H 8.14746 9.41951 7.15886
H 9.41166 6.95518 7.77919
H 6.69555 6.36513 6.42114
H 7.92717 5.19585 7.15622
10
 Atoms. Timestep: 820
C 6.44311 8.26723 7.91861
C 7.72304 8.4307 7.55911
C 8.40841 7.21223 7.43095
C 7.59322 6.2186 7.07025
H 5.71854 9.06223 8.07333
H 6.24383 7.40529 8.49048
H 8.17144 9.32435 7.13098
H 9.55186 7.15915 7.69249
H 6.6247 6.38241 6.5561
H 7.80691 5.11396 7.07211
10
 Atoms. Timestep: 840
C 6.47188 8.22925 7.95345
C 7.72552 8.45133 7.55334
C 8.41501 7.19816 7.40278
C 7.56838 6.22558 7.07788
H 5.69209 9.02543 7.98413
H 6.24101 7.26886 8.39399
H 8.11662 9.42424 7.22455
H 9.51562 7.16875 7.56262
H 6.6036 6.51343 6.75128
H 7.87037 5.1934 7.04772
10
 Atoms. Timestep: 860
C 6.48317 8.21862 8.01725
C 7.70999 8.49163 7.53371
C 8.46455 7.21645 7.36377
C 7.56751 6.21713 7.07598
H 5.69193 8.98109 7.89947
H 6.08318 7.2519 8.38418
H 8.05678 9.51388 7.3671
H 9.46951 6.99212 7.46188
H 6.54324 6.43935 6.81135
H 7.92808 5.17866 7.02072
10
 Atoms. Timestep: 880
C 6.46078 8.23521 8.01833
C 7.7148 8.45115 7.5716
C 8.42398 7.23979 7.30307
C 7.60949 6.24208 7.08003
H 5.7391 9.03618 8.0138
H 6.10354 7.31731 8.44725
H 8.01635 9.47612 7.39617
H 9.52704 6.95778 7.41912
H 6.54875 6.23166 6.7614
H 7.93491 5.19158 7.01304
10
 Atoms. Timestep: 900
C 6.45142 8.21303 7.99013
C 7.70845 8.43789 7.61086
C 8.41052 7.24581 7.27972
C 7.57165 6.20474 7.06777
H 5.82676 9.11339 8.21372
H 6.1789 7.30492 8.48498
H 8.10049 9.42237 7.32127
H 9.54015 7.23062 7.39723
H 6.5385 6.30434 6.738
H 8.0869 5.2355 7.04299
10
 Atoms. Timestep: 920
C 6.46858 8.19662 8.02317
C 7.70193 8.46032 7.57018
C 8.40158 7.24473 7.29817
C 7.5941 6.2134 7.05665
H 5.80715 9.04544 8.30546
H 6.15529 7.24387 8.4716
H 8.13928 9.43867 7.33253
H 9.42282 7.26313 7.31734
H 6.59016 6.34548 6.76459
H 8.01212 5.19302 7.00839
10
 Atoms. Timestep: 940
C 6.50036 8.19491 8.10081
C 7.66735 8.47902 7.5129
C 8.4257 7.26749 7.30606
C 7.60908 6.22785 7.05007
H 5.73119 8.925 8.24805
H 6.17786 7.2098 8.40586
H 8.04169 9.48191 7.40871
H 9.54 7.0871 7.27726
H 6.54819 6.33296 6.78938
H 7.87008 5.16759 6.94069
10
 Atoms. Timestep: 960
C 6.49822 8.16491 8.13205
C 7.6743 8.47752 7.5287
C 8.44618 7.24637 7.25258
C 7.5747 6.25353 7.04716
H 5.70534 8.93165 8.19549
H 6.28566 7.16363 8.47327
H 7.92693 9.53836 7.35836
H 9.57665 7.06748 7.36495
H 6.51092 6.42046 6.79991
H 7.95802 5.24446 6.93407
10
 Atoms. Timestep: 980
C 6.50908 8.1599 8.12207
C 7.68735 8.44954 7.6005
C 8.41912 7.27384 7.22132
C 7.58117 6.24521 7.00206
H 5.71315 8.93912 8.25068
H 6.34545 7.2424 8.68232
H 7.89275 9.45082 7.18727
H 9.42287 7.1707 7.39004
H 6.56303 6.42303 6.75201
H 8.00639 5.22302 6.95098
10
 Atoms. Timestep: 1000
C 6.50018 8.13753 8.15656
C 7.68425 8.47063 7.58861
C 8.39422 7.28826 7.24911
C 7.59674 6.24813 6.96369
H 5.76118 8.91026 8.30332
H 6.34831 7.29558 8.82944
H 7.94623 9.40286 7.10666
H 9.50114 7.22473 7.32512
H 6.56928 6.31787 6.66657
H 7.94552 5.2013 6.91005
10
 Atoms. Timestep: 1020
C 6.52722 8.12852 8.19867
C 7.63957 8.47617 7.5216
C 8.41773 7.26135 7.28737
C 7.57688 6.26669 6.97754
H 5.74478 8.87533 8.32909
H 6.419 7.21491 8.77575
H 7.90671 9.48639 7.19672
H 9.57612 7.20199 7.21337
H 6.51521 6.36889 6.63644
H 7.99378 5.27615 6.8266
10
 Atoms. Timestep: 1040
C 6.55445 8.14695 8.21973
C 7.63099 8.44214 7.50255
C 8.42227 7.28388 7.25305
C 7.58397 6.26479 6.99672
H 5.67222 8.82115 8.4073
H 6.49295 7.14444 8.61205
H 7.79519 9.50685 7.28665
H 9.44487 7.14239 7.24192
H 6.56136 6.50611 6.75224
H 8.00733 5.27252 6.75656
10
 Atoms. Timestep: 1060
C 6.53691 8.10066 8.22066
C 7.6393 8.50007 7.56409
C 8.41799 7.30508 7.16679
C 7.59562 6.26086 6.98972
H 5.75781 8.80181 8.49999
H 6.41948 7.10216 8.62413
H 7.85594 9.50625 7.18473
H 9.48931 7.18936 7.30619
H 6.56234 6.39145 6.83408
H 7.90023 5.22895 6.79233
10
 Atoms. Timestep: 1080
C 6.52486 8.08663 8.23456
C 7.65887 8.50017 7.60343
C 8.39525 7.33497 7.12385
C 7.59508 6.24376 6.94263
H 5.80907 8.83684 8.55592
H 6.36053 7.12473 8.71399
H 7.88255 9.48457 7.21106
H 9.57099 7.30873 7.24236
H 6.49065 6.27192 6.82572
H 7.96583 5.20007 6.91317
10
 Atoms. Timestep: 1100
C 6.55924 8.09687 8.24886
C 7.64222 8.42133 7.58142
C 8.36436 7.3255 7.13581
C 7.60401 6.28326 6.95278
H 5.808 8.87375 8.53931
H 6.42041 7.12835 8.7186
H 7.83159 9.49446 7.43246
H 9.3917 7.31651 6.97951
H 6.51782 6.3099 6.75864
H 8.13554 5.33528 6.94723
10
 Atoms. Timestep: 1120
C 6.54023 8.06976 8.29883
C 7.60213 8.47638 7.56476
C 8.41345 7.34477 7.11697
C 7.58543 6.2477 6.98426
H 5.80963 8.86323 8.53527
H 6.44187 7.07244 8.69238
H 7.90546 9.53575 7.51135
H 9.44236 7.29156 6.81403
H 6.55402 6.32487 6.77351
H 8.1232 5.3005 6.77355
10
 Atoms. Timestep: 1140
C 6.55326 8.0523 8.29027
C 7.61568 8.51195 7.59951
C 8.37558 7.34795 7.07097
C 7.638 6.25853 6.9967
H 5.77227 8.69293 8.6581
H 6.39308 7.05617 8.68991
H 7.88702 9.52594 7.39759
H 9.53488 7.36414 6.85673
H 6.55452 6.29151 6.94199
H 7.88718 5.2649 6.59997
10
 Atoms. Timestep: 1160
C 6.56553 8.05896 8.30187
C 7.64954 8.44888 7.6299
C 8.36063 7.38359 7.04927
C 7.61869 6.26506 6.93402
H 5.75431 8.69246 8.73757
H 6.50141 7.02439 8.64138
H 7.75671 9.49509 7.29197
H 9.41962 7.46077 6.94454
H 6.53227 6.33675 7.20212
H 7.99339 5.27157 6.58112
10
 Atoms. Timestep: 1180
C 6.58443 8.0109 8.35773
C 7.59753 8.45589 7.63286
C 8.38328 7.35676 7.04414
C 7.58016 6.30362 6.88527
H 5.8713 8.7911 8.66832
H 6.57506 7.02654 8.78519
H 7.71466 9.51467 7.29359
H 9.4076 7.44236 6.83031
H 6.53678 6.25197 7.114
H 8.14629 5.43032 6.67754
10
 Atoms. Timestep: 1200
C 6.62066 7.99819 8.42609
C 7.5819 8.4687 7.5762
C 8.34973 7.41131 7.06694
C 7.60477 6.30507 6.88039
H 5.86602 8.7218 8.72888
H 6.53759 7.06663 8.96937
H 7.65878 9.50896 7.39135
H 9.44325 7.31489 6.64368
H 6.54636 6.17478 6.81626
H 8.12968 5.33337 6.64171
10
 Atoms. Timestep: 1220
C 6.66215 7.98726 8.42855
C 7.5533 8.47476 7.58598
C 8.32803 7.40384 7.00178
C 7.61696 6.28567 6.94059
H 5.86267 8.61591 8.85371
H 6.67618 7.0194 8.96204
H 7.62121 9.55047 7.38051
H 9.40702 7.45761 6.75567
H 6.53153 6.33038 6.63636
H 8.06275 5.33703 6.55937
10
 Atoms. Timestep: 1240
C 6.64612 7.94628 8.46381
C 7.5516 8.47553 7.58928
C 8.34426 7.4306 6.95936
C 7.58711 6.26598 6.91042
H 5.87705 8.59614 8.96599
H 6.92968 6.96017 8.8039
H 7.62003 9.54988 7.25366
H 9.359 7.57673 6.89893
H 6.52075 6.47663 6.81669
H 8.04295 5.35006 6.61259
10
 Atoms. Timestep: 1260
C 6.69999 7.93343 8.46858
C 7.51817 8.47198 7.57536
C 8.31456 7.44526 6.98785
C 7.5967 6.35208 6.83272
H 5.933 8.41698 9.02022
H 6.89869 6.95051 8.86113
H 7.56255 9.47544 7.24305
H 9.46664 7.52019 6.85319
H 6.55072 6.32829 7.01484
H 7.93585 5.3121 6.70949
10
 Atoms. Timestep: 1280
C 6.73414 7.91032 8.52893
C 7.50546 8.50013 7.56096
C 8.33906 7.45205 6.99058
C 7.58791 6.35363 6.79295
H 5.88354 8.4546 9.01327
H 6.81838 6.90873 8.97884
H 7.42772 9.56107 7.29407
H 9.42865 7.42973 6.67553
H 6.51242 6.26188 7.0542
H 8.05385 5.30724 6.63255
10
 Atoms. Timestep: 1300
C 6.74276 7.90534 8.53083
C 7.50792 8.46478 7.63135
C 8.32027 7.4486 6.91992
C 7.59489 6.31664 6.87141
H 5.94925 8.56472 8.92413
H 6.92384 6.92896 8.95627
H 7.32327 9.53828 7.34752
H 9.28729 7.50683 6.6076
H 6.5037 6.33211 6.90592
H 8.14153 5.53693 6.42651
10
 Atoms. Timestep: 1320
C 6.71056 7.91152 8.56084
C 7.55721 8.43917 7.63914
C 8.24156 7.50184 6.89359
C 7.63284 6.29497 6.88804
H 5.94888 8.52949 9.03504
H 6.95621 6.95638 8.99125
H 7.41519 9.45627 7.33487
H 9.30258 7.6544 6.51855
H 6.56448 6.25816 6.85087
H 8.08362 5.48029 6.26881
10
 Atoms. Timestep: 1340
C 6.73687 7.86502 8.54743
C 7.50351 8.49068 7.65224
C 8.25887 7.48558 6.87958
C 7.62795 6.33578 6.83901
H 5.99016 8.40095 9.14227
H 6.88886 6.91759 9.07661
H 7.5919 9.52466 7.34862
H 9.26095 7.77031 6.39122
H 6.56815 6.1519 7.0546
H 8.0608 5.39221 6.36617
10
 Atoms. Timestep: 1360
C 6.76192 7.84184 8.5718
C 7.48935 8.47115 7.61955
C 8.27117 7.53075 6.87707
C 7.59256 6.32934 6.79009
H 5.98972 8.4126 9.17225
H 6.9611 6.80621 8.87002
H 7.57057 9.60989 7.53567
H 9.14255 7.69997 6.34781
H 6.63338 6.20305 7.30569
H 8.13664 5.44978 6.5065
10
 Atoms. Timestep: 1380
C 6.78918 7.84654 8.58118
C 7.49845 8.46318 7.65671
C 8.20413 7.52735 6.81428
C 7.62304 6.35396 6.82991
H 6.08562 8.36185 9.17767
H 6.97593 6.82588 8.7649
H 7.41687 9.52502 7.63249
H 9.17484 7.66588 6.32361
H 6.63251 6.19928 7.21593
H 8.14937 5.49591 6.48191
10
 Atoms. Timestep: 1400
C 6.79924 7.82534 8.63698
C 7.51046 8.50763 7.68105
C 8.16893 7.56611 6.75363
C 7.64301 6.30411 6.85183
H 6.09965 8.37949 9.29657
H 6.91706 6.78693 8.95208
H 7.38764 9.56206 7.49842
H 9.24351 7.74109 6.33368
H 6.5819 6.11339 6.97029
H 8.16438 5.41787 6.297
10
 Atoms. Timestep: 1420
C 6.84467 7.80496 8.63096
C 7.47214 8.45337 7.67146
C 8.16091 7.56166 6.8011
C 7.64182 6.34697 6.81727
H 6.17899 8.40051 9.30822
H 7.00233 6.7943 9.05275
H 7.42423 9.56133 7.40762
H 9.06522 7.81318 6.34906
H 6.58651 6.10186 6.9305
H 8.14945 5.54707 6.31605
10
 Atoms. Timestep: 1440
C 6.85832 7.80128 8.66878
C 7.42273 8.42385 7.62707
C 8.20062 7.56666 6.85464
C 7.59792 6.3555 6.74546
H 6.20988 8.38815 9.30965
H 7.20912 6.83169 8.94546
H 7.3621 9.49967 7.51837
H 9.06593 7.85305 6.28433
H 6.5859 6.18885 7.13141
H 8.21351 5.57487 6.32413
10
 Atoms. Timestep: 1460
C 6.88303 7.76579 8.66005
C 7.39473 8.48528 7.64551
C 8.21706 7.54691 6.80623
C 7.59274 6.39768 6.76726
H 6.19611 8.20817 9.36587
H 7.28764 6.80652 8.94388
H 7.21576 9.52081 7.53163
H 9.19379 7.83019 6.25753
H 6.64013 6.19397 7.21939
H 8.06517 5.4864 6.29635
10
 Atoms. Timestep: 1480
C 6.91784 7.76272 8.67656
C 7.44155 8.48993 7.67427
C 8.16859 7.62923 6.75401
C 7.6249 6.3577 6.78306
H 6.10782 8.05536 9.42938
H 7.30138 6.77587 8.98044
H 7.07443 9.54015 7.42359
H 9.15929 7.7442 6.34182
H 6.62087 6.22498 7.15111
H 7.94294 5.44201 6.2353
10
 Atoms. Timestep: 1500
C 6.95112 7.74666 8.71561
C 7.44356 8.46316 7.69901
C 8.11972 7.59888 6.74298
C 7.61495 6.37894 6.77784
H 6.13129 8.13096 9.30637
H 7.40124 6.79498 8.94288
H 7.09267 9.46943 7.39462
H 9.0572 7.85501 6.32347
H 6.56798 6.25567 7.0495
H 8.0975 5.58807 6.25946
10
 Atoms. Timestep: 1520
C 6.97201 7.73204 8.72996
C 7.40408 8.44156 7.65964
C 8.13377 7.61878 6.79133
C 7.56924 6.38186 6.73695
H 6.23044 8.20172 9.35429
H 7.43183 6.79923 9.0221
H 7.17792 9.45119 7.52828
H 9.00818 7.98318 6.15138
H 6.53992 6.12371 7.03549
H 8.2611 5.61554 6.2902
10
 Atoms. Timestep: 1540
C 6.96981 7.71834 8.70272
C 7.36408 8.45069 7.66872
C 8.12644 7.62413 6.76659
C 7.61298 6.40805 6.72698
H 6.36358 8.17333 9.54692
H 7.38151 6.76645 9.08254
H 7.20465 9.5581 7.62324
H 8.93811 7.93269 6.10787
H 6.66788 6.05509 7.06218
H 8.12848 5.52712 6.27619
10
 Atoms. Timestep: 1560
C 6.95651 7.70121 8.73008
C 7.37152 8.46471 7.70856
C 8.07812 7.66019 6.68876
C 7.66196 6.35575 6.75477
H 6.43825 8.17238 9.58489
H 7.34571 6.70826 8.87477
H 7.18379 9.57468 7.60272
H 8.95842 7.92644 6.16123
H 6.69418 6.1745 7.22133
H 8.095 5.57254 6.15109
10
 Atoms. Timestep: 1580
C 6.9903 7.70169 8.74106
C 7.40874 8.45042 7.70466
C 8.01654 7.65338 6.67399
C 7.66571 6.38916 6.77621
H 6.40548 8.09873 9.52319
H 7.28346 6.67212 8.78712
H 7.16459 9.46177 7.62204
H 8.93966 8.02404 6.15512
H 6.7302 6.14418 7.29502
H 8.11287 5.65131 6.13102
10
 Atoms. Timestep: 1600
C 7.03104 7.7059 8.75625
C 7.40287 8.44709 7.71599
C 8.03693 7.67656 6.70167
C 7.62841 6.39409 6.72347
H 6.29783 8.08778 9.52529
H 7.2911 6.65732 8.97368
H 7.1767 9.51515 7.64121
H 8.79212 8.07303 5.98522
H 6.7829 5.95908 7.22205
H 8.18781 5.58577 6.15727
10
 Atoms. Timestep: 1620
C 7.01868 7.65688 8.74606
C 7.39007 8.455 7.74065
C 8.05395 7.67428 6.69956
C 7.62421 6.395 6.71764
H 6.34357 8.146 9.484
H 7.45744 6.71796 9.07468
H 7.17946 9.57616 7.65551
H 8.66083 8.04377 5.92046
H 6.76471 5.96982 7.19979
H 8.19645 5.6793 6.13111
10
 Atoms. Timestep: 1640
C 6.99787 7.6609 8.7545
C 7.41035 8.43495 7.72105
C 8.00637 7.68334 6.70322
C 7.66159 6.39226 6.73277
H 6.40937 8.07014 9.54541
H 7.57246 6.78832 8.97736
H 7.11715 9.44851 7.69168
H 8.71625 8.05598 5.93983
H 6.72334 6.11042 7.24119
H 8.12824 5.71793 6.02431
10
 Atoms. Timestep: 1660
C 7.04902 7.67295 8.77248
C 7.3651 8.44717 7.74083
C 8.01038 7.68427 6.65957
C 7.6593 6.40143 6.73424
H 6.40609 7.9635 9.61976
H 7.55529 6.70861 8.91142
H 7.04497 9.46646 7.62309
H 8.82966 8.12014 6.03289
H 6.75403 6.08822 7.24516
H 8.03117 5.63813 6.01397
10
 Atoms. Timestep: 1680
C 7.12584 7.64242 8.78273
C 7.31965 8.45544 7.72188
C 8.0312 7.70876 6.67709
C 7.61258 6.42093 6.70859
H 6.42473 7.94808 9.6085
H 7.51592 6.62851 8.90668
H 6.96757 9.53869 7.57711
H 8.82793 8.08978 6.08755
H 6.77929 6.04241 7.24628
H 8.07286 5.60723 6.12112
10
 Atoms. Timestep: 1700
C 7.13752 7.6492 8.77482
C 7.3184 8.42427 7.71417
C 8.00207 7.70415 6.71665
C 7.59846 6.43076 6.67112
H 6.52491 7.98722 9.5899
H 7.61283 6.71284 8.90994
H 6.92388 9.41715 7.68503
H 8.81024 8.04522 6.06953
H 6.69992 6.11078 7.2059
H 8.21355 5.69654 6.16819
10
 Atoms. Timestep: 1720
C 7.11302 7.62587 8.79808
C 7.32183 8.43709 7.7316
C 7.98629 7.69302 6.67346
C 7.61063 6.42521 6.68696
H 6.57285 8.03664 9.65834
H 7.77843 6.76493 8.96187
H 6.89592 9.41039 7.71006
H 8.83499 8.09234 6.04679
H 6.62101 6.10661 7.06351
H 8.23013 5.72194 6.10781
10
 Atoms. Timestep: 1740
C 7.12948 7.61305 8.79069
C 7.31623 8.42777 7.74701
C 7.97617 7.74891 6.6521
C 7.62687 6.41069 6.71332
H 6.58279 7.95965 9.70395
H 7.80709 6.76873 9.02274
H 6.90317 9.48278 7.63145
H 8.79761 8.123 6.0691
H 6.65762 6.04115 6.98705
H 8.08321 5.64216 6.05604
10
 Atoms. Timestep: 1760
C 7.17336 7.62427 8.8075
C 7.30446 8.42136 7.73171
C 7.95408 7.71521 6.68047
C 7.63526 6.43732 6.67962
H 6.52339 7.86712 9.65255
H 7.75198 6.74587 8.93628
H 6.92714 9.45008 7.65365
H 8.7091 8.15971 6.05883
H 6.71266 6.12911 7.14019
H 8.09679 5.67918 6.0517
10
 Atoms. Timestep: 1780
C 7.19121 7.61124 8.79961
C 7.29421 8.43346 7.74626
C 7.97291 7.72486 6.68006
C 7.59496 6.42898 6.67146
H 6.50952 7.8621 9.60115
H 7.72659 6.67813 8.83174
H 6.90666 9.40026 7.71572
H 8.67983 8.21006 5.93682
H 6.78991 6.12334 7.37787
H 8.19174 5.75484 6.04135
10
 Atoms. Timestep: 1800
C 7.161 7.59612 8.79703
C 7.33443 8.43595 7.76484
C 7.94877 7.7515 6.64207
C 7.61456 6.46257 6.67838
H 6.56885 7.87367 9.69045
H 7.7461 6.64284 8.91413
H 6.83222 9.45338 7.7573
H 8.60998 8.14345 5.88856
H 6.90647 5.91973 7.29978
H 8.10784 5.71014 6.04491
10
 Atoms. Timestep: 1820
C 7.15206 7.60089 8.82086
C 7.35287 8.42597 7.7988
C 7.8813 7.76322 6.62058
C 7.67398 6.42107 6.6644
H 6.62336 7.91315 9.74288
H 7.71778 6.71899 9.00016
H 6.88693 9.44826 7.75206
H 8.5342 8.16815 5.87257
H 6.89527 5.94795 7.20458
H 8.10519 5.75664 5.88889
10
 Atoms. Timestep: 1840
C 7.1945 7.56274 8.8168
C 7.32036 8.42292 7.77003
C 7.84454 7.73443 6.63913
C 7.69364 6.42739 6.69639
H 6.64823 7.98509 9.65213
H 7.72488 6.65539 8.95437
H 7.02528 9.41233 7.78227
H 8.42263 8.32421 5.87273
H 6.84025 6.02883 7.24998
H 8.14448 5.92931 5.84342
10
 Atoms. Timestep: 1860
C 7.23304 7.5876 8.82505
C 7.27637 8.38349 7.77309
C 7.86172 7.78734 6.64227
C 7.67026 6.45286 6.65881
H 6.66456 7.90741 9.72181
H 7.71323 6.58188 8.89098
H 7.05678 9.47325 7.84501
H 8.3459 8.31854 5.81886
H 6.92838 5.90873 7.28933
H 8.1668 5.76248 5.92773
10
 Atoms. Timestep: 1880
C 7.23625 7.56632 8.83509
C 7.26955 8.41622 7.81255
C 7.86178 7.78508 6.58613
C 7.65125 6.46842 6.63415
H 6.78286 7.77505 9.81161
H 7.73215 6.58877 8.84951
H 6.9089 9.51814 7.87336
H 8.37978 8.27533 5.79857
H 7.05679 5.92674 7.30967
H 8.15055 5.71967 6.03877
10
 Atoms. Timestep: 1900
C 7.24872 7.51086 8.81497
C 7.30369 8.45005 7.7987
C 7.7931 7.79997 6.60102
C 7.65678 6.44937 6.66369
H 6.8571 7.76918 9.79417
H 7.83282 6.63943 8.81459
H 6.79981 9.34757 7.86459
H 8.46052 8.2825 5.82898
H 6.9664 6.06495 7.40829
H 8.1936 5.8549 5.90812
10
 Atoms. Timestep: 1920
C 7.30705 7.55362 8.83372
C 7.29243 8.38092 7.82218
C 7.77266 7.78302 6.62335
C 7.66133 6.48205 6.62601
H 6.7664 7.80776 9.76736
H 7.99246 6.70766 8.85003
H 6.74276 9.32895 7.85461
H 8.3917 8.31825 5.89679
H 6.87527 5.99751 7.25057
H 8.15456 5.86217 5.83811
10
 Atoms. Timestep: 1940
C 7.3792 7.54801 8.86907
C 7.21749 8.36043 7.81029
C 7.82756 7.82766 6.62601
C 7.61867 6.47054 6.6165
H 6.74954 7.76483 9.74977
H 8.12454 6.7107 8.96833
H 6.71231 9.41784 7.84652
H 8.31793 8.39284 5.87114
H 6.88492 5.83958 7.06551
H 8.07723 5.85429 5.85653
10
 Atoms. Timestep: 1960
C 7.3926 7.51574 8.82752
C 7.19387 8.37373 7.80461
C 7.8185 7.82263 6.64307
C 7.61416 6.49017 6.63159
H 6.91609 7.64823 9.78165
H 8.15007 6.78163 8.92358
H 6.66226 9.26474 7.88555
H 8.3235 8.39121 5.82889
H 6.84505 5.97247 7.20377
H 8.11224 5.94814 5.82484
10
 Atoms. Timestep: 1980
C 7.38659 7.50412 8.85145
C 7.22218 8.38345 7.84341
C 7.75447 7.81038 6.62108
C 7.64021 6.50922 6.58332
H 6.95771 7.62316 9.8841
H 8.18218 6.80964 8.69009
H 6.5333 9.20709 7.91267
H 8.36497 8.33441 5.86378
H 6.92843 6.14082 7.34504
H 8.13669 5.86193 5.79782
10
 Atoms. Timestep: 2000
C 7.4256 7.4937 8.83058
C 7.21337 8.38316 7.88295
C 7.73157 7.87841 6.57484
C 7.63672 6.50262 6.61255
H 7.0031 7.58608 9.82947
H 8.19639 6.67833 8.69657
H 6.45313 9.28821 7.91448
H 8.33739 8.42472 5.87678
H 7.03903 5.87929 7.26475
H 8.05142 5.81596 5.90137
10
 Atoms. Timestep: 2020
C 7.48641 7.50351 8.86265
C 7.1809 8.37119 7.8266
C 7.69935 7.85492 6.61173
C 7.63461 6.51004 6.58749
H 6.99154 7.55258 9.82491
H 8.14812 6.64799 8.83021
H 6.62087 9.26033 8.03331
H 8.16878 8.49487 5.85078
H 7.03664 5.88512 7.21345
H 8.15038 5.94119 5.80545
10
 Atoms. Timestep: 2040
C 7.48603 7.49215 8.84198
C 7.18658 8.31695 7.88499
C 7.65722 7.82812 6.62708
C 7.66615 6.5263 6.56567
H 7.00116 7.68604 9.8222
H 8.19659 6.72925 8.7932
H 6.74975 9.24446 8.04304
H 7.98054 8.46259 5.77547
H 6.9794 6.00148 7.2522
H 8.24071 6.11497 5.68457
10
 Atoms. Timestep: 2060
C 7.45934 7.40749 8.86333
C 7.20542 8.33858 7.88226
C 7.61246 7.89887 6.59469
C 7.69936 6.53538 6.58154
H 7.15709 7.74047 9.89567
H 8.30904 6.68324 8.73976
H 6.65308 9.37857 8.03539
H 7.90979 8.48934 5.74707
H 7.12484 5.85119 7.20489
H 8.11072 5.99534 5.7353
10
 Atoms. Timestep: 2080
C 7.46883 7.46264 8.8567
C 7.21204 8.34981 7.91539
C 7.5818 7.88524 6.56694
C 7.69552 6.54211 6.55159
H 7.28617 7.52259 9.91243
H 8.21033 6.65492 8.76278
H 6.61733 9.2414 8.11767
H 7.87907 8.57126 5.77302
H 7.30072 5.83897 7.24704
H 8.08131 5.95209 5.73229
10
 Atoms. Timestep: 2100
C 7.56844 7.45391 8.85596
C 7.17609 8.3565 7.90326
C 7.56454 7.85565 6.60382
C 7.67192 6.54567 6.54143
H 7.14823 7.50361 9.88117
H 8.14723 6.61266 8.62721
H 6.60683 9.17783 8.15164
H 7.82156 8.55971 5.78509
H 7.36503 5.97063 7.41389
H 8.14925 6.12522 5.60327
10
 Atoms. Timestep: 2120
C 7.61148 7.43373 8.82149
C 7.171 8.30007 7.93332