LAMMPS (2 Aug 2023 - Update 2)
#13 Butadiene
units           metal
boundary        p p p
atom_style      atomic

neighbor        2.0 bin
neigh_modify    delay 0 every 1 check yes

read_data       restart.lmp
Reading data file ...
  orthogonal box = (0 0 0) to (15 15 15)
  1 by 1 by 3 MPI processor grid
  reading atoms ...
  10 atoms
  reading velocities ...
  10 velocities
  read_data CPU = 0.001 seconds
mass            1 12.0
mass            2 2

variable        sysvol          equal vol
variable        sysmass         equal mass(all)/6.0221367e+23
variable        sysdensity      equal v_sysmass/v_sysvol/1.0e-24
variable	out_freq 	equal 100

pair_style      deepmd ../files/frozen_model_1_compressed.pb ../files/frozen_model_2_compressed.pb ../files/frozen_model_3_compressed.pb ../files/frozen_model_3_compressed.pb out_file md.out out_freq 10 atomic relative 1.0
Summary of lammps deepmd module ...
  >>> Info of deepmd-kit:
  installed to:       /rs1/researchers/w/wjpfaend/rahul/MLP/DeePMD-kit/deepmd_cpu
  source:             v2.2.8-dirty
  source branch:      master
  source commit:      b875ea8
  source commit at:   2024-01-22 22:28:58 -0500
  support model ver.: 1.1 
  build variant:      cpu
  build with tf inc:  /rs1/researchers/w/wjpfaend/rahul/MLP/DeePMD-kit/tensorflow/lib/python3.11/site-packages/tensorflow/include;/rs1/researchers/w/wjpfaend/rahul/MLP/DeePMD-kit/tensorflow/lib/python3.11/site-packages/tensorflow/include
  build with tf lib:  /rs1/researchers/w/wjpfaend/rahul/MLP/DeePMD-kit/tensorflow/lib/python3.11/site-packages/tensorflow/libtensorflow_cc.so.2
  set tf intra_op_parallelism_threads: 0
  set tf inter_op_parallelism_threads: 0
  >>> Info of lammps module:
  use deepmd-kit at:  /rs1/researchers/w/wjpfaend/rahul/MLP/DeePMD-kit/deepmd_cpu
  source:             v2.2.8-dirty
  source branch:      master
  source commit:      b875ea8
  source commit at:   2024-01-22 22:28:58 -0500
  build float prec:   double
  build with tf inc:  /rs1/researchers/w/wjpfaend/rahul/MLP/DeePMD-kit/tensorflow/lib/python3.11/site-packages/tensorflow/include;/rs1/researchers/w/wjpfaend/rahul/MLP/DeePMD-kit/tensorflow/lib/python3.11/site-packages/tensorflow/include
  build with tf lib:  /rs1/researchers/w/wjpfaend/rahul/MLP/DeePMD-kit/tensorflow/lib/python3.11/site-packages/tensorflow/libtensorflow_cc.so.2
pair_coeff	* *

#
velocity        all create 300.0 2345678 rot no dist gaussian
fix             1 all nvt temp 300.0 300.0 0.05
fix             2 all plumed plumedfile plumed.dat outfile PLUMED.log

timestep        0.0005
thermo_style    custom step pe ke etotal v_sysdensity temp press vol
thermo          10

dump            10 all custom 100 btd.dump id type x y z
dump		101 all xyz 20 btd.xyz
dump_modify	101 element C H

fix		extra all print 20 "$(step), $(ke), $(pe), $(etotal), $(temp), $(press), $(vol)" file logfile screen no

restart	        20000 dump.restart

run             50000

CITE-CITE-CITE-CITE-CITE-CITE-CITE-CITE-CITE-CITE-CITE-CITE-CITE

Your simulation uses code contributions which should be cited:

- USER-DEEPMD package:

@article{Wang_ComputPhysCommun_2018_v228_p178,
  author = {Wang, Han and Zhang, Linfeng and Han, Jiequn and E, Weinan},
  doi = {10.1016/j.cpc.2018.03.016},
  url = {https://doi.org/10.1016/j.cpc.2018.03.016},
  year = 2018,
  month = {jul},
  publisher = {Elsevier {BV}},
  volume = 228,
  journal = {Comput. Phys. Commun.},
  title = {{DeePMD-kit: A deep learning package for many-body potential energy representation and molecular dynamics}},
  pages = {178--184}
}
@misc{Zeng_JChemPhys_2023_v159_p054801,
  title  = {{DeePMD-kit v2: A software package for deep potential models}},
  author =   {Jinzhe Zeng and Duo Zhang and Denghui Lu and Pinghui Mo and Zeyu Li
         and Yixiao Chen and Mari{\'a}n Rynik and Li'ang Huang and Ziyao Li and 
         Shaochen Shi and Yingze Wang and Haotian Ye and Ping Tuo and Jiabin
         Yang and Ye Ding and Yifan Li and Davide Tisi and Qiyu Zeng and Han 
         Bao and Yu Xia and Jiameng Huang and Koki Muraoka and Yibo Wang and 
         Junhan Chang and Fengbo Yuan and Sigbj{\o}rn L{\o}land Bore and Chun
         Cai and Yinnian Lin and Bo Wang and Jiayan Xu and Jia-Xin Zhu and 
         Chenxing Luo and Yuzhi Zhang and Rhys E A Goodall and Wenshuo Liang
         and Anurag Kumar Singh and Sikai Yao and Jingchao Zhang and Renata
         Wentzcovitch and Jiequn Han and Jie Liu and Weile Jia and Darrin M
         York and Weinan E and Roberto Car and Linfeng Zhang and Han Wang},
  journal =  {J. Chem. Phys.},
  volume =   159,
  issue =    5,  
  year =    2023,
  pages  =   054801,
  doi =      {10.1063/5.0155600},
}

CITE-CITE-CITE-CITE-CITE-CITE-CITE-CITE-CITE-CITE-CITE-CITE-CITE

Generated 0 of 1 mixed pair_coeff terms from geometric mixing rule
Neighbor list info ...
  update: every = 1 steps, delay = 0 steps, check = yes
  max neighbors/atom: 2000, page size: 100000
  master list distance cutoff = 8
  ghost atom cutoff = 8
  binsize = 4, bins = 4 4 4
  1 neighbor lists, perpetual/occasional/extra = 1 0 0
  (1) pair deepmd, perpetual
      attributes: full, newton on
      pair build: full/bin/atomonly
      stencil: full/bin/3d
      bin: standard
Per MPI rank memory allocation (min/avg/max) = 2.958 | 2.999 | 3.082 Mbytes
   Step         PotEng         KinEng         TotEng      v_sysdensity       Temp          Press          Volume    
         0  -55.895816      0.34900239    -55.546813      0.029520714    300           -1196.664       3375         
        10  -55.617891      0.46864875    -55.149242      0.029520714    402.84717     -1051.1097      3375         
        20  -55.611429      0.4363914     -55.175038      0.029520714    375.11898      922.34592      3375         
        30  -55.665453      0.48099257    -55.18446       0.029520714    413.45783      541.4604       3375         
        40  -55.668343      0.44522038    -55.223123      0.029520714    382.7083      -876.37824      3375         
        50  -55.528828      0.34425476    -55.184573      0.029520714    295.91897      181.93851      3375         
        60  -55.553058      0.35693778    -55.19612       0.029520714    306.8212       1260.7864      3375         
        70  -55.584827      0.36113703    -55.22369       0.029520714    310.43085      76.219477      3375         
        80  -55.634099      0.39016125    -55.243938      0.029520714    335.37987     -1151.0653      3375         
        90  -55.723626      0.4727068     -55.25092       0.029520714    406.33544     -1474.0803      3375         
       100  -55.624486      0.35347907    -55.271007      0.029520714    303.84812      736.88123      3375         
       110  -55.611053      0.32864811    -55.282405      0.029520714    282.5036       2025.0739      3375         
       120  -55.735346      0.43260979    -55.302736      0.029520714    371.86833     -365.33588      3375         
       130  -55.65824       0.33125208    -55.326988      0.029520714    284.74196     -1065.8431      3375         
       140  -55.682265      0.33251977    -55.349745      0.029520714    285.83165      314.83598      3375         
       150  -55.663523      0.2821874     -55.381336      0.029520714    242.56631      228.74657      3375         
       160  -55.728342      0.31847951    -55.409862      0.029520714    273.76275     -726.3209       3375         
       170  -55.714132      0.33495043    -55.379181      0.029520714    287.92103     -326.14867      3375         
       180  -55.711086      0.28740805    -55.423678      0.029520714    247.05394      796.08469      3375         
       190  -55.661701      0.21639017    -55.445311      0.029520714    186.00747      1176.9035      3375         
       200  -55.837387      0.35581515    -55.481572      0.029520714    305.8562      -597.99369      3375         
       210  -55.68893       0.21055506    -55.478375      0.029520714    180.99165     -1994.0009      3375         
       220  -55.753987      0.29550422    -55.458482      0.029520714    254.01335      259.34416      3375         
       230  -55.725494      0.24174315    -55.483751      0.029520714    207.80071      1888.1505      3375         
       240  -55.744853      0.242485      -55.502368      0.029520714    208.4384       149.23421      3375         
       250  -55.779821      0.26299764    -55.516823      0.029520714    226.07092     -1003.1438      3375         
       260  -55.839093      0.34565636    -55.493437      0.029520714    297.12377     -324.06977      3375         
       270  -55.662924      0.16218487    -55.500739      0.029520714    139.41297      575.08202      3375         
       280  -55.759397      0.25258647    -55.50681       0.029520714    217.12155      143.06124      3375         
       290  -55.743522      0.24724287    -55.496279      0.029520714    212.52823     -960.87487      3375         
       300  -55.797885      0.29932803    -55.498557      0.029520714    257.30027     -381.96792      3375         
       310  -55.714339      0.2135528     -55.500786      0.029520714    183.56848      1518.6356      3375         
       320  -55.726513      0.22085486    -55.505658      0.029520714    189.84528      544.53566      3375         
       330  -55.732855      0.24709572    -55.485759      0.029520714    212.40175     -1120.6699      3375         
       340  -55.815817      0.34982135    -55.465995      0.029520714    300.70397     -170.52535      3375         
       350  -55.698173      0.22472068    -55.473452      0.029520714    193.16831      472.9491       3375         
       360  -55.788424      0.30329786    -55.485127      0.029520714    260.71271      95.362522      3375         
       370  -55.74659       0.2545263     -55.492064      0.029520714    218.78902     -686.07141      3375         
       380  -55.659345      0.22763437    -55.431711      0.029520714    195.6729      -411.79891      3375         
       390  -55.789573      0.35029888    -55.439274      0.029520714    301.11445      1297.8583      3375         
       400  -55.745683      0.29855893    -55.447124      0.029520714    256.63915      878.41736      3375         
       410  -55.661157      0.21321362    -55.447943      0.029520714    183.27692     -1611.9752      3375         
       420  -55.770353      0.33043173    -55.439922      0.029520714    284.03679     -1344.3066      3375         
       430  -55.774051      0.35771988    -55.416331      0.029520714    307.49349      998.46588      3375         
       440  -55.612988      0.19875618    -55.414232      0.029520714    170.84941      1432.1277      3375         
       450  -55.717146      0.30256579    -55.41458       0.029520714    260.08343      212.27906      3375         
       460  -55.734429      0.32786028    -55.406569      0.029520714    281.82639     -1001.2934      3375         
       470  -55.749001      0.35503725    -55.393964      0.029520714    305.18752     -923.94581      3375         
       480  -55.656175      0.25610167    -55.400073      0.029520714    220.1432       673.30647      3375         
       490  -55.731437      0.3419866     -55.389451      0.029520714    293.96928      74.141205      3375         
       500  -55.667361      0.32431303    -55.343048      0.029520714    278.7772      -594.22763      3375         
       510  -55.704255      0.3549939     -55.349262      0.029520714    305.15026      889.91581      3375         
       520  -55.658987      0.31139328    -55.347594      0.029520714    267.67147      813.42112      3375         
       530  -55.708105      0.3599504     -55.348154      0.029520714    309.41084     -865.3144       3375         
       540  -55.598981      0.25649796    -55.342483      0.029520714    220.48384     -1018.3847      3375         
       550  -55.641834      0.34855231    -55.293282      0.029520714    299.61312      68.529995      3375         
       560  -55.707884      0.40648219    -55.301401      0.029520714    349.40923      1216.6009      3375         
       570  -55.641493      0.34123964    -55.300253      0.029520714    293.32719      754.07487      3375         
       580  -55.616277      0.32387436    -55.292402      0.029520714    278.40012     -1271.4587      3375         
       590  -55.729611      0.46573135    -55.263879      0.029520714    400.33939     -633.16554      3375         
       600  -55.591027      0.32798363    -55.263043      0.029520714    281.93242      1317.0829      3375         
       610  -55.623631      0.37743804    -55.246193      0.029520714    324.44308      124.08978      3375         
       620  -55.677709      0.44019951    -55.237509      0.029520714    378.39241     -1164.3814      3375         
       630  -55.620215      0.38440148    -55.235813      0.029520714    330.42881     -508.17101      3375         
       640  -55.571517      0.35001328    -55.221504      0.029520714    300.86896      781.33291      3375         
       650  -55.678498      0.44744189    -55.231056      0.029520714    384.6179       1130.4167      3375         
       660  -55.570764      0.34382937    -55.226935      0.029520714    295.5533      -268.96302      3375         
       670  -55.645325      0.46981183    -55.175513      0.029520714    403.84694     -1018.5061      3375         
       680  -55.610725      0.41443866    -55.196287      0.029520714    356.24855      125.73591      3375         
       690  -55.564983      0.35938487    -55.205598      0.029520714    308.92471      259.95154      3375         
       700  -55.594657      0.39717836    -55.197479      0.029520714    341.41173     -850.97801      3375         
       710  -55.653051      0.46470872    -55.188342      0.029520714    399.46035      112.19101      3375         
       720  -55.696569      0.51626441    -55.180305      0.029520714    443.77725      1341.1068      3375         
       730  -55.568236      0.38170837    -55.186528      0.029520714    328.11383      367.7724       3375         
       740  -55.598124      0.39491268    -55.203211      0.029520714    339.46416     -1198.019       3375         
       750  -55.634941      0.43528078    -55.19966       0.029520714    374.1643      -1294.314       3375         
       760  -55.645574      0.44548839    -55.200085      0.029520714    382.93868      674.81397      3375         
       770  -55.608143      0.37992157    -55.228221      0.029520714    326.57791      1939.9372      3375         
       780  -55.653888      0.41189808    -55.24199       0.029520714    354.0647       8.5087522      3375         
       790  -55.493583      0.24930865    -55.244275      0.029520714    214.30396     -1336.1356      3375         
       800  -55.706934      0.43611541    -55.270818      0.029520714    374.88174     -266.61269      3375         
       810  -55.731297      0.42684976    -55.304447      0.029520714    366.91705      382.07159      3375         
       820  -55.612758      0.27557457    -55.337183      0.029520714    236.88196     -445.88612      3375         
       830  -55.613375      0.28109507    -55.33228       0.029520714    241.62734     -59.404149      3375         
       840  -55.8278        0.46408974    -55.363711      0.029520714    398.92827      909.42855      3375         
       850  -55.673471      0.27404303    -55.399428      0.029520714    235.56546      641.90573      3375         
       860  -55.694248      0.26599246    -55.428255      0.029520714    228.64525     -439.16149      3375         
       870  -55.722576      0.28122188    -55.441354      0.029520714    241.73635     -1155.9443      3375         
       880  -55.720562      0.27812554    -55.442436      0.029520714    239.07476     -60.690228      3375         
       890  -55.771107      0.30925866    -55.461849      0.029520714    265.83656      1163.1509      3375         
       900  -55.746637      0.25776719    -55.48887       0.029520714    221.57486     -235.27484      3375         
       910  -55.637191      0.15288962    -55.484302      0.029520714    131.42284     -953.92265      3375         
       920  -55.749914      0.27114036    -55.478773      0.029520714    233.07034      592.51104      3375         
       930  -55.808826      0.30877284    -55.500053      0.029520714    265.41896      741.64741      3375         
       940  -55.762142      0.26011943    -55.502023      0.029520714    223.59683     -325.03524      3375         
       950  -55.655181      0.16381712    -55.491364      0.029520714    140.81605     -732.74802      3375         
       960  -55.773845      0.27498864    -55.498856      0.029520714    236.3783      -391.30811      3375         
       970  -55.826039      0.32530314    -55.500736      0.029520714    279.62829      896.79355      3375         
       980  -55.780288      0.27282499    -55.507463      0.029520714    234.51844      737.96628      3375         
       990  -55.685247      0.17944647    -55.505801      0.029520714    154.25092     -832.70407      3375         
      1000  -55.755798      0.28067531    -55.475123      0.029520714    241.26652     -235.36764      3375         
      1010  -55.697946      0.216673      -55.481273      0.029520714    186.25059      478.53562      3375         
      1020  -55.779494      0.29440993    -55.485084      0.029520714    253.07271     -525.12444      3375         
      1030  -55.763255      0.29643958    -55.466815      0.029520714    254.81738     -573.32807      3375         
      1040  -55.656068      0.20655562    -55.449512      0.029520714    177.55376      712.90371      3375         
      1050  -55.702505      0.26275738    -55.439748      0.029520714    225.86439      1247.5603      3375         
      1060  -55.861278      0.43726562    -55.424012      0.029520714    375.87045      359.18299      3375         
      1070  -55.638035      0.22514112    -55.412894      0.029520714    193.52972     -1667.0931      3375         
      1080  -55.644911      0.25857165    -55.386339      0.029520714    222.26637     -1611.2762      3375         
      1090  -55.825403      0.46977678    -55.355626      0.029520714    403.81682      1202.5         3375         
      1100  -55.678816      0.33271683    -55.346099      0.029520714    286.00104      1691.7552      3375         
      1110  -55.580614      0.2537125     -55.326901      0.029520714    218.08948     -177.59572      3375         
      1120  -55.691947      0.40033803    -55.291609      0.029520714    344.12776     -617.33719      3375         
      1130  -55.693737      0.41454462    -55.279193      0.029520714    356.33963     -555.07791      3375         
      1140  -55.617372      0.34795944    -55.269413      0.029520714    299.10348     -220.07962      3375         
      1150  -55.668218      0.41348451    -55.254734      0.029520714    355.42838      3.8336537      3375         
      1160  -55.594788      0.36496552    -55.229822      0.029520714    313.72179     -162.91179      3375         
      1170  -55.561184      0.3411859     -55.219998      0.029520714    293.281        988.44327      3375         
      1180  -55.673803      0.45258793    -55.221215      0.029520714    389.0414       805.0671       3375         
      1190  -55.727416      0.51007756    -55.217339      0.029520714    438.45908     -1084.2626      3375         
      1200  -55.541186      0.3375648     -55.203621      0.029520714    290.16833     -734.53343      3375         
      1210  -55.551352      0.35527082    -55.196082      0.029520714    305.3883       754.48227      3375         
      1220  -55.717885      0.51306247    -55.204823      0.029520714    441.02489      161.07555      3375         
      1230  -55.605275      0.39343942    -55.211835      0.029520714    338.19776     -719.46366      3375         
      1240  -55.512892      0.3123172     -55.200575      0.029520714    268.46566     -503.67203      3375         
      1250  -55.718686      0.51106504    -55.207621      0.029520714    439.30791      553.02089      3375         
      1260  -55.618049      0.3965949     -55.221454      0.029520714    340.91018      1443.4177      3375         
      1270  -55.488369      0.26050471    -55.227864      0.029520714    223.92801      16.249686      3375         
      1280  -55.592216      0.37366984    -55.218546      0.029520714    321.20397     -1577.5662      3375         
      1290  -55.731339      0.50759198    -55.223747      0.029520714    436.32249     -266.24607      3375         
      1300  -55.584976      0.35142309    -55.233553      0.029520714    302.08081      1072.711       3375         
      1310  -55.622845      0.37065324    -55.252191      0.029520714    318.61092      235.51858      3375         
      1320  -55.612402      0.35156896    -55.260833      0.029520714    302.2062      -183.63142      3375         
      1330  -55.614159      0.37314751    -55.241011      0.029520714    320.75497      26.261377      3375         
      1340  -55.656851      0.39423756    -55.262613      0.029520714    338.88383     -322.74046      3375         
      1350  -55.752926      0.47012421    -55.282801      0.029520714    404.11546     -646.86691      3375         
      1360  -55.563775      0.28932941    -55.274446      0.029520714    248.70552     -585.59806      3375         
      1370  -55.57528       0.28828176    -55.286998      0.029520714    247.80498      1003.5407      3375         
      1380  -55.729157      0.42619005    -55.302967      0.029520714    366.34997      2067.6784      3375         
      1390  -55.765032      0.45087407    -55.314158      0.029520714    387.56818     -285.35522      3375         
      1400  -55.571736      0.24630815    -55.325428      0.029520714    211.72475     -2177.0186      3375         
      1410  -55.648597      0.32966901    -55.318928      0.029520714    283.38116     -1028.7432      3375         
      1420  -55.684811      0.36179524    -55.323016      0.029520714    310.99664      816.48596      3375         
      1430  -55.72491       0.3713296     -55.353581      0.029520714    319.19231      1172.1461      3375         
      1440  -55.703457      0.34549853    -55.357959      0.029520714    296.98811      7.5856148      3375         
      1450  -55.666843      0.33220229    -55.334641      0.029520714    285.55875     -340.55509      3375         
      1460  -55.686815      0.32460893    -55.362206      0.029520714    279.03155      413.47075      3375         
      1470  -55.76744       0.39016771    -55.377273      0.029520714    335.38542     -39.704697      3375         
      1480  -55.619538      0.23984563    -55.379692      0.029520714    206.16961     -1020.7306      3375         
      1490  -55.649266      0.26169574    -55.38757       0.029520714    224.95182     -287.17558      3375         
      1500  -55.76142       0.37313187    -55.388288      0.029520714    320.74153      900.04356      3375         
      1510  -55.735304      0.33411832    -55.401186      0.029520714    287.20575      518.92574      3375         
      1520  -55.682425      0.26349764    -55.418928      0.029520714    226.50072     -217.20219      3375         
      1530  -55.70294       0.29543295    -55.407507      0.029520714    253.95208     -123.28322      3375         
      1540  -55.714765      0.29219182    -55.422573      0.029520714    251.16604      190.02797      3375         
      1550  -55.779813      0.33190679    -55.447907      0.029520714    285.30475     -148.36698      3375         
      1560  -55.760565      0.31935894    -55.441206      0.029520714    274.5187      -863.67008      3375         
      1570  -55.666519      0.20915796    -55.457361      0.029520714    179.79071     -358.64166      3375         
      1580  -55.683172      0.20659601    -55.476576      0.029520714    177.58848      1187.7008      3375         
      1590  -55.801189      0.30823096    -55.492958      0.029520714    264.95317      1184.1104      3375         
      1600  -55.835984      0.30904909    -55.526935      0.029520714    265.65642     -709.27102      3375         
      1610  -55.693433      0.17116851    -55.522265      0.029520714    147.13525     -1341.0134      3375         
      1620  -55.725177      0.20025414    -55.524923      0.029520714    172.13705     -189.06803      3375         
      1630  -55.813657      0.25598744    -55.55767       0.029520714    220.045        715.27758      3375         
      1640  -55.782954      0.20555897    -55.577395      0.029520714    176.69704      587.28155      3375         
      1650  -55.755422      0.1808905     -55.574531      0.029520714    155.4922      -42.406886      3375         
      1660  -55.869271      0.28097179    -55.588299      0.029520714    241.52137     -356.11369      3375         
      1670  -55.798653      0.20779179    -55.590861      0.029520714    178.61636     -127.59113      3375         
      1680  -55.760254      0.16024079    -55.600013      0.029520714    137.74186     -447.02294      3375         
      1690  -55.837217      0.22594823    -55.611269      0.029520714    194.22351     -374.07162      3375         
      1700  -55.846338      0.24317122    -55.603167      0.029520714    209.02827      1000.5341      3375         
      1710  -55.761137      0.15333975    -55.607797      0.029520714    131.80977      1101.6411      3375         
      1720  -55.820755      0.20680337    -55.613952      0.029520714    177.76672     -424.10335      3375         
      1730  -55.79682       0.19935961    -55.59746       0.029520714    171.36812     -978.8228       3375         
      1740  -55.714845      0.11812058    -55.596724      0.029520714    101.53562     -603.65516      3375         
      1750  -55.780142      0.18146994    -55.598672      0.029520714    155.99028      340.31417      3375         
      1760  -55.906015      0.31799773    -55.588018      0.029520714    273.34861      604.91663      3375         
      1770  -55.785231      0.21824571    -55.566985      0.029520714    187.60248     -340.4993       3375         
      1780  -55.698627      0.15477484    -55.543852      0.029520714    133.04337      100.6904       3375         
      1790  -55.808986      0.27329698    -55.535689      0.029520714    234.92416      1065.6781      3375         
      1800  -55.812252      0.28643004    -55.525822      0.029520714    246.21325     -15.742208      3375         
      1810  -55.724366      0.21077715    -55.513589      0.029520714    181.18255     -930.65321      3375         
      1820  -55.775619      0.3080376     -55.467581      0.029520714    264.78696     -809.4658       3375         
      1830  -55.749661      0.3065036     -55.443158      0.029520714    263.46833     -166.65068      3375         
      1840  -55.616289      0.18210632    -55.434183      0.029520714    156.53731      1010.9761      3375         
      1850  -55.708015      0.28218789    -55.425827      0.029520714    242.56673      643.91042      3375         
      1860  -55.804635      0.39401208    -55.410623      0.029520714    338.69001     -343.14553      3375         
      1870  -55.617804      0.22536621    -55.392437      0.029520714    193.72321      111.33402      3375         
      1880  -55.644326      0.27437281    -55.369953      0.029520714    235.84894     -565.38697      3375         
      1890  -55.74517       0.38857072    -55.356599      0.029520714    334.01266     -1043.1885      3375         
      1900  -55.60409       0.24996059    -55.354129      0.029520714    214.86436      486.31585      3375         
      1910  -55.639148      0.28929493    -55.349853      0.029520714    248.67589      1032.5451      3375         
      1920  -55.848296      0.5010419     -55.347254      0.029520714    430.69209      585.19369      3375         
      1930  -55.732183      0.39174816    -55.340434      0.029520714    336.74396     -292.62872      3375         
      1940  -55.507414      0.21145011    -55.295964      0.029520714    181.76103     -1373.488       3375         
      1950  -55.635534      0.33080693    -55.304727      0.029520714    284.35931     -395.06192      3375         
      1960  -55.761765      0.45107749    -55.310688      0.029520714    387.74304      1092.8647      3375         
      1970  -55.637408      0.33044761    -55.30696       0.029520714    284.05044      347.83165      3375         
      1980  -55.641685      0.34950003    -55.292185      0.029520714    300.42777     -41.45804       3375         
      1990  -55.738363      0.45758365    -55.280779      0.029520714    393.33569      139.74423      3375         
      2000  -55.528101      0.25545974    -55.272641      0.029520714    219.5914      -319.6649       3375         
      2010  -55.655909      0.37784753    -55.278062      0.029520714    324.79508     -380.91338      3375         
      2020  -55.821536      0.53045445    -55.291082      0.029520714    455.97491     -304.47704      3375         
      2030  -55.597415      0.34078263    -55.256633      0.029520714    292.93435     -127.29166      3375         
      2040  -55.556801      0.30220912    -55.254592      0.029520714    259.77683      1250.3684      3375         
      2050  -55.777949      0.51919631    -55.258753      0.029520714    446.2975       564.68052      3375         
      2060  -55.589685      0.34000763    -55.249677      0.029520714    292.26817     -888.00887      3375         
      2070  -55.584071      0.32456394    -55.259507      0.029520714    278.99288     -471.43714      3375         
      2080  -55.731335      0.46351756    -55.267818      0.029520714    398.43643     -158.60428      3375         
      2090  -55.642626      0.39324818    -55.249378      0.029520714    338.03336     -296.01979      3375         
      2100  -55.56774       0.31915483    -55.248585      0.029520714    274.34325      99.660109      3375         
      2110  -55.64167       0.39607407    -55.245596      0.029520714    340.46248      528.28495      3375         
      2120  -55.622621      0.3689537     -55.253667      0.029520714    317.15001      908.81355      3375         
      2130  -55.69536       0.41984908    -55.275511      0.029520714    360.89932      665.94269      3375         
      2140  -55.689016      0.4004656     -55.28855       0.029520714    344.23741     -1470.9279      3375         
      2150  -55.524456      0.28334344    -55.241112      0.029520714    243.56002     -1815.1926      3375         
      2160  -55.633696      0.37124457    -55.262451      0.029520714    319.11922      596.04652      3375         
      2170  -55.689781      0.40716438    -55.282617      0.029520714    349.99564      1336.6962      3375         
      2180  -55.716079      0.41808498    -55.297994      0.029520714    359.38291      383.50636      3375         
      2190  -55.616771      0.29198526    -55.324785      0.029520714    250.98847     -125.87183      3375         
      2200  -55.617016      0.30605686    -55.310959      0.029520714    263.08432     -359.48871      3375         
      2210  -55.638889      0.31843508    -55.320454      0.029520714    273.72455     -84.986819      3375         
      2220  -55.629089      0.28342368    -55.345665      0.029520714    243.629       -43.333889      3375         
      2230  -55.697344      0.33222867    -55.365116      0.029520714    285.58143     -426.86605      3375         
      2240  -55.781353      0.39793089    -55.383422      0.029520714    342.05859      373.70854      3375         
      2250  -55.58597       0.17783769    -55.408132      0.029520714    152.86803      1114.388       3375         
      2260  -55.716353      0.3005925     -55.41576       0.029520714    258.3872      -435.11749      3375         
      2270  -55.79572       0.37521572    -55.420504      0.029520714    322.5328      -1153.9378      3375         
      2280  -55.650124      0.20910953    -55.441014      0.029520714    179.74908     -31.927433      3375         
      2290  -55.738388      0.27393885    -55.464449      0.029520714    235.4759       648.5989       3375         
      2300  -55.861063      0.36956012    -55.491503      0.029520714    317.67128      344.73577      3375         
      2310  -55.676945      0.18329799    -55.493647      0.029520714    157.56167     -289.00028      3375         
      2320  -55.668757      0.18437624    -55.484381      0.029520714    158.48851     -138.65523      3375         
      2330  -55.845417      0.34019379    -55.505223      0.029520714    292.42818      535.44432      3375         
      2340  -55.787945      0.26552388    -55.522421      0.029520714    228.24246      207.52705      3375         
      2350  -55.701211      0.16223989    -55.538971      0.029520714    139.46027     -1195.9272      3375         
      2360  -55.807472      0.28771278    -55.51976       0.029520714    247.31588     -798.90806      3375         
      2370  -55.762993      0.24919084    -55.513802      0.029520714    214.2027       1092.6147      3375         
      2380  -55.705517      0.1796187     -55.525898      0.029520714    154.39897      985.59064      3375         
      2390  -55.842969      0.31478682    -55.528182      0.029520714    270.58853     -64.861278      3375         
      2400  -55.861064      0.33319688    -55.527867      0.029520714    286.41369     -570.5454       3375         
      2410  -55.636899      0.11047972    -55.526419      0.029520714    94.967594     -579.42376      3375         
      2420  -55.731978      0.21394295    -55.518035      0.029520714    183.90386     -37.869305      3375         
      2430  -55.89096       0.38201828    -55.508942      0.029520714    328.38023     -20.844551      3375         
      2440  -55.684259      0.18927371    -55.494986      0.029520714    162.69835      86.978485      3375         
      2450  -55.699748      0.21494265    -55.484805      0.029520714    184.76319      1254.1657      3375         
      2460  -55.83873       0.35596838    -55.482762      0.029520714    305.98792      615.95953      3375         
      2470  -55.680034      0.20737941    -55.472655      0.029520714    178.26188     -1461.3003      3375         
      2480  -55.623304      0.21559861    -55.407706      0.029520714    185.32705     -1285.1563      3375         
      2490  -55.82203       0.43526941    -55.386761      0.029520714    374.15452      344.21316      3375         
      2500  -55.65556       0.29034323    -55.365217      0.029520714    249.577        1424.9394      3375         
      2510  -55.604602      0.26232933    -55.342273      0.029520714    225.49644      791.73296      3375         
      2520  -55.706148      0.37786739    -55.328281      0.029520714    324.81215     -1226.5561      3375         
      2530  -55.667001      0.40303009    -55.263971      0.029520714    346.44183     -767.70288      3375         
      2540  -55.516821      0.27132738    -55.245494      0.029520714    233.23111      1036.0586      3375         
      2550  -55.675081      0.42772974    -55.247352      0.029520714    367.67348      233.57754      3375         
      2560  -55.657331      0.41733702    -55.239994      0.029520714    358.73996     -863.84814      3375         
      2570  -55.544852      0.33123464    -55.213617      0.029520714    284.72697     -185.58325      3375         
      2580  -55.465093      0.24943664    -55.215657      0.029520714    214.41398      553.44746      3375         
      2590  -55.749197      0.54625738    -55.20294       0.029520714    469.559        337.2619       3375         
      2600  -55.604671      0.41191881    -55.192753      0.029520714    354.08251     -174.88038      3375         
      2610  -55.568392      0.36628177    -55.20211       0.029520714    314.85323     -566.26381      3375         
      2620  -55.574103      0.37126924    -55.202834      0.029520714    319.14042      246.91964      3375         
      2630  -55.594562      0.38677229    -55.20779       0.029520714    332.46674      213.64828      3375         
      2640  -55.637078      0.42628606    -55.210792      0.029520714    366.4325      -712.70295      3375         
      2650  -55.664357      0.4757081     -55.188649      0.029520714    408.91533      416.80228      3375         
      2660  -55.615413      0.40076174    -55.214652      0.029520714    344.49197      1552.8444      3375         
      2670  -55.549002      0.3105836     -55.238419      0.029520714    266.97547     -66.645258      3375         
      2680  -55.595413      0.34872852    -55.246685      0.029520714    299.76458     -1894.4461      3375         
      2690  -55.590056      0.37419788    -55.215858      0.029520714    321.65786     -1467.5077      3375         
      2700  -55.671466      0.43696092    -55.234505      0.029520714    375.60853      879.62301      3375         
      2710  -55.587425      0.33601766    -55.251407      0.029520714    288.83841      2640.3395      3375         
      2720  -55.703728      0.43484155    -55.268886      0.029520714    373.78674      458.75258      3375         
      2730  -55.637643      0.34330713    -55.294336      0.029520714    295.10439     -1768.2555      3375         
      2740  -55.633067      0.36229222    -55.270774      0.029520714    311.42385     -716.91312      3375         
      2750  -55.650651      0.36130717    -55.289344      0.029520714    310.5771       268.36322      3375         
      2760  -55.757646      0.4385668     -55.319079      0.029520714    376.98893     -28.873274      3375         
      2770  -55.664753      0.34345704    -55.321296      0.029520714    295.23325      304.81709      3375         
      2780  -55.687414      0.35108473    -55.336329      0.029520714    301.78996      396.42839      3375         
      2790  -55.634902      0.27205043    -55.362851      0.029520714    233.85263      317.57013      3375         
      2800  -55.730624      0.36813895    -55.362485      0.029520714    316.44965     -383.93604      3375         
      2810  -55.665046      0.30445577    -55.36059       0.029520714    261.70804     -1157.422       3375         
      2820  -55.724839      0.34264337    -55.382195      0.029520714    294.53383      263.8149       3375         
      2830  -55.734303      0.33329339    -55.40101       0.029520714    286.49665      1423.5791      3375         
      2840  -55.653452      0.23019142    -55.42326       0.029520714    197.87093     -303.19236      3375         
      2850  -55.699934      0.27132178    -55.428613      0.029520714    233.2263      -1250.4235      3375         
      2860  -55.844253      0.44001242    -55.404241      0.029520714    378.23158      112.44128      3375         
      2870  -55.66865       0.23260803    -55.436042      0.029520714    199.94823      969.0693       3375         
      2880  -55.687298      0.22839868    -55.4589        0.029520714    196.3299       572.60919      3375         
      2890  -55.800576      0.33335078    -55.467225      0.029520714    286.54599     -1078.9027      3375         
      2900  -55.715874      0.26384682    -55.452027      0.029520714    226.80087     -1213.6832      3375         
      2910  -55.746347      0.28159871    -55.464748      0.029520714    242.06027      1094.9399      3375         
      2920  -55.7934        0.31799746    -55.475402      0.029520714    273.34838      1281.2648      3375         
      2930  -55.676012      0.18824753    -55.487765      0.029520714    161.81625     -468.41685      3375         
      2940  -55.758105      0.25571617    -55.502389      0.029520714    219.81182     -684.43409      3375         
      2950  -55.763776      0.27240747    -55.491369      0.029520714    234.15954     -328.64755      3375         
      2960  -55.730817      0.22901677    -55.5018        0.029520714    196.86121     -74.924445      3375         
      2970  -55.778         0.26691027    -55.511089      0.029520714    229.43419      435.2431       3375         
      2980  -55.78792       0.29087042    -55.497049      0.029520714    250.03017      513.21539      3375         
      2990  -55.768439      0.25298003    -55.515459      0.029520714    217.45985      519.50109      3375         
      3000  -55.71109       0.17337675    -55.537713      0.029520714    149.03344      42.282266      3375         
      3010  -55.796035      0.28463144    -55.511403      0.029520714    244.66718     -1629.5482      3375         
      3020  -55.775705      0.26670814    -55.508997      0.029520714    229.26044     -1151.3972      3375         
      3030  -55.737053      0.22378895    -55.513264      0.029520714    192.36741      1370.7755      3375         
      3040  -55.76131       0.24639209    -55.514918      0.029520714    211.79691      1689.5532      3375         
      3050  -55.754461      0.22321086    -55.53125       0.029520714    191.87048     -243.22667      3375         
      3060  -55.695516      0.17957547    -55.51594       0.029520714    154.36181     -1246.0769      3375         
      3070  -55.861027      0.39567055    -55.465357      0.029520714    340.11562     -517.93143      3375         
      3080  -55.724629      0.2415166     -55.483112      0.029520714    207.60597      672.87674      3375         
      3090  -55.632808      0.15327822    -55.47953       0.029520714    131.75688      647.05629      3375         
      3100  -55.752257      0.30506956    -55.447187      0.029520714    262.23565     -756.46578      3375         
      3110  -55.761949      0.31949469    -55.442454      0.029520714    274.63539     -529.54834      3375         
      3120  -55.669841      0.26158283    -55.408258      0.029520714    224.85476      716.04258      3375         
      3130  -55.728418      0.35184797    -55.37657       0.029520714    302.44604      250.33045      3375         
      3140  -55.626838      0.25240291    -55.374435      0.029520714    216.96376     -123.16856      3375         
      3150  -55.667153      0.31919367    -55.34796       0.029520714    274.37663      269.75194      3375         
      3160  -55.723443      0.40653028    -55.316912      0.029520714    349.45056     -274.14928      3375         
      3170  -55.66208       0.34351163    -55.318569      0.029520714    295.28018     -464.53811      3375         
      3180  -55.583273      0.30736917    -55.275904      0.029520714    264.21237      2.0624595      3375         
      3190  -55.618893      0.36484575    -55.254047      0.029520714    313.61884      237.64602      3375         
      3200  -55.651631      0.39415225    -55.257479      0.029520714    338.8105       823.88856      3375         
      3210  -55.581878      0.33574917    -55.246129      0.029520714    288.60763      185.37509      3375         
      3220  -55.592815      0.3740494     -55.218766      0.029520714    321.53023     -1707.7529      3375         
      3230  -55.712982      0.51176237    -55.20122       0.029520714    439.90733     -680.5677       3375         
      3240  -55.591007      0.41194724    -55.17906       0.029520714    354.10695      1697.7855      3375         
      3250  -55.545462      0.35742603    -55.188036      0.029520714    307.2409       1337.1509      3375         
      3260  -55.683289      0.47811558    -55.205173      0.029520714    410.98479     -166.86402      3375         
      3270  -55.483957      0.3050551     -55.178902      0.029520714    262.22322     -1394.6538      3375         
      3280  -55.63898       0.47775877    -55.161221      0.029520714    410.67808     -1577.8976      3375         
      3290  -55.675579      0.49872376    -55.176855      0.029520714    428.69944      544.68257      3375         
      3300  -55.40823       0.23161535    -55.176614      0.029520714    199.09492      1463.009       3375         
      3310  -55.585666      0.40231819    -55.183348      0.029520714    345.82989      456.61472      3375         
      3320  -55.764889      0.56903285    -55.195856      0.029520714    489.13663      0.13567602     3375         
      3330  -55.552287      0.37239229    -55.179895      0.029520714    320.10579     -641.25673      3375         
      3340  -55.590764      0.40500752    -55.185757      0.029520714    348.14161     -1190.9014      3375         
      3350  -55.595395      0.38820547    -55.207189      0.029520714    333.69869      155.76558      3375         
      3360  -55.600905      0.38246965    -55.218435      0.029520714    328.76822      805.03638      3375         
      3370  -55.713413      0.47519371    -55.23822       0.029520714    408.47317      218.06325      3375         
      3380  -55.677372      0.41569809    -55.261674      0.029520714    357.33115     -98.632581      3375         
      3390  -55.579078      0.32551577    -55.253562      0.029520714    279.81106     -304.32777      3375         
      3400  -55.613254      0.33029881    -55.282955      0.029520714    283.92253      346.48799      3375         
      3410  -55.692834      0.37935867    -55.313476      0.029520714    326.09405      755.66537      3375         
      3420  -55.63005       0.29744118    -55.332609      0.029520714    255.67834     -603.1041       3375         
      3430  -55.640049      0.30544277    -55.334607      0.029520714    262.55646     -1137.7927      3375         
      3440  -55.769694      0.4072586     -55.362435      0.029520714    350.07663     -53.578167      3375         
      3450  -55.638273      0.26166402    -55.376609      0.029520714    224.92455      654.74747      3375         
      3460  -55.643543      0.24301722    -55.400526      0.029520714    208.89589      931.58234      3375         
      3470  -55.826652      0.38772498    -55.438927      0.029520714    333.28567      287.7789       3375         
      3480  -55.706546      0.27594301    -55.430603      0.029520714    237.19867     -849.26317      3375         
      3490  -55.712066      0.28046185    -55.431604      0.029520714    241.08303     -538.29982      3375         
      3500  -55.830796      0.36613434    -55.464661      0.029520714    314.72651     -74.238708      3375         
      3510  -55.619102      0.15830674    -55.460796      0.029520714    136.07936      274.21608      3375         
      3520  -55.675422      0.19961636    -55.475806      0.029520714    171.58882      906.27484      3375         
      3530  -55.903659      0.39805697    -55.505602      0.029520714    342.16697      26.994916      3375         
      3540  -55.711135      0.23033695    -55.480798      0.029520714    197.99602     -1001.7497      3375         
      3550  -55.630595      0.15108166    -55.479514      0.029520714    129.86873     -565.16206      3375         
      3560  -55.825984      0.33069239    -55.495291      0.029520714    284.26085      157.14157      3375         
      3570  -55.762423      0.27196292    -55.49046       0.029520714    233.77741      1005.8044      3375         
      3580  -55.716496      0.2160601     -55.500436      0.029520714    185.72374      756.62826      3375         
      3590  -55.805332      0.29469441    -55.510638      0.029520714    253.31725     -755.71087      3375         
      3600  -55.729963      0.26992227    -55.460041      0.029520714    232.02329     -659.7509       3375         
      3610  -55.665832      0.19189024    -55.473941      0.029520714    164.9475      -144.30133      3375         
      3620  -55.792771      0.31099777    -55.481773      0.029520714    267.3315      -104.85761      3375         
      3630  -55.794148      0.32472673    -55.469422      0.029520714    279.13281      394.85884      3375         
      3640  -55.649322      0.18464296    -55.464679      0.029520714    158.71779      350.40496      3375         
      3650  -55.761737      0.31022993    -55.451507      0.029520714    266.67146      28.88668       3375         
      3660  -55.777476      0.34509709    -55.432379      0.029520714    296.64303      313.45818      3375         
      3670  -55.571604      0.13675776    -55.434846      0.029520714    117.55601     -278.04985      3375         
      3680  -55.736581      0.30033695    -55.436244      0.029520714    258.16753     -355.61023      3375         
      3690  -55.834172      0.40988612    -55.424285      0.029520714    352.33522      256.0618       3375         
      3700  -55.65398       0.23731329    -55.416667      0.029520714    203.99283     -407.52892      3375         
      3710  -55.705947      0.30584644    -55.400101      0.029520714    262.90344     -406.57395      3375         
      3720  -55.727444      0.3419519     -55.385493      0.029520714    293.93945      880.35834      3375         
      3730  -55.639351      0.24597494    -55.393376      0.029520714    211.43833      802.88204      3375         
      3740  -55.82688       0.41604245    -55.410838      0.029520714    357.62716     -122.12879      3375         
      3750  -55.742796      0.35332601    -55.38947       0.029520714    303.71655     -1100.005       3375         
      3760  -55.544412      0.18678886    -55.357623      0.029520714    160.56239     -1057.6654      3375         
      3770  -55.69984       0.32961274    -55.370227      0.029520714    283.33279      836.25609      3375         
      3780  -55.789956      0.41715095    -55.372805      0.029520714    358.58002      1119.7704      3375         
      3790  -55.635017      0.26081244    -55.374204      0.029520714    224.19254     -275.42794      3375         
      3800  -55.693185      0.31134745    -55.381838      0.029520714    267.63208     -335.81544      3375         
      3810  -55.711367      0.36616195    -55.345205      0.029520714    314.75023      26.600157      3375         
      3820  -55.660362      0.31473059    -55.345631      0.029520714    270.5402      -258.05827      3375         
      3830  -55.715763      0.36236971    -55.353393      0.029520714    311.49045     -167.00291      3375         
      3840  -55.734695      0.4042503     -55.330444      0.029520714    347.49072     -40.191417      3375         
      3850  -55.574449      0.23951035    -55.334938      0.029520714    205.88141      560.89462      3375         
      3860  -55.710473      0.35596883    -55.354504      0.029520714    305.9883       568.5915       3375         
      3870  -55.758878      0.4495367     -55.309341      0.029520714    386.41859     -986.77522      3375         
      3880  -55.581725      0.27666471    -55.305061      0.029520714    237.81904     -859.72225      3375         
      3890  -55.648634      0.3344468     -55.314187      0.029520714    287.48812      893.72291      3375         
      3900  -55.779671      0.47548554    -55.304186      0.029520714    408.72403      818.97028      3375         
      3910  -55.593677      0.28577835    -55.307898      0.029520714    245.65306     -245.50581      3375         
      3920  -55.635336      0.32610226    -55.309234      0.029520714    280.31521     -437.3946       3375         
      3930  -55.720772      0.46891453    -55.251857      0.029520714    403.07563      266.97919      3375         
      3940  -55.563673      0.28811831    -55.275555      0.029520714    247.66447      276.72         3375         
      3950  -55.686864      0.39610355    -55.29076       0.029520714    340.48782     -458.92936      3375         
      3960  -55.771967      0.52483796    -55.247129      0.029520714    451.14701     -1134.573       3375         
      3970  -55.547611      0.29400065    -55.25361       0.029520714    252.72089      208.57835      3375         
      3980  -55.548827      0.29047909    -55.258348      0.029520714    249.69378      1498.2249      3375         
      3990  -55.742674      0.51660608    -55.226068      0.029520714    444.07095      479.84059      3375         
      4000  -55.544144      0.30188912    -55.242255      0.029520714    259.50176     -842.14515      3375         
      4010  -55.582957      0.34217925    -55.240778      0.029520714    294.13488     -365.56394      3375         
      4020  -55.673043      0.46342523    -55.209617      0.029520714    398.35706      44.134723      3375         
      4030  -55.612654      0.38037252    -55.232282      0.029520714    326.96554     -489.56096      3375         
      4040  -55.53027       0.31660249    -55.213667      0.029520714    272.14927     -193.01607      3375         
      4050  -55.693837      0.49967212    -55.194165      0.029520714    429.51464      676.39374      3375         
      4060  -55.573349      0.36237236    -55.210977      0.029520714    311.49273      774.58374      3375         
      4070  -55.620996      0.39626901    -55.224727      0.029520714    340.63005      175.5462       3375         
      4080  -55.655258      0.46698993    -55.188268      0.029520714    401.42126     -1250.9161      3375         
      4090  -55.574703      0.37423737    -55.200465      0.029520714    321.69181     -901.28922      3375         
      4100  -55.570064      0.36971212    -55.200352      0.029520714    317.80194      1401.2668      3375         
      4110  -55.680408      0.4686011     -55.211807      0.029520714    402.8062       591.38416      3375         
      4120  -55.581647      0.34177294    -55.239874      0.029520714    293.78561     -1087.5987      3375         
      4130  -55.557101      0.33839737    -55.218703      0.029520714    290.88399      84.49962       3375         
      4140  -55.6795        0.45429864    -55.225201      0.029520714    390.51192      741.34843      3375         
      4150  -55.665454      0.40291965    -55.262534      0.029520714    346.34689     -27.728155      3375         
      4160  -55.498412      0.2347682     -55.263644      0.029520714    201.80509     -390.62567      3375         
      4170  -55.68975       0.42248733    -55.267262      0.029520714    363.16714     -912.69043      3375         
      4180  -55.734088      0.43411214    -55.299976      0.029520714    373.15974      522.20631      3375         
      4190  -55.614882      0.28998812    -55.324894      0.029520714    249.27174      1526.9427      3375         
      4200  -55.680802      0.33794419    -55.342858      0.029520714    290.49445     -738.00873      3375         
      4210  -55.715436      0.35680195    -55.358634      0.029520714    306.70445     -1001.0301      3375         
      4220  -55.656841      0.28179622    -55.375045      0.029520714    242.23005      604.30671      3375         
      4230  -55.748497      0.34284172    -55.405656      0.029520714    294.70433     -60.148197      3375         
      4240  -55.754439      0.31249467    -55.441945      0.029520714    268.61822     -276.34679      3375         
      4250  -55.555218      0.13499412    -55.420224      0.029520714    116.03999      358.67584      3375         
      4260  -55.730843      0.30451647    -55.426326      0.029520714    261.76022      368.94984      3375         
      4270  -55.852563      0.39378207    -55.458781      0.029520714    338.49229      355.44247      3375         
      4280  -55.690023      0.21663552    -55.473387      0.029520714    186.21837     -789.72796      3375         
      4290  -55.680438      0.21444668    -55.465992      0.029520714    184.33686     -1422.001       3375         
      4300  -55.796395      0.31640702    -55.479988      0.029520714    271.98125      849.21058      3375         
      4310  -55.746725      0.25915491    -55.48757       0.029520714    222.76774      1300.109       3375         
      4320  -55.77224       0.28486667    -55.487373      0.029520714    244.86938     -375.59637      3375         
      4330  -55.782746      0.28524809    -55.497498      0.029520714    245.19725     -308.30831      3375         
      4340  -55.664939      0.17474406    -55.490194      0.029520714    150.20876      65.676472      3375         
      4350  -55.760034      0.26870181    -55.491332      0.029520714    230.97419      4.7096439      3375         
      4360  -55.87791       0.37022445    -55.507685      0.029520714    318.24233     -221.9526       3375         
      4370  -55.666346      0.18733287    -55.479013      0.029520714    161.03002     -684.29358      3375         
      4380  -55.668741      0.19282402    -55.475917      0.029520714    165.75018      480.09993      3375         
      4390  -55.805477      0.31668838    -55.488788      0.029520714    272.2231       1192.5646      3375         
      4400  -55.772887      0.29005167    -55.482835      0.029520714    249.32637     -478.57558      3375         
      4410  -55.668234      0.21945773    -55.448776      0.029520714    188.64432     -943.0936       3375         
      4420  -55.809703      0.36086225    -55.44884       0.029520714    310.19465      399.39723      3375         
      4430  -55.701185      0.27521987    -55.425965      0.029520714    236.57706      706.93745      3375         
      4440  -55.69554       0.28506197    -55.410478      0.029520714    245.03727     -85.073988      3375         
      4450  -55.79529       0.38664099    -55.408649      0.029520714    332.35387     -928.61358      3375         
      4460  -55.680159      0.33560807    -55.344551      0.029520714    288.48634     -89.845838      3375         
      4470  -55.53443       0.20196587    -55.332464      0.029520714    173.60844      1291.9037      3375         
      4480  -55.798901      0.46545618    -55.333444      0.029520714    400.10286     -148.87042      3375         
      4490  -55.625896      0.35351262    -55.272384      0.029520714    303.87696     -1391.4607      3375         
      4500  -55.546061      0.30298605    -55.243075      0.029520714    260.44468     -107.92477      3375         
      4510  -55.659279      0.41480617    -55.244473      0.029520714    356.56446      1220.2984      3375         
      4520  -55.684743      0.48165811    -55.203085      0.029520714    414.02992      499.90115      3375         
      4530  -55.497954      0.31415608    -55.183798      0.029520714    270.04636     -779.1412       3375         
      4540  -55.702428      0.52567032    -55.176758      0.029520714    451.86251     -644.58141      3375         
      4550  -55.549817      0.39176193    -55.158055      0.029520714    336.7558       766.49375      3375         
      4560  -55.554904      0.38496753    -55.169936      0.029520714    330.91538      110.33811      3375         
      4570  -55.710388      0.52514292    -55.185245      0.029520714    451.40916     -1289.5576      3375         
      4580  -55.606787      0.49082675    -55.11596       0.029520714    421.91122      10.659911      3375         
      4590  -55.426217      0.26934027    -55.156877      0.029520714    231.523        1732.4084      3375         
      4600  -55.698537      0.52478814    -55.173749      0.029520714    451.10419      760.58724      3375         
      4610  -55.621665      0.44869514    -55.172969      0.029520714    385.69519     -1382.8046      3375         
      4620  -55.482292      0.31315626    -55.169135      0.029520714    269.18692     -1732.4777      3375         
      4630  -55.670746      0.49687031    -55.173875      0.029520714    427.10622      722.80003      3375         
      4640  -55.589156      0.40456491    -55.184591      0.029520714    347.76115      1954.1102      3375         
      4650  -55.560057      0.34845634    -55.211601      0.029520714    299.53062     -193.68422      3375         
      4660  -55.66551       0.44747495    -55.218035      0.029520714    384.64632     -1351.3826      3375         
      4670  -55.709363      0.51224374    -55.197119      0.029520714    440.32111      341.78338      3375         
      4680  -55.467865      0.23553717    -55.232328      0.029520714    202.4661       852.63323      3375         
      4690  -55.711328      0.45271451    -55.258613      0.029520714    389.15021     -655.02919      3375         
      4700  -55.651326      0.41154881    -55.239777      0.029520714    353.76446     -916.82327      3375         
      4710  -55.628099      0.36241722    -55.265681      0.029520714    311.53129      448.87317      3375         
      4720  -55.606158      0.31385657    -55.292302      0.029520714    269.7889       1270.886       3375         
      4730  -55.772659      0.4623345     -55.310324      0.029520714    397.41948     -398.1809       3375         
      4740  -55.515227      0.21259912    -55.302628      0.029520714    182.7487      -1307.6548      3375         
      4750  -55.726361      0.41578904    -55.310572      0.029520714    357.40934      385.7791       3375         
      4760  -55.718587      0.38806692    -55.33052       0.029520714    333.57959      1452.5163      3375         
      4770  -55.696887      0.33932789    -55.357559      0.029520714    291.68386     -387.78975      3375         
      4780  -55.61757       0.24863441    -55.368935      0.029520714    213.72439     -1626.5038      3375         
      4790  -55.764419      0.4264654     -55.337954      0.029520714    366.58666     -50.848992      3375         
      4800  -55.625646      0.25643652    -55.369209      0.029520714    220.43102      1619.1132      3375         
      4810  -55.750989      0.35584763    -55.395142      0.029520714    305.88412      493.04979      3375         
      4820  -55.731222      0.33609115    -55.395131      0.029520714    288.90158     -1466.8338      3375         
      4830  -55.654293      0.26287404    -55.391419      0.029520714    225.96468     -796.98854      3375         
      4840  -55.658649      0.24835659    -55.410292      0.029520714    213.48558      1265.0238      3375         
      4850  -55.781373      0.36677027    -55.414603      0.029520714    315.27314      906.95589      3375         
      4860  -55.682846      0.26226417    -55.420582      0.029520714    225.44044     -664.18735      3375         
      4870  -55.753242      0.32868694    -55.424555      0.029520714    282.53698     -579.27283      3375         
      4880  -55.713114      0.29521682    -55.417897      0.029520714    253.7663       473.17817      3375         
      4890  -55.683027      0.24548324    -55.437544      0.029520714    211.01567     -2.7860775      3375         
      4900  -55.759657      0.29981176    -55.459845      0.029520714    257.71608     -1032.2208      3375         
      4910  -55.771801      0.37123153    -55.40057       0.029520714    319.10801      16.382602      3375         
      4920  -55.676624      0.24434078    -55.432284      0.029520714    210.03362      1542.5907      3375         
      4930  -55.701567      0.25038148    -55.451186      0.029520714    215.22616      650.98595      3375         
      4940  -55.745404      0.31736058    -55.428044      0.029520714    272.80092     -1296.1123      3375         
      4950  -55.711409      0.27834604    -55.433063      0.029520714    239.26429     -1403.4766      3375         
      4960  -55.661901      0.24000802    -55.421893      0.029520714    206.3092       822.25184      3375         
      4970  -55.735141      0.3176083     -55.417532      0.029520714    273.01386      1656.9416      3375         
      4980  -55.7559        0.32485388    -55.431046      0.029520714    279.24211     -660.69875      3375         
      4990  -55.622229      0.22330517    -55.398924      0.029520714    191.95155     -1426.985       3375         
      5000  -55.736519      0.37066706    -55.365852      0.029520714    318.6228       489.68991      3375         
      5010  -55.694395      0.31869136    -55.375703      0.029520714    273.94485      996.14664      3375         
      5020  -55.663298      0.30689227    -55.356405      0.029520714    263.80243     -45.31228       3375         
      5030  -55.684374      0.3894469     -55.294927      0.029520714    334.76582     -962.16894      3375         
      5040  -55.698445      0.41197977    -55.286465      0.029520714    354.13491     -357.0776       3375         
      5050  -55.456433      0.19747089    -55.258962      0.029520714    169.74459      1478.8978      3375         
      5060  -55.722656      0.48091469    -55.241742      0.029520714    413.39089     -61.163163      3375         
      5070  -55.647711      0.41438994    -55.233321      0.029520714    356.20668     -1586.904       3375         
      5080  -55.583662      0.42782528    -55.155837      0.029520714    367.7556       837.98413      3375         
      5090  -55.501725      0.34099974    -55.160725      0.029520714    293.12097      1358.6215      3375         
      5100  -55.670756      0.50312057    -55.167636      0.029520714    432.4789      -881.58893      3375         
      5110  -55.417933      0.29284007    -55.125093      0.029520714    251.72326     -1244.9017      3375         
      5120  -55.748258      0.64476385    -55.103494      0.029520714    554.23447     -431.8386       3375         
      5130  -55.553092      0.4460005     -55.107091      0.029520714    383.37889      1863.8971      3375         
      5140  -55.5024        0.39492146    -55.107479      0.029520714    339.47171      1721.7317      3375         
      5150  -55.489801      0.3835466     -55.106254      0.029520714    329.69396     -2251.7943      3375         
      5160  -55.702118      0.61617947    -55.085939      0.029520714    529.66354     -1991.6376      3375         
      5170  -55.524775      0.43887797    -55.085897      0.029520714    377.25642      1847.5988      3375         
      5180  -55.503857      0.39180997    -55.112047      0.029520714    336.79709      1346.3756      3375         
      5190  -55.586038      0.44147144    -55.144567      0.029520714    379.48574     -643.96686      3375         
      5200  -55.544561      0.4413648     -55.103197      0.029520714    379.39408     -779.69746      3375         
      5210  -55.541714      0.41730291    -55.124411      0.029520714    358.71064     -121.30356      3375         
      5220  -55.613545      0.45639421    -55.157151      0.029520714    392.31326      677.91983      3375         
      5230  -55.730402      0.53898765    -55.191414      0.029520714    463.30999     -539.08252      3375         
      5240  -55.465676      0.27348509    -55.192191      0.029520714    235.08586     -1138.5214      3375         
      5250  -55.675048      0.45894193    -55.216106      0.029520714    394.50326      1478.4073      3375         
      5260  -55.664724      0.41755486    -55.247169      0.029520714    358.92722      1542.7062      3375         
      5270  -55.679328      0.3982535     -55.281074      0.029520714    342.33591     -1334.6838      3375         
      5280  -55.622244      0.326369      -55.295875      0.029520714    280.54449     -1545.5083      3375         
      5290  -55.769803      0.46735537    -55.302448      0.029520714    401.73539      459.97101      3375         
      5300  -55.526932      0.18901699    -55.337915      0.029520714    162.47768      1574.7195      3375         
      5310  -55.709986      0.33473899    -55.375247      0.029520714    287.73928      61.03973       3375         
      5320  -55.668719      0.31310986    -55.355609      0.029520714    269.14703     -1622.0928      3375         
      5330  -55.782755      0.41502518    -55.367729      0.029520714    356.75273     -295.10585      3375         
      5340  -55.671578      0.27262986    -55.398949      0.029520714    234.35071      1682.5392      3375         
      5350  -55.698621      0.28344184    -55.415179      0.029520714    243.64461      88.402829      3375         
      5360  -55.619063      0.21361544    -55.405448      0.029520714    183.62233     -1208.5011      3375         
      5370  -55.816179      0.40737157    -55.408808      0.029520714    350.17374      145.91536      3375         
      5380  -55.733929      0.32214178    -55.411787      0.029520714    276.91081      1024.3481      3375         
      5390  -55.714455      0.28672148    -55.427734      0.029520714    246.46377      46.475288      3375         
      5400  -55.710587      0.25896516    -55.451622      0.029520714    222.60463     -1149.7377      3375         
      5410  -55.706917      0.30679722    -55.40012       0.029520714    263.72073     -519.05268      3375         
      5420  -55.686133      0.26561137    -55.420521      0.029520714    228.31766      1315.5093      3375         
      5430  -55.796614      0.35012299    -55.446491      0.029520714    300.96326      326.41509      3375         
      5440  -55.668759      0.26126919    -55.40749       0.029520714    224.58515     -1398.03        3375         
      5450  -55.689459      0.27703689    -55.412422      0.029520714    238.13896     -161.93958      3375         
      5460  -55.686364      0.26573729    -55.420627      0.029520714    228.42591      1438.6         3375         
      5470  -55.755262      0.34585199    -55.40941       0.029520714    297.29194      662.14121      3375         
      5480  -55.729114      0.31342592    -55.415688      0.029520714    269.41872     -1126.1114      3375         
      5490  -55.708294      0.31520807    -55.393086      0.029520714    270.95064     -1416.3582      3375         
      5500  -55.684104      0.29911336    -55.384991      0.029520714    257.11574      594.82361      3375         
      5510  -55.709894      0.31426342    -55.395631      0.029520714    270.13863      1413.8211      3375         
      5520  -55.660719      0.25382937    -55.40689       0.029520714    218.18994     -264.9743       3375         
      5530  -55.706039      0.35400971    -55.352029      0.029520714    304.30425     -751.92333      3375         
      5540  -55.792926      0.43320816    -55.359718      0.029520714    372.38268      255.77704      3375         
      5550  -55.650044      0.29293667    -55.357107      0.029520714    251.8063       434.57994      3375         
      5560  -55.569235      0.21363648    -55.355599      0.029520714    183.64042     -619.1667       3375         
      5570  -55.635644      0.27866105    -55.356983      0.029520714    239.53508     -778.95942      3375         
      5580  -55.775632      0.45662316    -55.319008      0.029520714    392.51006      1109.3486      3375         
      5590  -55.708152      0.38346746    -55.324684      0.029520714    329.62593      1441.4912      3375         
      5600  -55.666034      0.33072366    -55.33531       0.029520714    284.28773     -921.59445      3375         
      5610  -55.597131      0.2980458     -55.299085      0.029520714    256.19807     -1762.32        3375         
      5620  -55.7007        0.40761246    -55.293087      0.029520714    350.3808       16.50398       3375         
      5630  -55.545525      0.24789234    -55.297633      0.029520714    213.08651      1706.4112      3375         
      5640  -55.792807      0.49735042    -55.295456      0.029520714    427.51892      623.26961      3375         
      5650  -55.659489      0.37662914    -55.28286       0.029520714    323.74776     -1423.4148      3375         
      5660  -55.575926      0.3105082     -55.265418      0.029520714    266.91066     -750.64406      3375         
      5670  -55.587351      0.3170573     -55.270294      0.029520714    272.54023      1126.233       3375         
      5680  -55.771913      0.48788825    -55.284025      0.029520714    419.38531      390.93536      3375         
      5690  -55.549315      0.27484068    -55.274474      0.029520714    236.25111     -717.65171      3375         
      5700  -55.736619      0.49532378    -55.241295      0.029520714    425.77683     -197.25699      3375         
      5710  -55.598255      0.3464419     -55.251813      0.029520714    297.79902      772.84126      3375         
      5720  -55.608732      0.34740562    -55.261327      0.029520714    298.62743      84.15258       3375         
      5730  -55.606775      0.34566532    -55.26111       0.029520714    297.13147     -1094.2099      3375         
      5740  -55.765696      0.51584033    -55.249856      0.029520714    443.41272     -129.35603      3375         
      5750  -55.62907       0.36977919    -55.259291      0.029520714    317.85959      1367.6375      3375         
      5760  -55.606561      0.33593365    -55.270627      0.029520714    288.7662      -143.59554      3375         
      5770  -55.521755      0.26263438    -55.25912       0.029520714    225.75866     -1367.822       3375         
      5780  -55.670964      0.40953168    -55.261433      0.029520714    352.03055     -53.321026      3375         
      5790  -55.699755      0.43224015    -55.267515      0.029520714    371.55059      1575.1565      3375         
      5800  -55.696131      0.41725952    -55.278872      0.029520714    358.67335      1219.6586      3375         
      5810  -55.660352      0.36526369    -55.295088      0.029520714    313.9781      -1334.7121      3375         
      5820  -55.493648      0.23587718    -55.257771      0.029520714    202.75836     -1935.3945      3375         
      5830  -55.660777      0.39687391    -55.263903      0.029520714    341.15002      505.35469      3375         
      5840  -55.738541      0.45443657    -55.284104      0.029520714    390.63048      1382.5185      3375         
      5850  -55.62889       0.32469143    -55.304199      0.029520714    279.10247     -111.12059      3375         
      5860  -55.670788      0.40145878    -55.26933       0.029520714    345.09114     -522.54957      3375         
      5870  -55.698661      0.42041297    -55.278248      0.029520714    361.38403      190.08314      3375         
      5880  -55.513164      0.23123       -55.281934      0.029520714    198.76368      360.07355      3375         
      5890  -55.649842      0.3608066     -55.289035      0.029520714    310.14681     -259.59056      3375         
      5900  -55.773762      0.47178078    -55.301981      0.029520714    405.53944     -694.94891      3375         
      5910  -55.649953      0.36228066    -55.287672      0.029520714    311.41391      460.17681      3375         
      5920  -55.594482      0.29821847    -55.296264      0.029520714    256.3465       983.94772      3375         
      5930  -55.705118      0.38990679    -55.315211      0.029520714    335.16113     -724.54908      3375         
      5940  -55.597457      0.31065374    -55.286803      0.029520714    267.03577     -1023.4155      3375         
      5950  -55.636609      0.33885098    -55.297758      0.029520714    291.27392      396.80606      3375         
      5960  -55.777502      0.4571513     -55.32035       0.029520714    392.96404      1011.6762      3375         
      5970  -55.717786      0.40213821    -55.315647      0.029520714    345.67518     -99.247109      3375         
      5980  -55.495368      0.18942307    -55.305945      0.029520714    162.82674     -997.11672      3375         
      5990  -55.67916       0.36998039    -55.309179      0.029520714    318.03254     -161.70993      3375         
      6000  -55.777641      0.4585384     -55.319102      0.029520714    394.15638      1483.0537      3375         
      6010  -55.720437      0.38088542    -55.339551      0.029520714    327.40642      380.96424      3375         
      6020  -55.567474      0.20902754    -55.358446      0.029520714    179.67861     -1584.5995      3375         
      6030  -55.693496      0.39357194    -55.299924      0.029520714    338.31167     -650.60766      3375         
      6040  -55.65249       0.32019139    -55.332299      0.029520714    275.23427      935.83451      3375         
      6050  -55.67515       0.32986551    -55.345285      0.029520714    283.55007      828.70319      3375         
      6060  -55.707783      0.35824475    -55.349538      0.029520714    307.94466     -307.49516      3375         
      6070  -55.769695      0.41187667    -55.357818      0.029520714    354.04629     -875.88687      3375         
      6080  -55.569121      0.21944619    -55.349674      0.029520714    188.6344       569.49582      3375         
      6090  -55.659143      0.30499373    -55.354149      0.029520714    262.17046      671.17333      3375         
      6100  -55.71233       0.34176185    -55.370568      0.029520714    293.77608     -1155.6594      3375         
      6110  -55.695099      0.33323035    -55.361869      0.029520714    286.44247     -528.10164      3375         
      6120  -55.73601       0.37209601    -55.363914      0.029520714    319.85111      1245.0029      3375         
      6130  -55.69691       0.30896271    -55.387947      0.029520714    265.58218      807.5283       3375         
      6140  -55.668121      0.28630764    -55.381813      0.029520714    246.10803     -798.3835       3375         
      6150  -55.629832      0.2743784     -55.355453      0.029520714    235.85374     -1113.5078      3375         
      6160  -55.750231      0.373195      -55.377036      0.029520714    320.79579      98.935448      3375         
      6170  -55.748079      0.36127893    -55.3868        0.029520714    310.55283      1289.6767      3375         
      6180  -55.719625      0.31783315    -55.401792      0.029520714    273.20714     -368.03604      3375         
      6190  -55.598641      0.2156064     -55.383035      0.029520714    185.33374     -1178.7616      3375         
      6200  -55.721905      0.35018089    -55.371724      0.029520714    301.01303      786.98581      3375         
      6210  -55.689813      0.30545219    -55.384361      0.029520714    262.56455      1208.95        3375         
      6220  -55.788609      0.38919845    -55.399411      0.029520714    334.55225     -274.65692      3375         
      6230  -55.684089      0.27959961    -55.404489      0.029520714    240.34186     -1067.6256      3375         
      6240  -55.660576      0.30060323    -55.359972      0.029520714    258.39642     -471.42638      3375         
      6250  -55.657352      0.28017685    -55.377175      0.029520714    240.83805      878.31468      3375         
      6260  -55.699838      0.31884253    -55.380995      0.029520714    274.07479      442.06066      3375         
      6270  -55.648977      0.28298553    -55.365992      0.029520714    243.25237     -895.19551      3375         
      6280  -55.794672      0.42692157    -55.36775       0.029520714    366.97878     -206.95647      3375         
      6290  -55.625213      0.2612007     -55.364012      0.029520714    224.52629      870.07025      3375         
      6300  -55.590982      0.24781295    -55.343169      0.029520714    213.01827     -111.70742      3375         
      6310  -55.735295      0.39924879    -55.336046      0.029520714    343.19145     -345.03709      3375         
      6320  -55.732612      0.41349645    -55.319115      0.029520714    355.43864      324.98814      3375         
      6330  -55.637806      0.32955865    -55.308247      0.029520714    283.2863       463.1398       3375         
      6340  -55.734269      0.40958684    -55.324682      0.029520714    352.07796     -48.185145      3375         
      6350  -55.570516      0.28055885    -55.289957      0.029520714    241.16641     -1020.5737      3375         
      6360  -55.485909      0.24863582    -55.237273      0.029520714    213.7256      -611.88376      3375         
[...]
     48420  -55.69102       0.37575909    -55.315261      0.029520714    322.99987      813.82694      3375         
     48430  -55.638625      0.31750749    -55.321117      0.029520714    272.9272       627.54222      3375         
     48440  -55.755061      0.43022419    -55.324836      0.029520714    369.81768     -1002.041       3375         
     48450  -55.713152      0.42163406    -55.291518      0.029520714    362.43367     -595.8907       3375         
     48460  -55.57779       0.27683783    -55.300952      0.029520714    237.96785      982.90492      3375         
     48470  -55.607595      0.30514356    -55.302452      0.029520714    262.29926      764.23218      3375         
     48480  -55.658676      0.36313475    -55.295541      0.029520714    312.14807     -571.79968      3375         
     48490  -55.548335      0.25313822    -55.295197      0.029520714    217.59583     -979.6722       3375         
     48500  -55.65744       0.37965103    -55.277789      0.029520714    326.34536     -45.862732      3375         
     48510  -55.829989      0.54688313    -55.283106      0.029520714    470.09689      554.07081      3375         
     48520  -55.630779      0.34173454    -55.289045      0.029520714    293.7526       87.560133      3375         
     48530  -55.553265      0.27559128    -55.277674      0.029520714    236.89633      134.87188      3375         
     48540  -55.630074      0.34543733    -55.284637      0.029520714    296.93549      427.00703      3375         
     48550  -55.59462       0.30601165    -55.288608      0.029520714    263.04546     -157.93941      3375         
     48560  -55.647683      0.36189843    -55.285784      0.029520714    311.08535     -526.33606      3375         
     48570  -55.808396      0.52368024    -55.284716      0.029520714    450.15185     -542.14284      3375         
     48580  -55.633392      0.35780085    -55.275591      0.029520714    307.56309      410.3965       3375         
     48590  -55.49159       0.20726626    -55.284323      0.029520714    178.16462      1071.452       3375         
     48600  -55.708927      0.40748982    -55.301437      0.029520714    350.27538     -290.02834      3375         
     48610  -55.630368      0.34898421    -55.281383      0.029520714    299.98437     -1136.2616      3375         
     48620  -55.664072      0.3881739     -55.275898      0.029520714    333.67155      58.05143       3375         
     48630  -55.746565      0.45520234    -55.291363      0.029520714    391.28873      661.23334      3375         
     48640  -55.687232      0.39739249    -55.28984       0.029520714    341.59578      214.87992      3375         
     48650  -55.557238      0.25804728    -55.29919       0.029520714    221.81563     -290.85187      3375         
     48660  -55.638137      0.33636845    -55.301769      0.029520714    289.13995     -484.42234      3375         
     48670  -55.676854      0.37321446    -55.303639      0.029520714    320.81253      592.28983      3375         
     48680  -55.691683      0.36891701    -55.322766      0.029520714    317.11847      599.29678      3375         
     48690  -55.666504      0.33630907    -55.330195      0.029520714    289.08891     -595.42208      3375         
     48700  -55.697919      0.37879806    -55.319121      0.029520714    325.61214     -467.0861       3375         
     48710  -55.703755      0.35558259    -55.348172      0.029520714    305.65629      162.17894      3375         
     48720  -55.704954      0.33967157    -55.365282      0.029520714    291.97929      46.788217      3375         
     48730  -55.656735      0.28312786    -55.373607      0.029520714    243.37472     -101.47813      3375         
     48740  -55.658668      0.26212162    -55.396546      0.029520714    225.3179      -11.026277      3375         
     48750  -55.680621      0.28805047    -55.392571      0.029520714    247.60615      673.12237      3375         
     48760  -55.719374      0.30036044    -55.419014      0.029520714    258.18772      344.91784      3375         
     48770  -55.850242      0.39099586    -55.459246      0.029520714    336.09729     -1060.1841      3375         
     48780  -55.765554      0.31950901    -55.446045      0.029520714    274.6477      -692.33591      3375         
     48790  -55.681703      0.20876792    -55.472935      0.029520714    179.45544      779.13483      3375         
     48800  -55.67669       0.18099012    -55.4957        0.029520714    155.57784      882.71671      3375         
     48810  -55.779062      0.28060006    -55.498462      0.029520714    241.20184      16.430871      3375         
     48820  -55.708258      0.19790575    -55.510353      0.029520714    170.11839     -930.26009      3375         
     48830  -55.806665      0.28608304    -55.520582      0.029520714    245.91497     -616.84533      3375         
     48840  -55.845027      0.32342457    -55.521602      0.029520714    278.01348      692.40126      3375         
     48850  -55.75784       0.21505975    -55.54278       0.029520714    184.86385      325.82568      3375         
     48860  -55.726393      0.18424213    -55.54215       0.029520714    158.37324     -350.51075      3375         
     48870  -55.781391      0.25533276    -55.526059      0.029520714    219.48224      442.45203      3375         
     48880  -55.790056      0.24382533    -55.54623       0.029520714    209.59054      196.66455      3375         
     48890  -55.79509       0.24741112    -55.547678      0.029520714    212.67286     -388.03856      3375         
     48900  -55.740886      0.20839387    -55.532492      0.029520714    179.1339      -413.7199       3375         
     48910  -55.731901      0.19841829    -55.533483      0.029520714    170.55897     -329.68258      3375         
     48920  -55.809555      0.28717058    -55.522384      0.029520714    246.84981      627.97349      3375         
     48930  -55.793571      0.2741708     -55.5194        0.029520714    235.67529      496.65517      3375         
     48940  -55.722296      0.2083319     -55.513964      0.029520714    179.08063     -727.22353      3375         
     48950  -55.779644      0.28408138    -55.495562      0.029520714    244.19436      136.61791      3375         
     48960  -55.757355      0.27118106    -55.486174      0.029520714    233.10533      603.48413      3375         
     48970  -55.673518      0.19747691    -55.476041      0.029520714    169.74976     -306.14372      3375         
     48980  -55.769431      0.32406621    -55.445364      0.029520714    278.56503     -233.4793       3375         
     48990  -55.785401      0.36484919    -55.420552      0.029520714    313.6218      -525.44122      3375         
     49000  -55.645342      0.2469307     -55.398411      0.029520714    212.25989      226.63301      3375         
     49010  -55.666152      0.28728183    -55.378871      0.029520714    246.94544      1313.9408      3375         
     49020  -55.725284      0.36671355    -55.358571      0.029520714    315.22439     -512.66656      3375         
     49030  -55.644047      0.32354122    -55.320506      0.029520714    278.11375     -1138.8591      3375         
     49040  -55.659005      0.35868031    -55.300325      0.029520714    308.31907      316.59594      3375         
     49050  -55.700928      0.41258738    -55.288341      0.029520714    354.65721     -41.540017      3375         
     49060  -55.557599      0.27767114    -55.279928      0.029520714    238.68416      396.30597      3375         
     49070  -55.674318      0.40137345    -55.272945      0.029520714    345.01779      553.01421      3375         
     49080  -55.739709      0.48771571    -55.251993      0.029520714    419.23699     -415.84359      3375         
     49090  -55.68168       0.43136023    -55.25032       0.029520714    370.79422     -57.833004      3375         
     49100  -55.539168      0.2848887     -55.254279      0.029520714    244.88832      18.465817      3375         
     49110  -55.556301      0.3153709     -55.24093       0.029520714    271.0906      -913.48139      3375         
     49120  -55.664438      0.42197649    -55.242461      0.029520714    362.72802      295.86704      3375         
     49130  -55.586394      0.34128354    -55.245111      0.029520714    293.36493      1322.5585      3375         
     49140  -55.690525      0.4605701     -55.229955      0.029520714    395.90281     -234.6616       3375         
     49150  -55.678834      0.44192955    -55.236904      0.029520714    379.87953     -765.39188      3375         
     49160  -55.629317      0.39231811    -55.236999      0.029520714    337.23389     -414.25865      3375         
     49170  -55.535306      0.3009908     -55.234315      0.029520714    258.72957      79.895535      3375         
     49180  -55.707852      0.45740053    -55.250451      0.029520714    393.17827      896.0425       3375         
     49190  -55.727928      0.47178448    -55.256144      0.029520714    405.54262      150.19352      3375         
     49200  -55.655337      0.41328303    -55.242054      0.029520714    355.25519     -692.97567      3375         
     49210  -55.590733      0.32838169    -55.262351      0.029520714    282.27459      215.56813      3375         
     49220  -55.565428      0.29340191    -55.272026      0.029520714    252.20622      165.36034      3375         
     49230  -55.577834      0.30429265    -55.273541      0.029520714    261.56782     -659.07198      3375         
     49240  -55.701291      0.41521708    -55.286074      0.029520714    356.91768     -63.641027      3375         
     49250  -55.781073      0.501304      -55.279769      0.029520714    430.91739      513.88177      3375         
     49260  -55.606916      0.31603921    -55.290877      0.029520714    271.66508      357.46566      3375         
     49270  -55.693053      0.37394612    -55.319107      0.029520714    321.44145     -163.24515      3375         
     49280  -55.680907      0.36580727    -55.315099      0.029520714    314.44535     -672.09986      3375         
     49290  -55.633819      0.31703531    -55.316784      0.029520714    272.52132      167.71158      3375         
     49300  -55.59023       0.24828457    -55.341945      0.029520714    213.42367      944.37793      3375         
     49310  -55.712699      0.36422953    -55.348469      0.029520714    313.08914     -503.51483      3375         
     49320  -55.671033      0.32081001    -55.350223      0.029520714    275.76603     -894.9721       3375         
     49330  -55.740065      0.3719305     -55.368134      0.029520714    319.70884      522.97523      3375         
     49340  -55.737232      0.3527553     -55.384477      0.029520714    303.22598      744.85901      3375         
     49350  -55.718704      0.31399149    -55.404713      0.029520714    269.90487     -250.28844      3375         
     49360  -55.674677      0.25940065    -55.415276      0.029520714    222.97897     -698.51029      3375         
     49370  -55.621851      0.2078396     -55.414011      0.029520714    178.65746     -142.82638      3375         
     49380  -55.727341      0.29047219    -55.436869      0.029520714    249.68785      678.3347       3375         
     49390  -55.834961      0.37067512    -55.464286      0.029520714    318.62972      418.95542      3375         
     49400  -55.816955      0.34430247    -55.472652      0.029520714    295.95998     -298.15305      3375         
     49410  -55.735495      0.24875473    -55.48674       0.029520714    213.82782     -124.05945      3375         
     49420  -55.690393      0.18913665    -55.501256      0.029520714    162.58053     -173.57785      3375         
     49430  -55.657745      0.1532803     -55.504464      0.029520714    131.75867     -395.46618      3375         
     49440  -55.789407      0.26651131    -55.522896      0.029520714    229.09125     -36.418308      3375         
     49450  -55.87173       0.33202518    -55.539705      0.029520714    285.40651      419.38842      3375         
     49460  -55.784128      0.2326568     -55.551471      0.029520714    199.99015      586.74628      3375         
     49470  -55.751204      0.18571846    -55.565486      0.029520714    159.64228     -116.72131      3375         
     49480  -55.778405      0.20982469    -55.568581      0.029520714    180.36383     -783.18458      3375         
     49490  -55.759195      0.18375938    -55.575436      0.029520714    157.95827     -144.53957      3375         
     49500  -55.769195      0.18147247    -55.587723      0.029520714    155.99246      574.38009      3375         
     49510  -55.859306      0.25763243    -55.601673      0.029520714    221.45902      330.48535      3375         
     49520  -55.830668      0.23052725    -55.60014       0.029520714    198.1596      -79.27751       3375         
     49530  -55.782289      0.19214642    -55.590143      0.029520714    165.16771     -361.59815      3375         
     49540  -55.786543      0.18900901    -55.597534      0.029520714    162.47081     -210.26726      3375         
     49550  -55.808717      0.20611421    -55.602603      0.029520714    177.17433      167.69807      3375         
     49560  -55.754548      0.15247157    -55.602076      0.029520714    131.06349      12.974322      3375         
     49570  -55.81207       0.21486793    -55.597202      0.029520714    184.69896     -112.47293      3375         
     49580  -55.815188      0.23425947    -55.580928      0.029520714    201.36779      254.58849      3375         
     49590  -55.821229      0.25039998    -55.570829      0.029520714    215.24206      229.59494      3375         
     49600  -55.840681      0.28101235    -55.559669      0.029520714    241.55624     -82.667628      3375         
     49610  -55.763113      0.22167083    -55.541442      0.029520714    190.54668     -258.57099      3375         
     49620  -55.644968      0.12741609    -55.517552      0.029520714    109.52598     -146.59633      3375         
     49630  -55.688645      0.18012051    -55.508524      0.029520714    154.83033      150.0128       3375         
     49640  -55.804662      0.33620874    -55.468453      0.029520714    289.00267      56.856555      3375         
     49650  -55.744419      0.31476001    -55.429659      0.029520714    270.56549     -198.52662      3375         
     49660  -55.834279      0.42526735    -55.409012      0.029520714    365.55682      118.13239      3375         
     49670  -55.725709      0.35082333    -55.374885      0.029520714    301.56526      616.17262      3375         
     49680  -55.550448      0.19229228    -55.358156      0.029520714    165.29309     -150.40378      3375         
     49690  -55.606783      0.25792875    -55.348855      0.029520714    221.71374     -787.24821      3375         
     49700  -55.722956      0.40658165    -55.316374      0.029520714    349.49472     -263.58501      3375         
     49710  -55.708005      0.39861754    -55.309387      0.029520714    342.64884      330.21191      3375         
     49720  -55.806361      0.49580854    -55.310552      0.029520714    426.19353      724.27738      3375         
     49730  -55.654552      0.36892205    -55.28563       0.029520714    317.1228       258.3536       3375         
     49740  -55.508377      0.23657012    -55.271807      0.029520714    203.35401     -529.8913       3375         
     49750  -55.622516      0.35237887    -55.270137      0.029520714    302.9024      -359.32492      3375         
     49760  -55.670346      0.41010735    -55.260238      0.029520714    352.52539      27.559607      3375         
     49770  -55.580002      0.31934025    -55.260662      0.029520714    274.50263     -192.12751      3375         
     49780  -55.718584      0.45746458    -55.261119      0.029520714    393.23334      94.82553       3375         
     49790  -55.79654       0.56931596    -55.227224      0.029520714    489.37999      646.08265      3375         
     49800  -55.598642      0.36652474    -55.232117      0.029520714    315.06209      135.0228       3375         
     49810  -55.555262      0.32191857    -55.233344      0.029520714    276.71894     -130.85949      3375         
     49820  -55.559633      0.32981818    -55.229814      0.029520714    283.50939     -422.75125      3375         
     49830  -55.575215      0.33910827    -55.236106      0.029520714    291.49508     -600.5161       3375         
     49840  -55.655273      0.42455252    -55.230721      0.029520714    364.94236      488.73084      3375         
     49850  -55.849502      0.64119543    -55.208307      0.029520714    551.16708      290.38979      3375         
     49860  -55.631061      0.41065246    -55.220409      0.029520714    352.99396     -426.4574       3375         
     49870  -55.496021      0.26539473    -55.230626      0.029520714    228.13145      380.69951      3375         
     49880  -55.583975      0.34770513    -55.23627       0.029520714    298.88488      418.38648      3375         
     49890  -55.591898      0.3403635     -55.251535      0.029520714    292.57407     -428.78926      3375         
     49900  -55.657256      0.41038498    -55.246871      0.029520714    352.76404     -222.57868      3375         
     49910  -55.792975      0.55928253    -55.233692      0.029520714    480.75533     -97.049083      3375         
     49920  -55.690935      0.42815466    -55.26278       0.029520714    368.03873      116.24134      3375         
     49930  -55.503287      0.22118482    -55.282102      0.029520714    190.12892      623.68528      3375         
     49940  -55.571001      0.28474978    -55.286252      0.029520714    244.76891     -131.63459      3375         
     49950  -55.619933      0.31864412    -55.301289      0.029520714    273.90425     -464.47543      3375         
     49960  -55.691101      0.38056396    -55.310537      0.029520714    327.1301      -26.267337      3375         
     49970  -55.699884      0.40000804    -55.299876      0.029520714    343.84409     -369.93779      3375         
     49980  -55.712844      0.37952017    -55.333324      0.029520714    326.23287      16.044194      3375         
     49990  -55.722918      0.36326751    -55.359651      0.029520714    312.26219      916.59547      3375         
     50000  -55.666498      0.29989819    -55.366599      0.029520714    257.79038      324.15093      3375         
Loop time of 81.9848 on 3 procs for 50000 steps with 10 atoms

Performance: 26.346 ns/day, 0.911 hours/ns, 609.869 timesteps/s, 6.099 katom-step/s
167.9% CPU use with 3 MPI tasks x no OpenMP threads

MPI task timing breakdown:
Section |  min time  |  avg time  |  max time  |%varavg| %total
---------------------------------------------------------------
Pair    | 26.85      | 44.115     | 78.187     | 362.7 | 53.81
Neigh   | 0.00069529 | 0.00093459 | 0.0013476  |   0.0 |  0.00
Comm    | 1.0501     | 35.044     | 52.3       | 406.1 | 42.74
Output  | 0.50334    | 0.5282     | 0.57316    |   4.4 |  0.64
Modify  | 1.9582     | 2.0438     | 2.1426     |   5.3 |  2.49
Other   |            | 0.2524     |            |       |  0.31

Nlocal:        3.33333 ave          10 max           0 min
Histogram: 2 0 0 0 0 0 0 0 0 1
Nghost:             74 ave          94 max          48 min
Histogram: 1 0 0 0 0 0 1 0 0 1
Neighs:              0 ave           0 max           0 min
Histogram: 3 0 0 0 0 0 0 0 0 0
FullNghs:           30 ave          90 max           0 min
Histogram: 2 0 0 0 0 0 0 0 0 1

Total # of neighbors = 90
Ave neighs/atom = 9
Neighbor list builds = 152
Dangerous builds = 0

write_data	restart.data
System init for write_data ...
Generated 0 of 1 mixed pair_coeff terms from geometric mixing rule
#
Total wall time: 0:01:23
