LAMMPS data file via write_data, version 2 Aug 2023, timestep = 50000, units = metal

10 atoms
2 atom types

0 15 xlo xhi
0 15 ylo yhi
0 15 zlo zhi

Masses

1 12
2 2

Atoms # atomic

10 2 7.095456804879506 5.138570483309585 7.963902650111137 0 0 0
4 1 7.367947935488405 6.151456055262705 7.6214564760555525 0 0 0
7 2 8.715797354405787 9.066692714316092 7.566615551714702 0 0 0
8 2 8.387315778873926 6.989103493592068 9.318443196607728 0 0 0
9 2 7.149390826415437 6.19236334202035 6.55582269861007 0 0 0
1 1 6.883508826173596 8.462070725339936 6.687515514061696 0 0 0
3 1 7.954783620127718 7.148246856900551 8.282314675513824 0 0 0
2 1 7.970850766974215 8.347699538011428 7.494902426647886 0 0 0
6 2 6.109510347158287 7.773458438626225 6.875576171508824 0 0 0
5 2 6.603981996372402 9.402972476469756 6.091505176276916 0 0 0

Velocities

10 9.159596797337837 3.112086884442586 13.034379289971847
4 2.607654902836123 2.6418505621331096 -6.184536112581969
7 -2.8664934565951756 -14.00751094311926 -1.4312848351491991
8 -19.818391966305835 6.34383456939519 10.47355571997406
9 16.94981089059381 9.324062456891392 9.498288161589187
1 -3.710427290693944 0.13119156615162345 -1.5105252544689522
3 1.160767470382394 -3.1725605262588 0.9096848628094001
2 -4.048377520110046 -5.481015176826049 3.0656305261235786
6 12.140087844335216 22.224845303655396 -16.911328433673223
5 8.377684516145788 8.285883177531836 7.654865965994162
