LAMMPS data file via write_data, version 2 Aug 2023, timestep = 50000, units = metal

10 atoms
2 atom types

0 15 xlo xhi
0 15 ylo yhi
0 15 zlo zhi

Masses

1 12
2 2

Atoms # atomic

10 2 5.51944682420116 7.210342984362213 8.85256935281357 0 0 0
4 1 6.399806102146969 7.558495960928754 8.224898721063099 0 0 0
7 2 8.488208319222167 8.03760493403333 5.85842627050421 0 0 0
8 2 5.9400281250457745 7.082807546870808 6.169353280923725 0 0 0
9 2 7.1470402943412354 8.074243574239462 8.779933909710687 0 0 0
1 1 8.836244736318754 7.403167054987777 7.8521685357252755 0 0 0
3 1 6.642345031938207 7.45020646894144 6.933817004418959 0 0 0
2 1 8.06474891358212 7.648426117539291 6.775874814173402 0 0 0
6 2 8.482631122710425 6.853900042385086 8.768731822745211 0 0 0
5 2 9.88777661121386 7.599327305152023 7.739430909497795 0 0 0

Velocities

10 -3.4406890912762527 -14.860580533638958 6.096852950713491
4 0.827241222115091 -2.8772718730662725 -2.2106743803507856
7 -3.118138517310944 5.904778240135741 7.783720431314632
8 -11.770784749380034 -3.095601678087485 8.144533743876332
9 1.4652080008361479 8.863487772798903 5.780117686864583
1 -0.6941589126427459 -1.0603617091817317 -4.840121632729103
3 -5.823824131852087 5.484109798410868 -4.9632307485753895
2 1.59815733768563 -2.0180264671807406 6.426444287348476
6 17.82658168477939 -5.113940440406721 9.806814887671209
5 23.593329580513473 11.131158145306072 -4.086544854600065
