ITEM: TIMESTEP
0
ITEM: NUMBER OF ATOMS
10
ITEM: BOX BOUNDS pp pp pp
0.0000000000000000e+00 1.5000000000000000e+01
0.0000000000000000e+00 1.5000000000000000e+01
0.0000000000000000e+00 1.5000000000000000e+01
ITEM: ATOMS id type x y z
10 2 6.54234 6.79039 9.00442
4 1 6.7609 7.55026 8.27998
7 2 8.81548 7.60237 5.79835
8 2 6.23679 6.24494 6.22595
9 2 6.01473 8.38074 8.27635
1 1 8.24309 8.04237 8.05384
3 1 6.88201 6.88961 6.83363
2 1 8.12305 7.41653 6.65525
6 2 9.00985 7.65722 8.63243
5 2 8.45051 9.15171 8.01531
ITEM: TIMESTEP
100
ITEM: NUMBER OF ATOMS
10
ITEM: BOX BOUNDS pp pp pp
0.0000000000000000e+00 1.5000000000000000e+01
0.0000000000000000e+00 1.5000000000000000e+01
0.0000000000000000e+00 1.5000000000000000e+01
ITEM: ATOMS id type x y z
10 2 6.43302 6.73058 8.92449
4 1 6.72907 7.49115 8.14263
7 2 9.01097 7.55938 5.9817
8 2 6.39889 6.30899 6.09708
9 2 5.91993 8.2542 8.17828
1 1 8.11996 8.03599 8.10512
3 1 6.97337 6.90529 6.79671
2 1 8.2306 7.49319 6.76074
6 2 8.88026 7.69127 8.82912
5 2 8.16293 9.12186 8.04708
ITEM: TIMESTEP
200
ITEM: NUMBER OF ATOMS
10
ITEM: BOX BOUNDS pp pp pp
0.0000000000000000e+00 1.5000000000000000e+01
0.0000000000000000e+00 1.5000000000000000e+01
0.0000000000000000e+00 1.5000000000000000e+01
ITEM: ATOMS id type x y z
10 2 6.61381 6.56395 8.82716
4 1 6.65054 7.41062 8.08237
7 2 9.27102 7.37421 6.34675
8 2 6.53601 6.31164 5.95345
9 2 5.76627 8.08141 8.2743
1 1 8.02982 8.11503 8.1437
3 1 7.04321 6.99143 6.6843
2 1 8.30186 7.46235 6.80495
6 2 8.73643 7.79917 9.01205
5 2 8.04792 9.21306 8.18341
ITEM: TIMESTEP
300
ITEM: NUMBER OF ATOMS
10
ITEM: BOX BOUNDS pp pp pp
0.0000000000000000e+00 1.5000000000000000e+01
0.0000000000000000e+00 1.5000000000000000e+01
0.0000000000000000e+00 1.5000000000000000e+01
ITEM: ATOMS id type x y z
10 2 6.3312 6.74139 8.79375
4 1 6.63499 7.42598 8.04165
7 2 9.24018 7.71836 6.26571
8 2 6.73492 6.21833 5.96666
9 2 5.87269 8.15824 7.8787
1 1 7.97221 8.07266 8.22997
3 1 7.16784 6.87916 6.68313
2 1 8.30515 7.55918 6.81859
6 2 8.52206 7.57964 8.98798
5 2 7.94178 9.18215 8.35614
ITEM: TIMESTEP
400
ITEM: NUMBER OF ATOMS
10
ITEM: BOX BOUNDS pp pp pp
0.0000000000000000e+00 1.5000000000000000e+01
0.0000000000000000e+00 1.5000000000000000e+01
0.0000000000000000e+00 1.5000000000000000e+01
ITEM: ATOMS id type x y z
10 2 6.33181 6.64009 8.77278
4 1 6.58404 7.35058 7.94636
7 2 9.31166 7.64675 6.37478
8 2 6.77658 6.4553 5.73918
9 2 5.73597 8.05373 7.86893
1 1 7.93354 8.07762 8.2399
3 1 7.22441 6.91252 6.65655
2 1 8.3811 7.55547 6.93329
6 2 8.46384 7.86436 9.20608
5 2 7.76556 9.18263 8.27061
ITEM: TIMESTEP
500
ITEM: NUMBER OF ATOMS
10
ITEM: BOX BOUNDS pp pp pp
0.0000000000000000e+00 1.5000000000000000e+01
0.0000000000000000e+00 1.5000000000000000e+01
0.0000000000000000e+00 1.5000000000000000e+01
ITEM: ATOMS id type x y z
10 2 6.38702 6.46814 8.59248
4 1 6.56987 7.36148 7.91961
7 2 9.46001 7.55935 6.57543
8 2 7.08053 6.41238 5.67777
9 2 5.59752 7.87959 7.76834
1 1 7.803 8.12402 8.27138
3 1 7.27394 6.93636 6.61071
2 1 8.43904 7.57723 6.98372
6 2 8.34797 7.72731 9.17208
5 2 7.73583 9.17866 8.39039
ITEM: TIMESTEP
600
ITEM: NUMBER OF ATOMS
10
ITEM: BOX BOUNDS pp pp pp
0.0000000000000000e+00 1.5000000000000000e+01
0.0000000000000000e+00 1.5000000000000000e+01
0.0000000000000000e+00 1.5000000000000000e+01
ITEM: ATOMS id type x y z
10 2 6.08539 6.54356 8.47408
4 1 6.49694 7.30613 7.79657
7 2 9.4337 7.80345 6.54174
8 2 7.35433 6.29035 5.75021
9 2 5.64391 7.95459 7.45423
1 1 7.7313 8.1055 8.3391
3 1 7.43739 6.8972 6.65689
2 1 8.45439 7.66906 7.04161
6 2 8.22524 7.52932 9.08081
5 2 7.66124 9.23141 8.58285
ITEM: TIMESTEP
700
ITEM: NUMBER OF ATOMS
10
ITEM: BOX BOUNDS pp pp pp
0.0000000000000000e+00 1.5000000000000000e+01
0.0000000000000000e+00 1.5000000000000000e+01
0.0000000000000000e+00 1.5000000000000000e+01
ITEM: ATOMS id type x y z
10 2 6.20693 6.43894 8.31963
4 1 6.49862 7.26705 7.71678
7 2 9.4988 7.7843 6.86913
8 2 7.47409 6.71248 5.55259
9 2 5.57285 7.70982 7.41047
1 1 7.63267 8.0571 8.3087
3 1 7.53175 6.96591 6.62013
2 1 8.51085 7.62249 7.18539
6 2 7.9615 7.95443 9.36753
5 2 7.36647 9.14471 8.38369
ITEM: TIMESTEP
800
ITEM: NUMBER OF ATOMS
10
ITEM: BOX BOUNDS pp pp pp
0.0000000000000000e+00 1.5000000000000000e+01
0.0000000000000000e+00 1.5000000000000000e+01
0.0000000000000000e+00 1.5000000000000000e+01
ITEM: ATOMS id type x y z
10 2 6.179 6.38397 8.23816
4 1 6.4872 7.24739 7.57589
7 2 9.61149 7.91757 7.09584
8 2 7.7087 6.48462 5.61689
9 2 5.61741 7.75903 7.135
1 1 7.50719 8.09119 8.38848
3 1 7.66241 6.9524 6.58544
2 1 8.51358 7.71971 7.27778
6 2 7.81465 7.50212 9.37531
5 2 7.17045 9.10854 8.46222
ITEM: TIMESTEP
900
ITEM: NUMBER OF ATOMS
10
ITEM: BOX BOUNDS pp pp pp
0.0000000000000000e+00 1.5000000000000000e+01
0.0000000000000000e+00 1.5000000000000000e+01
0.0000000000000000e+00 1.5000000000000000e+01
ITEM: ATOMS id type x y z
10 2 6.03858 6.39829 8.02017
4 1 6.53723 7.19217 7.46386
7 2 9.61355 8.04225 7.368
8 2 7.94345 6.37938 5.69633
9 2 5.72627 7.763 6.91121
1 1 7.37192 8.04774 8.36393
3 1 7.73657 6.97602 6.6019
2 1 8.55841 7.79576 7.38396
6 2 7.5275 7.53094 9.27537
5 2 7.04985 9.03591 8.736
ITEM: TIMESTEP
1000
ITEM: NUMBER OF ATOMS
10
ITEM: BOX BOUNDS pp pp pp
0.0000000000000000e+00 1.5000000000000000e+01
0.0000000000000000e+00 1.5000000000000000e+01
0.0000000000000000e+00 1.5000000000000000e+01
ITEM: ATOMS id type x y z
10 2 6.14585 6.21668 7.90142
4 1 6.53838 7.14874 7.37495
7 2 9.61027 7.99426 7.61588
8 2 8.01816 6.70706 5.5657
9 2 5.69636 7.58368 6.79165
1 1 7.33356 8.03119 8.38141
3 1 7.82601 7.06481 6.60416
2 1 8.54054 7.7566 7.52547
6 2 7.25186 7.63504 9.37757
5 2 6.97057 9.07522 8.3209
ITEM: TIMESTEP
1100
ITEM: NUMBER OF ATOMS
10
ITEM: BOX BOUNDS pp pp pp
0.0000000000000000e+00 1.5000000000000000e+01
0.0000000000000000e+00 1.5000000000000000e+01
0.0000000000000000e+00 1.5000000000000000e+01
ITEM: ATOMS id type x y z
10 2 6.06889 6.23386 7.61117
4 1 6.53393 7.17511 7.29559
7 2 9.54905 8.20845 7.64325
8 2 8.13806 6.59569 5.72069
9 2 5.88085 7.70227 6.5817
1 1 7.21182 7.95453 8.3755
3 1 7.95268 7.02701 6.68021
2 1 8.52543 7.84957 7.54645
6 2 7.22768 7.47966 9.41202
5 2 6.91634 8.96276 8.53369
ITEM: TIMESTEP
1200
ITEM: NUMBER OF ATOMS
10
ITEM: BOX BOUNDS pp pp pp
0.0000000000000000e+00 1.5000000000000000e+01
0.0000000000000000e+00 1.5000000000000000e+01
0.0000000000000000e+00 1.5000000000000000e+01
ITEM: ATOMS id type x y z
10 2 6.2153 6.14471 7.40606
4 1 6.60866 7.10919 7.18818
7 2 9.50561 8.12671 7.92923
8 2 8.32652 6.6965 5.74145
9 2 5.89506 7.54071 6.45521
1 1 7.16349 7.99184 8.37047
3 1 7.95637 7.10783 6.68887
2 1 8.50141 7.82093 7.66214
6 2 7.07174 7.46766 9.36931
5 2 6.73021 9.06501 8.52981
ITEM: TIMESTEP
1300
ITEM: NUMBER OF ATOMS
10
ITEM: BOX BOUNDS pp pp pp
0.0000000000000000e+00 1.5000000000000000e+01
0.0000000000000000e+00 1.5000000000000000e+01
0.0000000000000000e+00 1.5000000000000000e+01
ITEM: ATOMS id type x y z
10 2 6.39438 6.06682 7.26795
4 1 6.67034 7.11478 7.12034
7 2 9.49443 8.12155 8.16075
8 2 8.47199 6.76352 5.75918
9 2 6.015 7.49619 6.3616
1 1 6.99921 7.92994 8.31797
3 1 8.07001 7.16716 6.67373
2 1 8.47144 7.83685 7.82632
6 2 6.91257 7.47339 9.27708
5 2 6.56959 9.00615 8.43231
ITEM: TIMESTEP
1400
ITEM: NUMBER OF ATOMS
10
ITEM: BOX BOUNDS pp pp pp
0.0000000000000000e+00 1.5000000000000000e+01
0.0000000000000000e+00 1.5000000000000000e+01
0.0000000000000000e+00 1.5000000000000000e+01
ITEM: ATOMS id type x y z
10 2 6.30967 6.02859 6.94375
4 1 6.71544 7.12444 6.97763
7 2 9.28272 8.42162 8.27441
8 2 8.7121 6.67316 5.8993
9 2 6.1854 7.74704 6.20103
1 1 6.93852 7.86197 8.34133
3 1 8.19742 7.14543 6.78642
2 1 8.4115 7.9285 7.87455
6 2 6.72436 7.25467 9.28659
5 2 6.33246 8.73286 8.40429
ITEM: TIMESTEP
1500
ITEM: NUMBER OF ATOMS
10
ITEM: BOX BOUNDS pp pp pp
0.0000000000000000e+00 1.5000000000000000e+01
0.0000000000000000e+00 1.5000000000000000e+01
0.0000000000000000e+00 1.5000000000000000e+01
ITEM: ATOMS id type x y z
10 2 6.51742 6.00614 6.96033
4 1 6.80332 7.09064 6.9299
7 2 9.2033 8.246 8.59748
8 2 8.84229 6.97602 6.01462
9 2 6.13635 7.57417 6.16223
1 1 6.85292 7.81531 8.23822
3 1 8.25361 7.28987 6.81542
2 1 8.36283 7.86585 8.00388
6 2 6.46524 7.33812 9.1117
5 2 6.32337 8.70955 8.11811
ITEM: TIMESTEP
1600
ITEM: NUMBER OF ATOMS
10
ITEM: BOX BOUNDS pp pp pp
0.0000000000000000e+00 1.5000000000000000e+01
0.0000000000000000e+00 1.5000000000000000e+01
0.0000000000000000e+00 1.5000000000000000e+01
ITEM: ATOMS id type x y z
10 2 6.54003 6.01501 6.81943
4 1 6.84258 7.05686 6.82756
7 2 9.12889 8.30114 8.75758
8 2 9.07413 6.89771 6.18109
9 2 6.25278 7.62179 6.05494
1 1 6.76221 7.76981 8.19905
3 1 8.32623 7.33887 6.88116
2 1 8.34113 7.92519 8.08325
6 2 6.40277 7.11817 8.96624
5 2 6.09243 8.72181 8.1636
ITEM: TIMESTEP
1700
ITEM: NUMBER OF ATOMS
10
ITEM: BOX BOUNDS pp pp pp
0.0000000000000000e+00 1.5000000000000000e+01
0.0000000000000000e+00 1.5000000000000000e+01
0.0000000000000000e+00 1.5000000000000000e+01
ITEM: ATOMS id type x y z
10 2 6.61935 6.06098 6.59188
4 1 6.89862 7.09807 6.7831
7 2 9.00398 8.40189 8.75891
8 2 9.25872 6.99863 6.3735
9 2 6.47667 7.67737 6.01323
1 1 6.73983 7.69837 8.14362
3 1 8.36569 7.32775 6.9398
2 1 8.2301 7.96333 8.15359
6 2 6.27303 6.97773 8.93496
5 2 6.08675 8.57827 8.09583
ITEM: TIMESTEP
1800
ITEM: NUMBER OF ATOMS
10
ITEM: BOX BOUNDS pp pp pp
0.0000000000000000e+00 1.5000000000000000e+01
0.0000000000000000e+00 1.5000000000000000e+01
0.0000000000000000e+00 1.5000000000000000e+01
ITEM: ATOMS id type x y z
10 2 6.84563 5.99298 6.57074
4 1 6.98 7.05305 6.71195
7 2 8.96903 8.25325 8.93892
8 2 9.32868 7.34073 6.41177
9 2 6.48622 7.57039 5.86325
1 1 6.65435 7.66793 8.10723
3 1 8.41983 7.44266 6.9834
2 1 8.17237 7.88253 8.24256
6 2 5.98557 7.13003 8.91298
5 2 6.14954 8.65555 7.92044
ITEM: TIMESTEP
1900
ITEM: NUMBER OF ATOMS
10
ITEM: BOX BOUNDS pp pp pp
0.0000000000000000e+00 1.5000000000000000e+01
0.0000000000000000e+00 1.5000000000000000e+01
0.0000000000000000e+00 1.5000000000000000e+01
ITEM: ATOMS id type x y z
10 2 6.94283 6.05949 6.32696
4 1 7.03162 7.09361 6.67759
7 2 8.72447 8.36701 9.02822
8 2 9.45115 7.15649 6.77393
9 2 6.70174 7.75959 5.86965
1 1 6.59337 7.60243 8.01288
3 1 8.44577 7.44615 7.09616
2 1 8.12409 7.95182 8.24958
6 2 6.24803 6.85037 8.65503
5 2 5.88664 8.46302 8.01793
ITEM: TIMESTEP
2000
ITEM: NUMBER OF ATOMS
10
ITEM: BOX BOUNDS pp pp pp
0.0000000000000000e+00 1.5000000000000000e+01
0.0000000000000000e+00 1.5000000000000000e+01
0.0000000000000000e+00 1.5000000000000000e+01
ITEM: ATOMS id type x y z
10 2 7.14581 5.96999 6.30157
4 1 7.19038 7.10288 6.5803
7 2 8.53665 8.24085 9.27234
8 2 9.49009 7.35428 6.84476
9 2 6.62965 7.65754 5.77562
1 1 6.57085 7.58215 7.94395
3 1 8.49021 7.53845 7.1851
2 1 7.98706 7.91391 8.34912
6 2 6.04616 6.81582 8.49615
5 2 5.8446 8.35717 7.84775
ITEM: TIMESTEP
2100
ITEM: NUMBER OF ATOMS
10
ITEM: BOX BOUNDS pp pp pp
0.0000000000000000e+00 1.5000000000000000e+01
0.0000000000000000e+00 1.5000000000000000e+01
0.0000000000000000e+00 1.5000000000000000e+01
ITEM: ATOMS id type x y z
10 2 7.35703 6.03952 6.30132
4 1 7.24759 7.12835 6.57531
7 2 8.22603 8.26621 9.41668
8 2 9.58563 7.70873 6.91777
9 2 6.87128 7.67332 5.66842
1 1 6.52813 7.48474 7.82813
3 1 8.54837 7.59116 7.25818
2 1 7.88014 7.87689 8.46845
6 2 5.85681 6.69421 8.24964
5 2 6.00185 8.35118 7.55467
ITEM: TIMESTEP
2200
ITEM: NUMBER OF ATOMS
10
ITEM: BOX BOUNDS pp pp pp
0.0000000000000000e+00 1.5000000000000000e+01
0.0000000000000000e+00 1.5000000000000000e+01
0.0000000000000000e+00 1.5000000000000000e+01
ITEM: ATOMS id type x y z
10 2 7.38369 6.15537 6.16994
4 1 7.39419 7.16582 6.51791
7 2 7.93127 8.4264 9.43118
8 2 9.65285 7.55916 7.1745
9 2 7.08384 7.88324 5.73163
1 1 6.51204 7.42022 7.74721
3 1 8.55507 7.59255 7.38599
2 1 7.76678 7.91175 8.46083
6 2 6.07648 6.47671 8.13725
5 2 5.62737 8.17706 7.57287
ITEM: TIMESTEP
2300
ITEM: NUMBER OF ATOMS
10
ITEM: BOX BOUNDS pp pp pp
0.0000000000000000e+00 1.5000000000000000e+01
0.0000000000000000e+00 1.5000000000000000e+01
0.0000000000000000e+00 1.5000000000000000e+01
ITEM: ATOMS id type x y z
10 2 7.57057 6.15882 6.22334
4 1 7.47996 7.18276 6.53758
7 2 7.78276 8.16943 9.50428
8 2 9.57926 7.74015 7.2946
9 2 7.31272 7.65042 5.60242
1 1 6.48884 7.4186 7.67165
3 1 8.53226 7.71676 7.43758
2 1 7.70643 7.81628 8.47778
6 2 5.97173 6.50657 8.0127
5 2 5.66203 8.18822 7.50413
ITEM: TIMESTEP
2400
ITEM: NUMBER OF ATOMS
10
ITEM: BOX BOUNDS pp pp pp
0.0000000000000000e+00 1.5000000000000000e+01
0.0000000000000000e+00 1.5000000000000000e+01
0.0000000000000000e+00 1.5000000000000000e+01
ITEM: ATOMS id type x y z
10 2 7.76761 6.13983 6.24787
4 1 7.52023 7.20834 6.47648
7 2 7.57021 8.23604 9.47843
8 2 9.63726 7.87099 7.43069
9 2 7.5264 7.92125 5.63658
1 1 6.47617 7.34217 7.60525
3 1 8.53457 7.71983 7.54122
2 1 7.62586 7.8178 8.48911
6 2 5.90269 6.39512 7.95934
5 2 5.77887 8.12795 7.46368
ITEM: TIMESTEP
2500
ITEM: NUMBER OF ATOMS
10
ITEM: BOX BOUNDS pp pp pp
0.0000000000000000e+00 1.5000000000000000e+01
0.0000000000000000e+00 1.5000000000000000e+01
0.0000000000000000e+00 1.5000000000000000e+01
ITEM: ATOMS id type x y z
10 2 7.86143 6.31962 6.01037
4 1 7.63155 7.2611 6.51236
7 2 7.35657 8.30819 9.47728
8 2 9.60739 7.8736 7.63273
9 2 7.68611 7.94666 5.59141
1 1 6.49438 7.28096 7.51823
3 1 8.54391 7.71965 7.62624
2 1 7.47709 7.81545 8.50029
6 2 6.09999 6.34025 7.81853
5 2 5.63092 7.96876 7.41596
ITEM: TIMESTEP
2600
ITEM: NUMBER OF ATOMS
10
ITEM: BOX BOUNDS pp pp pp
0.0000000000000000e+00 1.5000000000000000e+01
0.0000000000000000e+00 1.5000000000000000e+01
0.0000000000000000e+00 1.5000000000000000e+01
ITEM: ATOMS id type x y z
10 2 8.0781 6.18561 6.34041
4 1 7.76599 7.26417 6.51922
7 2 7.13115 7.93157 9.57277
8 2 9.53547 8.15393 7.81622
9 2 7.77084 7.88062 5.58138
1 1 6.49654 7.30911 7.42548
3 1 8.47052 7.82898 7.66022
2 1 7.42091 7.7217 8.53281
6 2 6.04537 6.31633 7.49457
5 2 5.63932 8.00821 7.25729
ITEM: TIMESTEP
2700
ITEM: NUMBER OF ATOMS
10
ITEM: BOX BOUNDS pp pp pp
0.0000000000000000e+00 1.5000000000000000e+01
0.0000000000000000e+00 1.5000000000000000e+01
0.0000000000000000e+00 1.5000000000000000e+01
ITEM: ATOMS id type x y z
10 2 8.19804 6.36816 6.16811
4 1 7.79709 7.32992 6.52889
7 2 6.90512 8.00263 9.48419
8 2 9.50764 8.14272 7.97857
9 2 7.79911 8.00859 5.69258
1 1 6.52158 7.20764 7.27913
3 1 8.50292 7.81467 7.87687
2 1 7.30308 7.77572 8.49933
6 2 6.28269 6.09668 7.39536
5 2 5.68337 7.83348 7.06479
ITEM: TIMESTEP
2800
ITEM: NUMBER OF ATOMS
10
ITEM: BOX BOUNDS pp pp pp
0.0000000000000000e+00 1.5000000000000000e+01
0.0000000000000000e+00 1.5000000000000000e+01
0.0000000000000000e+00 1.5000000000000000e+01
ITEM: ATOMS id type x y z
10 2 8.3311 6.41821 6.27383
4 1 7.94453 7.3849 6.56831
7 2 6.70831 7.9069 9.40932
8 2 9.35193 8.34193 8.23824
9 2 7.86644 8.03677 5.69086
1 1 6.56527 7.17121 7.27271
3 1 8.42516 7.83294 7.92594
2 1 7.21687 7.7228 8.45561
6 2 6.26255 6.1207 7.10806
5 2 5.69269 7.72443 6.83323
ITEM: TIMESTEP
2900
ITEM: NUMBER OF ATOMS
10
ITEM: BOX BOUNDS pp pp pp
0.0000000000000000e+00 1.5000000000000000e+01
0.0000000000000000e+00 1.5000000000000000e+01
0.0000000000000000e+00 1.5000000000000000e+01
ITEM: ATOMS id type x y z
10 2 8.51668 6.42846 6.32255
4 1 8.00536 7.37146 6.60961
7 2 6.64136 7.75744 9.43046
8 2 9.21422 8.48695 8.4452
9 2 8.03668 8.01839 5.70993
1 1 6.61029 7.15113 7.11117
3 1 8.35587 7.94787 7.99367
2 1 7.12318 7.62698 8.48074
6 2 6.36346 6.13761 7.08265
5 2 5.78342 7.80654 6.72713
ITEM: TIMESTEP
3000
ITEM: NUMBER OF ATOMS
10
ITEM: BOX BOUNDS pp pp pp
0.0000000000000000e+00 1.5000000000000000e+01
0.0000000000000000e+00 1.5000000000000000e+01
0.0000000000000000e+00 1.5000000000000000e+01
ITEM: ATOMS id type x y z
10 2 8.73642 6.56925 6.20928
4 1 8.09928 7.44339 6.61191
7 2 6.42201 7.83712 9.38382
8 2 9.06266 8.312 8.76078
9 2 8.12893 8.27649 5.84313
1 1 6.66562 7.10388 7.05133
3 1 8.31037 7.91484 8.08726
2 1 7.00146 7.66003 8.41662
6 2 6.5061 5.96757 7.14962
5 2 5.80746 7.52473 6.53962
ITEM: TIMESTEP
3100
ITEM: NUMBER OF ATOMS
10
ITEM: BOX BOUNDS pp pp pp
0.0000000000000000e+00 1.5000000000000000e+01
0.0000000000000000e+00 1.5000000000000000e+01
0.0000000000000000e+00 1.5000000000000000e+01
ITEM: ATOMS id type x y z
10 2 8.79713 6.63111 6.47143
4 1 8.17113 7.49398 6.68231
7 2 6.39327 7.61432 9.25455
8 2 8.80321 8.47849 8.87877
9 2 8.38578 8.19898 5.88576
1 1 6.74208 7.06403 7.00827
3 1 8.19638 7.97434 8.12597
2 1 6.94353 7.58276 8.36194
6 2 6.42483 5.99393 6.91727
5 2 6.00105 7.61251 6.4103
ITEM: TIMESTEP
3200
ITEM: NUMBER OF ATOMS
10
ITEM: BOX BOUNDS pp pp pp
0.0000000000000000e+00 1.5000000000000000e+01
0.0000000000000000e+00 1.5000000000000000e+01
0.0000000000000000e+00 1.5000000000000000e+01
ITEM: ATOMS id type x y z
10 2 8.91448 6.71837 6.48478
4 1 8.25581 7.51574 6.74036
7 2 6.14786 7.57657 9.16043
8 2 8.72278 8.52755 9.00283
9 2 8.44055 8.29468 6.00775
1 1 6.81122 7.0068 6.87968
3 1 8.09073 8.01948 8.24817
2 1 6.88737 7.5418 8.32707
6 2 6.55192 5.96662 6.83956
5 2 6.07562 7.63331 6.22198
ITEM: TIMESTEP
3300
ITEM: NUMBER OF ATOMS
10
ITEM: BOX BOUNDS pp pp pp
0.0000000000000000e+00 1.5000000000000000e+01
0.0000000000000000e+00 1.5000000000000000e+01
0.0000000000000000e+00 1.5000000000000000e+01
ITEM: ATOMS id type x y z
10 2 9.07679 6.80265 6.53113
4 1 8.29405 7.57375 6.83959
7 2 5.9364 7.50167 8.89961
8 2 8.5437 8.37074 9.16534
9 2 8.30759 8.47609 6.21731
1 1 6.89138 7.03322 6.83676
3 1 8.05387 8.00309 8.28816
2 1 6.78577 7.52493 8.24268
6 2 6.82786 5.88976 6.8118
5 2 6.28134 7.36911 6.02065
ITEM: TIMESTEP
3400
ITEM: NUMBER OF ATOMS
10
ITEM: BOX BOUNDS pp pp pp
0.0000000000000000e+00 1.5000000000000000e+01
0.0000000000000000e+00 1.5000000000000000e+01
0.0000000000000000e+00 1.5000000000000000e+01
ITEM: ATOMS id type x y z
10 2 9.12984 6.80058 6.77903
4 1 8.35981 7.62731 6.94926
7 2 5.89681 7.13157 8.858
8 2 8.40313 8.65454 9.18256
9 2 8.68457 8.34976 6.1089
1 1 6.96568 7.01094 6.76776
3 1 7.919 8.07239 8.34827
2 1 6.70682 7.4246 8.1653
6 2 6.8867 5.93117 6.56158
5 2 6.41504 7.54095 6.01537
ITEM: TIMESTEP
3500
ITEM: NUMBER OF ATOMS
10
ITEM: BOX BOUNDS pp pp pp
0.0000000000000000e+00 1.5000000000000000e+01
0.0000000000000000e+00 1.5000000000000000e+01
0.0000000000000000e+00 1.5000000000000000e+01
ITEM: ATOMS id type x y z
10 2 9.28328 7.03594 6.95147
4 1 8.42138 7.67182 6.97512
7 2 5.66847 7.18581 8.58136
8 2 8.17891 8.54315 9.24471
9 2 8.49547 8.58313 6.35337
1 1 7.08557 6.97568 6.74072
3 1 7.84734 7.97686 8.39984
2 1 6.61932 7.45556 8.09181
6 2 7.11006 5.94919 6.62619
5 2 6.54614 7.44318 5.88696
ITEM: TIMESTEP
3600
ITEM: NUMBER OF ATOMS
10
ITEM: BOX BOUNDS pp pp pp
0.0000000000000000e+00 1.5000000000000000e+01
0.0000000000000000e+00 1.5000000000000000e+01
0.0000000000000000e+00 1.5000000000000000e+01
ITEM: ATOMS id type x y z
10 2 9.44361 7.22542 7.07419
4 1 8.45385 7.69981 7.11041
7 2 5.67114 7.10053 8.44358
8 2 8.02061 8.58783 9.28311
9 2 8.59464 8.56189 6.48125
1 1 7.15442 7.0129 6.67246
3 1 7.72603 7.96971 8.40374
2 1 6.60842 7.39617 8.01904
6 2 7.16051 5.86411 6.5813
5 2 6.57716 7.40871 5.79167
ITEM: TIMESTEP
3700
ITEM: NUMBER OF ATOMS
10
ITEM: BOX BOUNDS pp pp pp
0.0000000000000000e+00 1.5000000000000000e+01
0.0000000000000000e+00 1.5000000000000000e+01
0.0000000000000000e+00 1.5000000000000000e+01
ITEM: ATOMS id type x y z
10 2 9.34249 7.13689 7.43462
4 1 8.4682 7.73542 7.15608
7 2 5.72156 6.84313 8.36303
8 2 7.79139 8.62028 9.28872
9 2 8.79668 8.61838 6.60709
1 1 7.22827 7.01893 6.63839
3 1 7.63718 8.02473 8.42338
2 1 6.59379 7.33798 7.94875
6 2 7.23712 5.84752 6.42231
5 2 6.6701 7.45145 5.77362
ITEM: TIMESTEP
3800
ITEM: NUMBER OF ATOMS
10
ITEM: BOX BOUNDS pp pp pp
0.0000000000000000e+00 1.5000000000000000e+01
0.0000000000000000e+00 1.5000000000000000e+01
0.0000000000000000e+00 1.5000000000000000e+01
ITEM: ATOMS id type x y z
10 2 9.4174 7.33986 7.41891
4 1 8.46236 7.81077 7.22648
7 2 5.53944 6.98005 8.10767
8 2 7.72636 8.47172 9.45511
9 2 8.64249 8.80089 6.75649
1 1 7.3315 6.95766 6.62085
3 1 7.57901 7.94603 8.48193
2 1 6.53987 7.35419 7.82154
6 2 7.42821 5.87528 6.58234
5 2 6.89367 7.34031 5.6637
ITEM: TIMESTEP
3900
ITEM: NUMBER OF ATOMS
10
ITEM: BOX BOUNDS pp pp pp
0.0000000000000000e+00 1.5000000000000000e+01
0.0000000000000000e+00 1.5000000000000000e+01
0.0000000000000000e+00 1.5000000000000000e+01
ITEM: ATOMS id type x y z
10 2 9.4701 7.30602 7.54473
4 1 8.47587 7.82919 7.38892
7 2 5.53284 6.81959 7.86735
8 2 7.43757 8.57355 9.38109
9 2 8.75656 8.78086 6.8968
1 1 7.4304 7.0094 6.60576
3 1 7.42672 8.0099 8.44148
2 1 6.53742 7.19816 7.76292
6 2 7.57506 6.01639 6.36446
5 2 7.12941 7.4437 5.64005
ITEM: TIMESTEP
4000
ITEM: NUMBER OF ATOMS
10
ITEM: BOX BOUNDS pp pp pp
0.0000000000000000e+00 1.5000000000000000e+01
0.0000000000000000e+00 1.5000000000000000e+01
0.0000000000000000e+00 1.5000000000000000e+01
ITEM: ATOMS id type x y z
10 2 9.36219 7.23131 7.78422
4 1 8.46686 7.87167 7.47229
7 2 5.50042 6.68545 7.61276
8 2 7.1529 8.45913 9.3772
9 2 8.79957 8.89268 7.08601
1 1 7.57634 7.05513 6.57134
3 1 7.26695 7.99492 8.41024
2 1 6.5203 7.14694 7.69264
6 2 7.91375 5.96768 6.46758
5 2 7.41253 7.57179 5.68214
ITEM: TIMESTEP
4100
ITEM: NUMBER OF ATOMS
10
ITEM: BOX BOUNDS pp pp pp
0.0000000000000000e+00 1.5000000000000000e+01
0.0000000000000000e+00 1.5000000000000000e+01
0.0000000000000000e+00 1.5000000000000000e+01
ITEM: ATOMS id type x y z
10 2 9.35986 7.48405 7.87622
4 1 8.44314 7.96017 7.5747
7 2 5.47144 6.85062 7.45006
8 2 6.98826 8.29399 9.43998
9 2 8.71386 8.96744 7.16732
1 1 7.71138 7.0276 6.62197
3 1 7.16526 7.87345 8.43558
2 1 6.48541 7.17066 7.51893
6 2 8.10509 6.0078 6.49261
5 2 7.65438 7.42476 5.55576
ITEM: TIMESTEP
4200
ITEM: NUMBER OF ATOMS
10
ITEM: BOX BOUNDS pp pp pp
0.0000000000000000e+00 1.5000000000000000e+01
0.0000000000000000e+00 1.5000000000000000e+01
0.0000000000000000e+00 1.5000000000000000e+01
ITEM: ATOMS id type x y z
10 2 9.22481 7.45648 8.21755
4 1 8.4261 7.94439 7.66945
7 2 5.49275 6.65245 7.39988
8 2 6.61868 8.36968 9.25218
9 2 8.79005 8.88756 7.40102
1 1 7.76302 7.06648 6.5944
3 1 7.09711 7.92304 8.37715
2 1 6.54879 7.07976 7.46222
6 2 8.29926 6.12691 6.40277
5 2 7.6884 7.64492 5.59628
ITEM: TIMESTEP
4300
ITEM: NUMBER OF ATOMS
10
ITEM: BOX BOUNDS pp pp pp
0.0000000000000000e+00 1.5000000000000000e+01
0.0000000000000000e+00 1.5000000000000000e+01
0.0000000000000000e+00 1.5000000000000000e+01
ITEM: ATOMS id type x y z
10 2 9.19842 7.54862 8.39484
4 1 8.40513 7.97836 7.75784
7 2 5.51729 6.72446 7.25744
8 2 6.46827 8.21693 9.26361
9 2 8.66998 8.98876 7.42421
1 1 7.91027 7.11663 6.58704
3 1 6.99987 7.86073 8.37224
2 1 6.52517 7.07906 7.35199
6 2 8.41214 6.07052 6.57351
5 2 7.81524 7.46202 5.56077
ITEM: TIMESTEP
4400
ITEM: NUMBER OF ATOMS
10
ITEM: BOX BOUNDS pp pp pp
0.0000000000000000e+00 1.5000000000000000e+01
0.0000000000000000e+00 1.5000000000000000e+01
0.0000000000000000e+00 1.5000000000000000e+01
ITEM: ATOMS id type x y z
10 2 9.09449 7.66609 8.57503
4 1 8.33849 7.99745 7.8254
7 2 5.58108 6.69346 7.03724
8 2 6.27858 8.10662 9.1559
9 2 8.68656 9.0799 7.57815
1 1 7.96627 7.10626 6.64852
3 1 6.93523 7.79212 8.31026
2 1 6.57312 7.0934 7.25818
6 2 8.59627 6.23238 6.63794
5 2 8.00836 7.5062 5.65059
ITEM: TIMESTEP
4500
ITEM: NUMBER OF ATOMS
10
ITEM: BOX BOUNDS pp pp pp
0.0000000000000000e+00 1.5000000000000000e+01
0.0000000000000000e+00 1.5000000000000000e+01
0.0000000000000000e+00 1.5000000000000000e+01
ITEM: ATOMS id type x y z
10 2 8.92468 7.46868 8.73012
4 1 8.29559 8.02408 7.94993
7 2 5.68847 6.511 6.86487
8 2 6.16522 8.18466 8.96532
9 2 8.73504 9.03445 7.75957
1 1 8.08 7.15469 6.6882
3 1 6.79876 7.79658 8.21196
2 1 6.61609 7.00781 7.18221
6 2 8.7548 6.39351 6.63656
5 2 8.11318 7.72882 5.73881
ITEM: TIMESTEP
4600
ITEM: NUMBER OF ATOMS
10
ITEM: BOX BOUNDS pp pp pp
0.0000000000000000e+00 1.5000000000000000e+01
0.0000000000000000e+00 1.5000000000000000e+01
0.0000000000000000e+00 1.5000000000000000e+01
ITEM: ATOMS id type x y z
10 2 8.87554 7.68197 8.85398
4 1 8.19941 8.02657 8.02943
7 2 5.78029 6.66136 6.43931
8 2 6.04924 7.90474 9.07066
9 2 8.46625 9.05931 7.7963
1 1 8.19172 7.22043 6.76656
3 1 6.72806 7.72484 8.18481
2 1 6.64531 7.01068 7.00019
6 2 8.8548 6.32227 6.98731
5 2 8.51079 7.69521 5.85553
ITEM: TIMESTEP
4700
ITEM: NUMBER OF ATOMS
10
ITEM: BOX BOUNDS pp pp pp
0.0000000000000000e+00 1.5000000000000000e+01
0.0000000000000000e+00 1.5000000000000000e+01
0.0000000000000000e+00 1.5000000000000000e+01
ITEM: ATOMS id type x y z
10 2 8.61998 7.59903 8.9784
4 1 8.09372 8.02733 8.13374
7 2 6.00537 6.54291 6.25959
8 2 5.87493 7.90493 8.8032
9 2 8.41252 9.09769 8.0561
1 1 8.23281 7.23982 6.8216
3 1 6.667 7.72552 8.09331
2 1 6.76653 6.96427 6.93254
6 2 9.07751 6.41428 6.90967
5 2 8.5734 7.91954 5.99493
ITEM: TIMESTEP
4800
ITEM: NUMBER OF ATOMS
10
ITEM: BOX BOUNDS pp pp pp
0.0000000000000000e+00 1.5000000000000000e+01
0.0000000000000000e+00 1.5000000000000000e+01
0.0000000000000000e+00 1.5000000000000000e+01
ITEM: ATOMS id type x y z
10 2 8.40384 7.54062 9.06533
4 1 8.06224 8.04429 8.18091
7 2 6.12423 6.47963 6.17851
8 2 5.7974 7.87076 8.73291
9 2 8.30599 9.0895 8.26189
1 1 8.34328 7.2918 6.9088
3 1 6.58373 7.65887 7.98813
2 1 6.81617 6.9745 6.87269
6 2 9.03201 6.45709 6.90352
5 2 8.62799 7.96562 6.04358
ITEM: TIMESTEP
4900
ITEM: NUMBER OF ATOMS
10
ITEM: BOX BOUNDS pp pp pp
0.0000000000000000e+00 1.5000000000000000e+01
0.0000000000000000e+00 1.5000000000000000e+01
0.0000000000000000e+00 1.5000000000000000e+01
ITEM: ATOMS id type x y z
10 2 8.28079 7.67563 9.26449
4 1 7.98274 8.04079 8.24977
7 2 6.30041 6.61576 5.97414
8 2 5.7524 7.6213 8.6103
9 2 8.05591 9.12635 8.2496
1 1 8.37599 7.31242 6.92204
3 1 6.59938 7.60485 7.94449
2 1 6.86425 7.01479 6.80466
6 2 8.96427 6.40806 7.11069
5 2 8.83606 7.93581 6.15399
ITEM: TIMESTEP
5000
ITEM: NUMBER OF ATOMS
10
ITEM: BOX BOUNDS pp pp pp
0.0000000000000000e+00 1.5000000000000000e+01
0.0000000000000000e+00 1.5000000000000000e+01
0.0000000000000000e+00 1.5000000000000000e+01
ITEM: ATOMS id type x y z
10 2 8.10838 7.51735 9.31079
4 1 7.87285 7.96953 8.30548
7 2 6.43516 6.46931 5.89935
8 2 5.65292 7.77972 8.4134
9 2 8.09822 9.10447 8.46096
1 1 8.40268 7.40945 7.02991
3 1 6.54691 7.6296 7.84395
2 1 6.98747 6.93768 6.74674
6 2 9.21373 6.62331 7.0093
5 2 8.75617 8.04827 6.23872
ITEM: TIMESTEP
5100
ITEM: NUMBER OF ATOMS
10
ITEM: BOX BOUNDS pp pp pp
0.0000000000000000e+00 1.5000000000000000e+01
0.0000000000000000e+00 1.5000000000000000e+01
0.0000000000000000e+00 1.5000000000000000e+01
ITEM: ATOMS id type x y z
10 2 7.90337 7.51353 9.33235
4 1 7.79375 8.007 8.36201
7 2 6.7274 6.51463 5.73583
8 2 5.50583 7.56236 8.33161
9 2 7.82056 9.13358 8.51019
1 1 8.49033 7.39306 7.09119
3 1 6.49315 7.51592 7.78028
2 1 7.06438 7.02163 6.62102
6 2 9.21093 6.62517 7.3775
5 2 8.90629 8.24511 6.47448
ITEM: TIMESTEP
5200
ITEM: NUMBER OF ATOMS
10
ITEM: BOX BOUNDS pp pp pp
0.0000000000000000e+00 1.5000000000000000e+01
0.0000000000000000e+00 1.5000000000000000e+01
0.0000000000000000e+00 1.5000000000000000e+01
ITEM: ATOMS id type x y z
10 2 7.83947 7.47463 9.32652
4 1 7.65963 7.98368 8.38768
7 2 6.94632 6.54107 5.61566
8 2 5.49749 7.38551 8.09891
9 2 7.70218 8.98498 8.46788
1 1 8.49316 7.48582 7.24809
3 1 6.47083 7.43174 7.65402
2 1 7.17588 7.08074 6.5662
6 2 9.21576 6.73402 7.52398
5 2 9.1258 8.20789 6.72012
ITEM: TIMESTEP
5300
ITEM: NUMBER OF ATOMS
10
ITEM: BOX BOUNDS pp pp pp
0.0000000000000000e+00 1.5000000000000000e+01
0.0000000000000000e+00 1.5000000000000000e+01
0.0000000000000000e+00 1.5000000000000000e+01
ITEM: ATOMS id type x y z
10 2 7.65949 7.40037 9.40541
4 1 7.54374 7.88257 8.42295
7 2 7.15503 6.49082 5.64954
8 2 5.39354 7.49381 7.70918
9 2 7.58004 8.97745 8.71779
1 1 8.53761 7.56313 7.2819
3 1 6.46576 7.45978 7.51977
2 1 7.28342 7.00437 6.58357
6 2 9.4129 6.87764 7.6939
5 2 8.93984 8.52085 6.86407
ITEM: TIMESTEP
5400
ITEM: NUMBER OF ATOMS
10
ITEM: BOX BOUNDS pp pp pp
0.0000000000000000e+00 1.5000000000000000e+01
0.0000000000000000e+00 1.5000000000000000e+01
0.0000000000000000e+00 1.5000000000000000e+01
ITEM: ATOMS id type x y z
10 2 7.50311 7.39204 9.3703
4 1 7.49248 7.92564 8.44624
7 2 7.2538 6.69783 5.47816
8 2 5.37016 7.18977 7.53711
9 2 7.30446 9.03184 8.5421
1 1 8.53096 7.57699 7.44354
3 1 6.47241 7.33456 7.47188
2 1 7.38406 7.10583 6.48943
6 2 9.27643 6.82192 7.75783
5 2 9.13662 8.42854 7.09699
ITEM: TIMESTEP
5500
ITEM: NUMBER OF ATOMS
10
ITEM: BOX BOUNDS pp pp pp
0.0000000000000000e+00 1.5000000000000000e+01
0.0000000000000000e+00 1.5000000000000000e+01
0.0000000000000000e+00 1.5000000000000000e+01
ITEM: ATOMS id type x y z
10 2 7.37745 7.2925 9.39247
4 1 7.34469 7.90417 8.45429
7 2 7.37101 6.63958 5.51954
8 2 5.40309 7.14879 7.28658
9 2 7.14769 8.89779 8.81292
1 1 8.56373 7.62709 7.47674
3 1 6.47981 7.32428 7.36816
2 1 7.52584 7.1054 6.50437
6 2 9.25229 6.90573 7.81562
5 2 9.08804 8.57003 7.24044
ITEM: TIMESTEP
5600
ITEM: NUMBER OF ATOMS
10
ITEM: BOX BOUNDS pp pp pp
0.0000000000000000e+00 1.5000000000000000e+01
0.0000000000000000e+00 1.5000000000000000e+01
0.0000000000000000e+00 1.5000000000000000e+01
ITEM: ATOMS id type x y z
10 2 7.22861 7.1464 9.35286
4 1 7.31134 7.81878 8.45108
7 2 7.63658 6.69392 5.50086
8 2 5.46734 7.13873 7.00066
9 2 6.97458 8.84036 8.73709
1 1 8.5125 7.72843 7.58859
3 1 6.51591 7.32564 7.27345
2 1 7.5703 7.08599 6.51125
6 2 9.29821 7.01038 7.94814
5 2 9.05836 8.63721 7.40315
ITEM: TIMESTEP
5700
ITEM: NUMBER OF ATOMS
10
ITEM: BOX BOUNDS pp pp pp
0.0000000000000000e+00 1.5000000000000000e+01
0.0000000000000000e+00 1.5000000000000000e+01
0.0000000000000000e+00 1.5000000000000000e+01
ITEM: ATOMS id type x y z
10 2 7.17246 7.27939 9.40638
4 1 7.15618 7.78896 8.42792
7 2 7.86892 6.95795 5.41707
8 2 5.52917 6.97515 6.921
9 2 6.81636 8.90018 8.60708
1 1 8.5307 7.72495 7.71115
3 1 6.54817 7.18167 7.16037
2 1 7.67211 7.22598 6.49624
6 2 9.17144 6.8808 8.12732
5 2 9.12272 8.69719 7.63606
ITEM: TIMESTEP
5800
ITEM: NUMBER OF ATOMS
10
ITEM: BOX BOUNDS pp pp pp
0.0000000000000000e+00 1.5000000000000000e+01
0.0000000000000000e+00 1.5000000000000000e+01
0.0000000000000000e+00 1.5000000000000000e+01
ITEM: ATOMS id type x y z
10 2 7.08901 7.00436 9.17485