10
 Atoms. Timestep: 0
C 8.24309 8.04237 8.05384
C 8.12305 7.41653 6.65525
C 6.88201 6.88961 6.83363
C 6.7609 7.55026 8.27998
H 8.45051 9.15171 8.01531
H 9.00985 7.65722 8.63243
H 8.81548 7.60237 5.79835
H 6.23679 6.24494 6.22595
H 6.01473 8.38074 8.27635
H 6.54234 6.79039 9.00442
10
 Atoms. Timestep: 20
C 8.19476 8.03204 8.04442
C 8.14629 7.46199 6.64371
C 6.92458 6.91981 6.87879
C 6.77726 7.54713 8.19562
H 8.35116 9.08938 8.06988
H 8.85727 7.49532 8.81776
H 8.7743 7.57184 5.8059
H 6.34134 6.16887 6.34346
H 6.03889 8.3066 8.30736
H 6.50368 6.82212 8.96939
10
 Atoms. Timestep: 40
C 8.17179 8.04917 8.0515
C 8.16308 7.49882 6.64698
C 6.97684 6.91494 6.84047
C 6.73804 7.51038 8.17978
H 8.31239 9.13604 8.25187
H 8.71826 7.41979 8.82369
H 8.83089 7.42386 5.77145
H 6.35477 6.17313 6.36238
H 6.00991 8.37516 8.2527
H 6.59933 6.85216 9.11447
10
 Atoms. Timestep: 60
C 8.12849 8.07499 8.09999
C 8.18546 7.4992 6.64493
C 6.96582 6.8735 6.80287
C 6.73181 7.52873 8.22475
H 8.36382 9.13013 8.37965
H 8.77948 7.4935 8.66374
H 8.97895 7.39172 5.83923
H 6.38284 6.17399 6.1707
H 5.94628 8.29016 8.14237
H 6.60313 6.88195 9.05805
10
 Atoms. Timestep: 80
C 8.15921 8.08011 8.08779
C 8.15935 7.47227 6.69687
C 6.99037 6.88993 6.81337
C 6.70258 7.5126 8.16605
H 8.30645 9.15126 8.27703
H 8.98857 7.52695 8.7077
H 8.97331 7.5048 6.04615
H 6.46672 6.27464 6.0845
H 5.85566 8.20475 8.17126
H 6.46423 6.82812 9.01791
10
 Atoms. Timestep: 100
C 8.11996 8.03599 8.10512
C 8.2306 7.49319 6.76074
C 6.97337 6.90529 6.79671
C 6.72907 7.49115 8.14263
H 8.16293 9.12186 8.04708
H 8.88026 7.69127 8.82912
H 9.01097 7.55938 5.9817
H 6.39889 6.30899 6.09708
H 5.91993 8.2542 8.17828
H 6.43302 6.73058 8.92449
10
 Atoms. Timestep: 120
C 8.10738 8.0672 8.15914
C 8.25683 7.4206 6.72284
C 7.03336 6.95206 6.73391
C 6.67889 7.44009 8.17268
H 8.04653 9.19669 8.02134
H 8.71882 7.81472 9.00377
H 9.03668 7.56313 5.92241
H 6.34022 6.37484 6.12298
H 6.0058 8.31414 8.17557
H 6.51719 6.6768 8.91148
10
 Atoms. Timestep: 140
C 8.06683 8.08749 8.13554
C 8.31143 7.41347 6.74355
C 6.99905 6.96266 6.75306
C 6.72173 7.43946 8.13244
H 8.01092 9.16786 8.15205
H 8.67229 7.88618 9.07293
H 9.05479 7.46016 5.97013
H 6.40043 6.45242 5.95108
H 5.87827 8.14034 8.24517
H 6.51303 6.69452 8.91007
10
 Atoms. Timestep: 160
C 8.08776 8.10963 8.12659
C 8.26801 7.44028 6.81008
C 7.04132 6.95716 6.7298
C 6.67426 7.44961 8.11041
H 8.00092 9.20458 8.11104
H 8.77747 7.77847 8.93963
H 9.10409 7.34518 6.13617
H 6.49788 6.53265 5.92059
H 5.71603 8.01538 8.23733
H 6.59954 6.60369 8.88296
10
 Atoms. Timestep: 180
C 8.02229 8.09774 8.16607
C 8.28657 7.47393 6.82247
C 7.03627 6.95712 6.69761
C 6.66008 7.44959 8.12733
H 8.07253 9.21638 8.06425
H 8.79677 7.76553 8.80434
H 9.26056 7.30096 6.28229
H 6.50678 6.44251 5.89661
H 5.75067 8.01935 8.19517
H 6.70542 6.605 8.76546
10
 Atoms. Timestep: 200
C 8.02982 8.11503 8.1437
C 8.30186 7.46235 6.80495
C 7.04321 6.99143 6.6843
C 6.65054 7.41062 8.08237
H 8.04792 9.21306 8.18341
H 8.73643 7.79917 9.01205
H 9.27102 7.37421 6.34675
H 6.53601 6.31164 5.95345
H 5.76627 8.08141 8.2743
H 6.61381 6.56395 8.82716
10
 Atoms. Timestep: 220
C 8.02576 8.09225 8.16212
C 8.32024 7.47226 6.817
C 7.066 6.98075 6.68
C 6.68824 7.43074 8.07119
H 7.93666 9.16955 8.21137
H 8.52903 7.80857 9.08352
H 9.19675 7.43381 6.18902
H 6.58618 6.29153 6.00091
H 5.80265 8.07035 8.24199
H 6.47128 6.59018 8.78037
10
 Atoms. Timestep: 240
C 8.02746 8.08678 8.22134
C 8.3389 7.48959 6.81553
C 7.1072 6.93851 6.71045
C 6.62287 7.42533 8.07095
H 7.91239 9.2173 8.14091
H 8.59467 7.74299 9.0794
H 9.13778 7.52567 6.03637
H 6.61946 6.3578 5.94132
H 5.80613 8.14377 8.04961
H 6.47496 6.59121 8.73179
10
 Atoms. Timestep: 260
C 7.97432 8.07238 8.2089
C 8.32032 7.50647 6.82344
C 7.14693 6.90249 6.73798
C 6.63325 7.42037 8.0488
H 8.03452 9.15463 8.24618
H 8.71744 7.76954 8.99517
H 9.14436 7.658 6.13188
H 6.6402 6.43839 5.86823
H 5.7787 8.12526 7.91616
H 6.35986 6.66389 8.81666
10
 Atoms. Timestep: 280
C 8.01463 8.08954 8.17862
C 8.32238 7.55077 6.85292
C 7.13712 6.86442 6.70441
C 6.62438 7.39621 8.04013
H 8.01136 9.18467 8.34323
H 8.66307 7.66411 8.98904
H 9.20993 7.73975 6.26385
H 6.6384 6.36121 5.86055
H 5.77675 8.10579 7.88667
H 6.2334 6.75876 8.88916
10
 Atoms. Timestep: 300
C 7.97221 8.07266 8.22997
C 8.30515 7.55918 6.81859
C 7.16784 6.87916 6.68313
C 6.63499 7.42598 8.04165
H 7.94178 9.18215 8.35614
H 8.52206 7.57964 8.98798
H 9.24018 7.71836 6.26571
H 6.73492 6.21833 5.96666
H 5.87269 8.15824 7.8787
H 6.3312 6.74139 8.79375
10
 Atoms. Timestep: 320
C 7.96963 8.07605 8.23641
C 8.34387 7.58949 6.82503
C 7.16404 6.90838 6.71426
C 6.59003 7.4173 7.98437
H 7.97368 9.1519 8.42126
H 8.52516 7.58226 9.10023
H 9.20593 7.62164 6.13627
H 6.86002 6.08435 6.02359
H 5.79843 8.22834 7.9154
H 6.35538 6.60419 8.73185
10
 Atoms. Timestep: 340
C 7.94152 8.07751 8.22056
C 8.34389 7.57256 6.85128
C 7.2074 6.92878 6.70552
C 6.60443 7.43353 7.98641
H 8.01405 9.13899 8.45597
H 8.51841 7.62305 9.04911
H 9.17442 7.60645 6.17104
H 6.89414 6.11661 6.0388
H 5.70332 8.05868 7.95607
H 6.23618 6.60199 8.63538
10
 Atoms. Timestep: 360
C 7.95519 8.11107 8.24254
C 8.37333 7.56625 6.87122
C 7.18434 6.89446 6.67441
C 6.57411 7.39884 8.00156
H 7.95831 9.2445 8.37997
H 8.50689 7.57281 8.99355
H 9.32312 7.69512 6.31698
H 6.82432 6.22764 5.9165
H 5.70258 8.04517 7.85651
H 6.2869 6.61102 8.68705
10
 Atoms. Timestep: 380
C 7.89709 8.08532 8.22632
C 8.35301 7.5561 6.89394
C 7.2098 6.89694 6.67066
C 6.61711 7.38376 7.97768
H 7.87606 9.14497 8.32256
H 8.49833 7.69057 9.09225
H 9.34047 7.71859 6.46647
H 6.76156 6.3798 5.80837
H 5.78005 8.09382 7.79394
H 6.40549 6.65959 8.7938
10
 Atoms. Timestep: 400
C 7.93354 8.07762 8.2399
C 8.3811 7.55547 6.93329
C 7.22441 6.91252 6.65655
C 6.58404 7.35058 7.94636
H 7.76556 9.18263 8.27061
H 8.46384 7.86436 9.20608
H 9.31166 7.64675 6.37478
H 6.77658 6.4553 5.73918
H 5.73597 8.05373 7.86893
H 6.33181 6.64009 8.77278
10
 Atoms. Timestep: 420
C 7.87855 8.09573 8.29066
C 8.43525 7.51206 6.92292
C 7.2311 6.95728 6.64168
C 6.59506 7.3687 7.98748
H 7.70321 9.20472 8.16263
H 8.42288 7.88742 9.16971
H 9.31626 7.59858 6.27492
H 6.88848 6.44758 5.76817
H 5.68899 7.95727 7.90019
H 6.26444 6.52182 8.55691
10
 Atoms. Timestep: 440
C 7.87551 8.12691 8.25886
C 8.43626 7.49757 6.94642
C 7.23587 7.0033 6.65046
C 6.56782 7.34048 7.95311
H 7.73912 9.19528 8.20547
H 8.41524 7.87545 9.23286
H 9.36237 7.58801 6.38664
H 6.91409 6.39927 5.81504
H 5.63783 7.99137 7.89387
H 6.36265 6.36099 8.502
10
 Atoms. Timestep: 460
C 7.85234 8.0882 8.22949
C 8.41713 7.5571 7.00353
C 7.23155 6.98058 6.61683
C 6.59381 7.35065 7.90406
H 7.78497 9.18334 8.27681
H 8.34283 7.86248 9.20614
H 9.43361 7.56845 6.5968
H 6.84007 6.34654 5.76744
H 5.66539 7.89649 7.92944
H 6.48817 6.5035 8.5889
10
 Atoms. Timestep: 480
C 7.85823 8.11741 8.29751
C 8.39535 7.56255 6.95973
C 7.28385 6.94234 6.56943
C 6.5609 7.34849 7.90683
H 7.74417 9.25317 8.28002
H 8.3278 7.7357 9.18123
H 9.46881 7.56331 6.74022
H 6.90552 6.39493 5.72254
H 5.58203 7.87017 7.89189
H 6.50565 6.57797 8.6721
10
 Atoms. Timestep: 500
C 7.803 8.12402 8.27138
C 8.43904 7.57723 6.98372
C 7.27394 6.93636 6.61071
C 6.56987 7.36148 7.91961
H 7.73583 9.17866 8.39039
H 8.34797 7.72731 9.17208
H 9.46001 7.55935 6.57543
H 7.08053 6.41238 5.67777
H 5.59752 7.87959 7.76834
H 6.38702 6.46814 8.59248
10
 Atoms. Timestep: 520
C 7.83061 8.10447 8.25924
C 8.43365 7.57499 7.01064
C 7.33258 6.97719 6.67216
C 6.53182 7.31152 7.86556
H 7.69055 9.20275 8.43182
H 8.31847 7.78328 9.22677
H 9.32557 7.66737 6.42743
H 7.12346 6.35128 5.77055
H 5.66504 7.96045 7.71458
H 6.22894 6.44586 8.47227
10
 Atoms. Timestep: 540
C 7.78299 8.06039 8.34573
C 8.46783 7.61878 7.00713
C 7.34049 6.91649 6.62489
C 6.56462 7.33695 7.85906
H 7.63981 9.18144 8.29299
H 8.24789 7.75059 9.23125
H 9.39199 7.89441 6.42929
H 7.03375 6.239 5.82412
H 5.72917 8.02539 7.6597
H 6.14581 6.53349 8.43075
10
 Atoms. Timestep: 560
C 7.80375 8.07583 8.34015
C 8.42689 7.63586 6.98783
C 7.37978 6.87401 6.60811
C 6.54856 7.33055 7.82995
H 7.63928 9.13833 8.39282
H 8.21764 7.69766 9.34824
H 9.38864 8.01545 6.65727
H 7.06581 6.24891 5.80283
H 5.75732 8.0736 7.54797
H 6.10139 6.54859 8.54362
10
 Atoms. Timestep: 580
C 7.7663 8.07069 8.27194
C 8.41076 7.66914 7.0479
C 7.38796 6.87263 6.65471
C 6.55091 7.32011 7.81945
H 7.69641 9.13393 8.57572
H 8.2122 7.65754 9.20907
H 9.38133 7.92829 6.66626
H 7.24533 6.30008 5.68997
H 5.7816 7.98355 7.47238
H 6.11156 6.62117 8.51155
10
 Atoms. Timestep: 600
C 7.7313 8.1055 8.3391
C 8.45439 7.66906 7.04161
C 7.43739 6.8972 6.65689
C 6.49694 7.30613 7.79657
H 7.66124 9.23141 8.58285
H 8.22524 7.52932 9.08081
H 9.4337 7.80345 6.54174
H 7.35433 6.29035 5.75021
H 5.64391 7.95459 7.45423
H 6.08539 6.54356 8.47408
10
 Atoms. Timestep: 620
C 7.68213 8.08916 8.35019
C 8.48929 7.67908 7.03233
C 7.44936 6.92086 6.63199
C 6.52342 7.34989 7.77912
H 7.56824 9.10636 8.55642
H 8.14047 7.53938 9.25011
H 9.48405 7.79916 6.57789
H 7.32669 6.18802 5.88238
H 5.60208 7.8983 7.50768
H 6.13726 6.4549 8.35276
10
 Atoms. Timestep: 640
C 7.74502 8.06531 8.32794
C 8.47656 7.68882 7.08566
C 7.42013 6.94847 6.61012
C 6.52337 7.29834 7.71958
H 7.50264 9.14803 8.56366
H 7.96739 7.7163 9.36927
H 9.49025 7.88535 6.78696
H 7.26928 6.1014 5.89003
H 5.66849 7.93957 7.51567
H 6.23545 6.42368 8.30361
10
 Atoms. Timestep: 660
C 7.66225 8.07292 8.34202
C 8.45321 7.64795 7.13001
C 7.46594 6.96189 6.57427
C 6.55675 7.27398 7.75241
H 7.54465 9.20634 8.35511
H 8.0276 7.72417 9.26467
H 9.49895 7.92891 6.94031
H 7.31932 6.26227 5.7219
H 5.70174 7.92947 7.48915
H 6.20285 6.42842 8.32565
10
 Atoms. Timestep: 680
C 7.64009 8.12548 8.34683
C 8.49951 7.64188 7.18486
C 7.49348 6.93401 6.55932
C 6.49627 7.2455 7.74268
H 7.50698 9.17592 8.29215
H 8.14957 7.73875 9.31112
H 9.55362 7.86522 6.88483
H 7.44364 6.55114 5.55908
H 5.58778 7.82629 7.44331
H 6.1063 6.38142 8.39632
10
 Atoms. Timestep: 700
C 7.63267 8.0571 8.3087
C 8.51085 7.62249 7.18539
C 7.53175 6.96591 6.62013
C 6.49862 7.26705 7.71678
H 7.36647 9.14471 8.38369
H 7.9615 7.95443 9.36753
H 9.4988 7.7843 6.86913
H 7.47409 6.71248 5.55259
H 5.57285 7.70982 7.41047
H 6.20693 6.43894 8.31963
10
 Atoms. Timestep: 720
C 7.62325 8.08476 8.37522
C 8.55192 7.63303 7.22069
C 7.49668 6.99999 6.59302
C 6.52763 7.23709 7.66171
H 7.26014 9.16541 8.24663
H 7.79682 7.8732 9.40667
H 9.61402 7.78931 6.92176
H 7.35651 6.54019 5.57379
H 5.565 7.77944 7.35583
H 6.33459 6.34323 8.28045
10
 Atoms. Timestep: 740
C 7.54575 8.11166 8.36599
C 8.51807 7.62593 7.23555
C 7.55181 7.04296 6.5227
C 6.56613 7.23947 7.68017
H 7.3688 9.13387 8.23154
H 7.77428 7.76806 9.4242
H 9.61409 7.80841 7.10338
H 7.35119 6.39005 5.71714
H 5.63864 7.73729 7.42021
H 6.28644 6.26221 8.16606
10
 Atoms. Timestep: 760
C 7.587 8.09393 8.33297
C 8.50927 7.67754 7.27773
C 7.55507 7.02667 6.53852
C 6.49767 7.20646 7.62042
H 7.43542 9.23003 8.42317
H 7.83581 7.84648 9.41608
H 9.55838 7.80296 7.21904
H 7.60797 6.34013 5.65769
H 5.54889 7.70381 7.4358
H 6.24348 6.269 8.11933
10
 Atoms. Timestep: 780
C 7.52401 8.05214 8.3482
C 8.50745 7.69806 7.25473
C 7.59908 6.97793 6.59013
C 6.48919 7.26406 7.60981
H 7.34504 9.1349 8.47875
H 7.87471 7.75788 9.28482
H 9.59036 7.82717 7.203
H 7.82663 6.48894 5.634
H 5.4888 7.71005 7.30181
H 6.28004 6.34796 8.16943
10
 Atoms. Timestep: 800
C 7.50719 8.09119 8.38848
C 8.51358 7.71971 7.27778
C 7.66241 6.9524 6.58544
C 6.4872 7.24739 7.57589
H 7.17045 9.10854 8.46222
H 7.81465 7.50212 9.37531
H 9.61149 7.91757 7.09584
H 7.7087 6.48462 5.61689
H 5.61741 7.75903 7.135
H 6.179 6.38397 8.23816
10
 Atoms. Timestep: 820
C 7.49483 8.04596 8.36355
C 8.53699 7.75174 7.31541
C 7.653 6.96453 6.5994
C 6.55932 7.20607 7.55572
H 7.16231 9.0872 8.60226
H 7.59538 7.64823 9.38759
H 9.52503 8.07958 7.0936
H 7.58388 6.37225 5.66466
H 5.79979 7.78894 7.07839
H 5.99272 6.43401 8.05803
10
 Atoms. Timestep: 840
C 7.48377 8.02825 8.41433
C 8.5268 7.7529 7.29123
C 7.68972 6.9692 6.6272
C 6.51797 7.18568 7.52253
H 7.26497 9.12415 8.53762
H 7.6169 7.67515 9.4041
H 9.47732 8.23923 7.17143
H 7.72724 6.32105 5.74892
H 5.79984 7.938 7.01037
H 5.92813 6.30626 7.88477
10
 Atoms. Timestep: 860
C 7.43719 8.0085 8.39428
C 8.49408 7.78537 7.35039
C 7.72496 6.91953 6.60826
C 6.4787 7.25358 7.52258
H 7.27097 9.05474 8.43569
H 7.77154 7.54288 9.42516
H 9.52114 8.26327 7.17695
H 7.98574 6.3343 5.72914
H 5.75447 7.90011 7.04948
H 6.01056 6.32285 7.81947
10
 Atoms. Timestep: 880
C 7.45116 8.03044 8.37763
C 8.47636 7.7656 7.36224
C 7.76839 6.95766 6.62762
C 6.4938 7.22399 7.45077
H 7.11997 9.08834 8.62583
H 7.68944 7.5289 9.32626
H 9.46825 8.12632 7.26595
H 8.0554 6.39224 5.73278
H 5.67838 7.84231 7.04607
H 5.97432 6.37579 7.98254
10
 Atoms. Timestep: 900
C 7.37192 8.04774 8.36393
C 8.55841 7.79576 7.38396
C 7.73657 6.97602 6.6019
C 6.53723 7.19217 7.46386
H 7.04985 9.03591 8.736
H 7.5275 7.53094 9.27537
H 9.61355 8.04225 7.368
H 7.94345 6.37938 5.69633
H 5.72627 7.763 6.91121
H 6.03858 6.39829 8.02017
10
 Atoms. Timestep: 920
C 7.37504 8.06082 8.39008
C 8.54359 7.78523 7.3829
C 7.7876 7.02378 6.61812
C 6.50971 7.19154 7.44402
H 7.02351 9.08385 8.55188
H 7.45748 7.44307 9.40569
H 9.64636 7.99807 7.44481
H 7.81181 6.40455 5.74457
H 5.7553 7.66275 6.8344
H 6.13393 6.25949 7.89698
10
 Atoms. Timestep: 940
C 7.37023 8.00534 8.38653
C 8.5197 7.7857 7.46484
C 7.76457 7.02544 6.61482
C 6.53597 7.20809 7.41466
H 7.09372 9.06653 8.39768
H 7.49389 7.68113 9.40163
H 9.58219 8.03585 7.46201
H 7.96176 6.4392 5.688
H 5.66135 7.65203 6.92328
H 6.18831 6.19782 7.73128
10
 Atoms. Timestep: 960
C 7.34872 8.0172 8.38787
C 8.524 7.72145 7.48307
C 7.80415 7.05011 6.58022
C 6.5168 7.15525 7.3893
H 7.07072 9.11195 8.37046
H 7.47422 7.80633 9.44934
H 9.51264 8.10752 7.52794
H 8.14137 6.57379 5.66756
H 5.60971 7.76173 7.04655
H 6.1533 6.19468 7.78435
10
 Atoms. Timestep: 980
C 7.30945 8.0316 8.34885
C 8.54011 7.70712 7.51458
C 7.84277 7.06317 6.54414
C 6.51176 7.15594 7.44243
H 7.00252 9.06482 8.32534
H 7.35036 7.69889 9.45852
H 9.57919 8.1091 7.5794
H 8.13989 6.66977 5.58187
H 5.70868 7.69045 6.97703
H 6.11882 6.23993 7.86678
10
 Atoms. Timestep: 1000
C 7.33356 8.03119 8.38141
C 8.54054 7.7566 7.52547
C 7.82601 7.06481 6.60416
C 6.53838 7.14874 7.37495
H 6.97057 9.07522 8.3209
H 7.25186 7.63504 9.37757
H 9.61027 7.99426 7.61588
H 8.01816 6.70706 5.5657
H 5.69636 7.58368 6.79165
H 6.14585 6.21668 7.90142
10
 Atoms. Timestep: 1020
C 7.27776 7.99663 8.37191
C 8.54451 7.78176 7.51283
C 7.82995 7.06512 6.64812
C 6.56373 7.17411 7.34189
H 6.99951 9.07986 8.42507
H 7.29646 7.67729 9.41069
H 9.58623 7.9433 7.64932
H 7.98445 6.65431 5.65604
H 5.70002 7.53257 6.74284
H 6.26162 6.22693 7.75652
10
 Atoms. Timestep: 1040
C 7.26705 8.03885 8.38462
C 8.53193 7.77739 7.55296
C 7.87741 7.05939 6.57392
C 6.51107 7.1571 7.34122
H 6.94811 9.07888 8.47207
H 7.36377 7.61659 9.47181
H 9.60875 8.0338 7.68283
H 8.15558 6.51037 5.68239
H 5.68928 7.64431 6.79684
H 6.2338 6.13971 7.66679
10
 Atoms. Timestep: 1060
C 7.27009 8.00512 8.36017
C 8.4923 7.75322 7.54466
C 7.90198 7.08599 6.58253
C 6.54997 7.16919 7.3505
H 6.89161 9.02091 8.45136
H 7.30597 7.57947 9.31883
H 9.49556 8.15289 7.72311
H 8.34406 6.47335 5.77905
H 5.71699 7.72197 6.9106
H 6.08377 6.19036 7.67886
10
 Atoms. Timestep: 1080
C 7.27304 7.96858 8.37614
C 8.51854 7.82591 7.56651
C 7.87932 7.04347 6.62289
C 6.54613 7.14184 7.28074
H 6.89137 9.05104 8.44624
H 7.2405 7.4977 9.38343
H 9.52124 8.20816 7.70318
H 8.34246 6.52509 5.7548
H 5.76125 7.78201 6.80898
H 6.06496 6.27722 7.71465
10
 Atoms. Timestep: 1100
C 7.21182 7.95453 8.3755
C 8.52543 7.84957 7.54645
C 7.95268 7.02701 6.68021
C 6.53393 7.17511 7.29559
H 6.91634 8.96276 8.53369
H 7.22768 7.47966 9.41202
H 9.54905 8.20845 7.64325
H 8.13806 6.59569 5.72069
H 5.88085 7.70227 6.5817
H 6.06889 6.23386 7.61117
10
 Atoms. Timestep: 1120
C 7.22326 8.00427 8.4098
C 8.51204 7.84151 7.58898
C 7.927 7.01365 6.67213
C 6.57118 7.15295 7.2633
H 6.81075 9.01718 8.61975
H 7.24673 7.45191 9.32758
H 9.54373 8.25333 7.65171
H 8.17738 6.5895 5.68192
H 5.92583 7.65965 6.52206
H 6.01873 6.17419 7.48073
10
 Atoms. Timestep: 1140
C 7.20395 7.97712 8.35032
C 8.49121 7.8127 7.59884
C 7.93434 7.05021 6.6529
C 6.5893 7.15256 7.26963
H 6.75309 8.99273 8.59163
H 7.24439 7.43319 9.30531
H 9.44733 8.28132 7.74988
H 8.39908 6.53466 5.80499
H 5.88981 7.75953 6.69156
H 6.07749 6.26299 7.51554
10
 Atoms. Timestep: 1160
C 7.19739 7.94733 8.36516
C 8.4936 7.85029 7.61669
C 8.00986 7.0721 6.61499
C 6.51631 7.14676 7.22337
H 6.80644 8.93969 8.45172
H 7.18529 7.4286 9.38638
H 9.47398 8.25334 7.85214
H 8.51675 6.45504 5.87926
H 5.76719 7.85529 6.77165
H 6.07141 6.18915 7.62658
10
 Atoms. Timestep: 1180
C 7.16768 7.91784 8.36468
C 8.50158 7.87149 7.63181
C 8.00241 7.08863 6.64059
C 6.55259 7.16405 7.23053
H 6.83421 8.96038 8.44703
H 7.1156 7.50551 9.33583
H 9.5274 8.17683 7.9161
H 8.47354 6.50335 5.83729
H 5.7579 7.64365 6.65742
H 6.06981 6.17818 7.48971
10
 Atoms. Timestep: 1200
C 7.16349 7.99184 8.37047
C 8.50141 7.82093 7.66214
C 7.95637 7.10783 6.68887
C 6.60866 7.10919 7.18818
H 6.73021 9.06501 8.52981
H 7.07174 7.46766 9.36931
H 9.50561 8.12671 7.92923
H 8.32652 6.6965 5.74145
H 5.89506 7.54071 6.45521
H 6.2153 6.14471 7.40606
10
 Atoms. Timestep: 1220
C 7.09158 7.99336 8.32683
C 8.50474 7.79586 7.73778
C 8.01103 7.10585 6.64747
C 6.60002 7.13164 7.22173
H 6.71301 8.95062 8.4515
H 7.04404 7.48504 9.31642
H 9.51683 8.13737 7.93433
H 8.30405 6.82114 5.63699
H 5.97981 7.58778 6.43186
H 6.32203 6.07778 7.51499
10
 Atoms. Timestep: 1240
C 7.11217 7.94222 8.36294
C 8.49371 7.78394 7.72576
C 8.07069 7.14811 6.65109
C 6.59497 7.10703 7.14375
H 6.67623 9.00632 8.28652
H 6.9178 7.55733 9.35828
H 9.46416 8.18162 8.05389
H 8.49226 6.85546 5.7026
H 5.75316 7.5901 6.5997
H 6.19114 6.14139 7.58675
10
 Atoms. Timestep: 1260
C 7.1127 7.88273 8.32186
C 8.48167 7.8231 7.76694
C 8.03307 7.17052 6.62743
C 6.60648 7.11174 7.16163
H 6.76612 8.96267 8.19632
H 6.85212 7.62324 9.35922
H 9.44572 8.17825 8.16471
H 8.72187 6.81982 5.82307
H 5.73764 7.52646 6.67659
H 6.19698 6.18095 7.40194
10
 Atoms. Timestep: 1280
C 7.07966 7.95452 8.34232
C 8.4664 7.81093 7.76635
C 8.07663 7.21673 6.67606
C 6.5913 7.06897 7.13227
H 6.74734 8.93537 8.27874
H 6.87071 7.53572 9.37875
H 9.41104 8.11293 8.15503
H 8.59697 6.74993 5.83005
H 5.85642 7.63897 6.45948
H 6.35761 5.94013 7.28492
10
 Atoms. Timestep: 1300
C 6.99921 7.92994 8.31797
C 8.47144 7.83685 7.82632
C 8.07001 7.16716 6.67373
C 6.67034 7.11478 7.12034
H 6.56959 9.00615 8.43231
H 6.91257 7.47339 9.27708
H 9.49443 8.12155 8.16075
H 8.47199 6.76352 5.75918
H 6.015 7.49619 6.3616
H 6.39438 6.06682 7.26795
10
 Atoms. Timestep: 1320
C 7.01836 7.92933 8.34493
C 8.46456 7.84743 7.79516
C 8.12908 7.14914 6.72911
C 6.67373 7.12311 7.04057
H 6.41755 8.9066 8.45887
H 6.8125 7.33217 9.27318
H 9.40835 8.19767 8.22321
H 8.56184 6.82904 5.78828
H 5.94542 7.47927 6.2938
H 6.2639 6.18118 7.39297
10
 Atoms. Timestep: 1340
C 7.01541 7.87729 8.2827
C 8.44086 7.89474 7.8331
C 8.16435 7.13754 6.71489
C 6.61876 7.13339 7.07171
H 6.54985 8.76621 8.39975
H 6.79543 7.28319 9.19144
H 9.34358 8.30156 8.27093
H 8.88522 6.82989 5.89365
H 5.95077 7.63986 6.3228
H 6.16288 6.14157 7.39603
10
 Atoms. Timestep: 1360
C 7.00204 7.86444 8.31359
C 8.41271 7.88671 7.83153
C 8.17859 7.17828 6.73616
C 6.62981 7.06527 7.01243
H 6.56825 8.97974 8.41808
H 6.85925 7.29238 9.23598
H 9.28186 8.38138 8.26676
H 8.90244 6.76124 6.0729
H 6.02665 7.74561 6.41453
H 6.1467 6.09145 7.11853
10
 Atoms. Timestep: 1380
C 6.94523 7.8469 8.30382
C 8.39441 7.90573 7.86457
C 8.16534 7.16572 6.7467
C 6.7196 7.09369 7.02988
H 6.50744 8.84873 8.46328
H 6.83802 7.37607 9.273
H 9.29191 8.42461 8.23802
H 8.77948 6.65737 6.01928
H 6.11117 7.71818 6.35584
H 6.24851 6.12288 6.86978
10
 Atoms. Timestep: 1400
C 6.93852 7.86197 8.34133
C 8.4115 7.9285 7.87455
C 8.19742 7.14543 6.78642
C 6.71544 7.12444 6.97763
H 6.33246 8.73286 8.40429
H 6.72436 7.25467 9.28659
H 9.28272 8.42162 8.27441
H 8.7121 6.67316 5.8993
H 6.1854 7.74704 6.20103
H 6.30967 6.02859 6.94375
10
 Atoms. Timestep: 1420
C 6.92718 7.81977 8.27032
C 8.4178 7.92595 7.88644
C 8.21504 7.15789 6.81086
C 6.69839 7.1246 6.98345
H 6.25191 8.7753 8.38904
H 6.72073 7.16283 9.09638
H 9.28086 8.39656 8.36249
H 8.84805 6.85593 5.98681
H 6.20894 7.67078 6.20573
H 6.26309 6.18932 7.14215
10
 Atoms. Timestep: 1440
C 6.92017 7.86229 8.2631
C 8.37383 7.91735 7.94285
C 8.23274 7.19602 6.78382
C 6.72256 7.0656 6.92834
H 6.39426 8.80423 8.45326
H 6.73908 7.13896 9.06274
H 9.27296 8.3464 8.43006
H 9.00886 6.93548 6.09772
H 6.07982 7.61346 6.166
H 6.13324 6.13399 7.17055
10
 Atoms. Timestep: 1460
C 6.88691 7.84212 8.23557
C 8.35528 7.88587 7.9404
C 8.26746 7.25455 6.7953
C 6.71423 7.09448 6.95103
H 6.46372 8.79736 8.43399
H 6.65983 7.25569 9.18478
H 9.17336 8.29493 8.49334
H 9.04023 6.85447 6.08116
H 6.10429 7.54769 6.17146
H 6.33929 6.00773 6.99056
10
 Atoms. Timestep: 1480
C 6.86552 7.81176 8.29092
C 8.36814 7.89098 7.98368
C 8.24214 7.25022 6.76609
C 6.75129 7.08295 6.91023
H 6.35263 8.90433 8.23657
H 6.53462 7.3312 9.22056
H 9.18131 8.2956 8.60975
H 8.94799 6.83375 6.02421
H 6.14022 7.5989 6.16782
H 6.60463 6.04078 6.92456
10
 Atoms. Timestep: 1500
C 6.85292 7.81531 8.23822
C 8.36283 7.86585 8.00388
C 8.25361 7.28987 6.81542
C 6.80332 7.09064 6.9299
H 6.32337 8.70955 8.11811
H 6.46524 7.33812 9.1117
H 9.2033 8.246 8.59748
H 8.84229 6.97602 6.01462
H 6.13635 7.57417 6.16223
H 6.51742 6.00614 6.96033
10
 Atoms. Timestep: 1520
C 6.84734 7.83475 8.21549
C 8.35869 7.87214 8.06543
C 8.291 7.30159 6.81331
C 6.77378 7.04158 6.89132
H 6.30786 8.79448 8.13108
H 6.41955 7.2299 9.12871
H 9.23065 8.22656 8.60017
H 9.03023 7.16472 5.95985
H 6.1744 7.50679 6.10616
H 6.33639 5.99724 7.0497
10
 Atoms. Timestep: 1540
C 6.81557 7.79079 8.19968
C 8.34241 7.85725 8.02497
C 8.30601 7.29816 6.83139
C 6.76114 7.04884 6.89188
H 6.39213 8.87658 8.24132
H 6.46594 7.29934 9.08332
H 9.12676 8.26509 8.67913
H 9.14048 7.28415 6.11145
H 6.22127 7.46437 6.04166
H 6.42661 6.06025 7.04459
10
 Atoms. Timestep: 1560
C 6.82694 7.80759 8.23694
C 8.28004 7.86722 8.0491
C 8.3079 7.28866 6.81677
C 6.81643 7.07921 6.85301
H 6.39372 8.77531 8.23501
H 6.44227 7.28538 9.1063
H 9.03193 8.30706 8.72507
H 9.10321 7.13502 6.13606
H 6.17683 7.49415 5.99512
H 6.58815 5.96703 6.95648
10
 Atoms. Timestep: 1580
C 6.79085 7.78604 8.18413
C 8.30839 7.89048 8.08088
C 8.32393 7.32665 6.84611
C 6.83512 7.09224 6.8625
H 6.24512 8.74345 8.17341
H 6.397 7.16592 9.098
H 9.04258 8.30575 8.7321
H 9.02926 6.90793 6.08588
H 6.22237 7.51887 6.11496
H 6.63795 6.00562 6.84293
10
 Atoms. Timestep: 1600
C 6.76221 7.76981 8.19905
C 8.34113 7.92519 8.08325
C 8.32623 7.33887 6.88116
C 6.84258 7.05686 6.82756
H 6.09243 8.72181 8.1636
H 6.40277 7.11817 8.96624
H 9.12889 8.30114 8.75758
H 9.07413 6.89771 6.18109
H 6.25278 7.62179 6.05494
H 6.54003 6.01501 6.81943
10
 Atoms. Timestep: 1620
C 6.77901 7.75532 8.17628
C 8.27251 7.95337 8.0837
C 8.3379 7.2838 6.89019
C 6.83781 7.08572 6.82789
H 6.17202 8.60673 8.25418
H 6.43911 7.0883 8.96623
H 9.11338 8.31225 8.72782
H 9.20992 7.07811 6.32009
H 6.37548 7.62342 5.94599
H 6.45071 6.04182 6.8063
10
 Atoms. Timestep: 1640
C 6.77294 7.75353 8.1846
C 8.23131 7.93108 8.05679
C 8.38088 7.26118 6.93867
C 6.84691 7.09818 6.77845
H 6.18497 8.69537 8.32562
H 6.49309 6.99995 9.07204
H 8.90878 8.40788 8.71372
H 9.27294 7.15694 6.30286
H 6.44 7.62458 5.95478
H 6.43196 6.07146 6.7689
10
 Atoms. Timestep: 1660
C 6.73049 7.71742 8.16221
C 8.24753 7.93734 8.11881
C 8.3917 7.26123 6.91615
C 6.87603 7.08952 6.80178
H 6.16038 8.68026 8.29762
H 6.48424 7.08905 8.94
H 8.85259 8.56895 8.79691
H 9.24502 7.04168 6.2109
H 6.42176 7.72549 5.98492
H 6.48547 6.08154 6.66489
10
 Atoms. Timestep: 1680
C 6.74996 7.72914 8.16867
C 8.25823 7.93028 8.12245
C 8.37675 7.32034 6.95156
C 6.90552 7.06816 6.77547
H 6.08163 8.58164 8.15575
H 6.31823 7.0158 8.93701
H 8.89911 8.55627 8.77999
H 9.11269 6.95631 6.29199
H 6.42334 7.7862 6.04302
H 6.54629 6.03626 6.57233
10
 Atoms. Timestep: 1700
C 6.73983 7.69837 8.14362
C 8.2301 7.96333 8.15359
C 8.36569 7.32775 6.9398
C 6.89862 7.09807 6.7831
H 6.08675 8.57827 8.09583
H 6.27303 6.97773 8.93496
H 9.00398 8.40189 8.75891
H 9.25872 6.99863 6.3735
H 6.47667 7.67737 6.01323
H 6.61935 6.06098 6.59188
10
 Atoms. Timestep: 1720
C 6.67654 7.70188 8.16027
C 8.22589 7.93928 8.12507
C 8.40626 7.34277 6.96859
C 6.90987 7.08826 6.7395
H 6.09344 8.66542 8.20179
H 6.38625 7.038 8.89431
H 8.94582 8.28393 8.86572
H 9.35099 7.16617 6.41635
H 6.42752 7.6246 5.84516
H 6.60861 6.00871 6.70516
10
 Atoms. Timestep: 1740
C 6.71299 7.74196 8.0815
C 8.1829 7.90207 8.17324
C 8.43047 7.35678 6.94329
C 6.91686 7.08385 6.75156
H 6.0821 8.60731 8.27105
H 6.37796 7.01912 8.91258
H 8.80666 8.26818 9.02704
H 9.32293 7.25834 6.35331
H 6.44193 7.51616 5.86024
H 6.63308 6.0429 6.7673
10
 Atoms. Timestep: 1760
C 6.72536 7.74526 8.10462
C 8.19516 7.87773 8.20955
C 8.40778 7.40068 6.95654
C 6.95093 7.07403 6.72182
H 6.07555 8.64465 8.10504
H 6.23884 6.98163 8.83556
H 8.72571 8.27349 9.04994
H 9.25657 7.23988 6.28828
H 6.44667 7.51133 5.87993
H 6.70531 5.98277 6.77508
10
 Atoms. Timestep: 1780
C 6.64786 7.66536 8.09681
C 8.2175 7.88184 8.2283
C 8.39888 7.43572 6.9745
C 6.96446 7.08736 6.75256
H 6.18428 8.64956 7.92614
H 6.15004 7.0982 8.78155
H 8.86785 8.27694 9.00011
H 9.27122 7.23244 6.32077
H 6.45446 7.55044 5.86167
H 6.82397 5.99077 6.68577
10
 Atoms. Timestep: 1800
C 6.65435 7.66793 8.10723
C 8.17237 7.88253 8.24256
C 8.41983 7.44266 6.9834
C 6.98 7.05305 6.71195
H 6.14954 8.65555 7.92044
H 5.98557 7.13003 8.91298
H 8.96903 8.25325 8.93892
H 9.32868 7.34073 6.41177
H 6.48622 7.57039 5.86325
H 6.84563 5.99298 6.57074
10
 Atoms. Timestep: 1820
C 6.68053 7.68882 8.05285
C 8.15117 7.86574 8.22935
C 8.42914 7.43162 7.01057
C 6.97962 7.05717 6.72529
H 6.10479 8.59426 7.9988
H 6.13277 7.10463 8.84859
H 8.76717 8.26136 9.03011
H 9.35813 7.47282 6.4636
H 6.53875 7.55698 5.88273
H 6.77961 5.96979 6.55675
10
 Atoms. Timestep: 1840
C 6.65454 7.6885 8.06733
C 8.14093 7.88858 8.26532
C 8.4566 7.40402 7.00374
C 7.00207 7.06571 6.68094
H 6.06047 8.64164 8.02304
H 6.30713 6.96626 8.73102
H 8.5683 8.31229 9.16406
H 9.3987 7.44829 6.3948
H 6.5463 7.60004 5.78587
H 6.7182 5.97066 6.68622
10
 Atoms. Timestep: 1860
C 6.65326 7.64861 8.02415
C 8.11948 7.91255 8.23588
C 8.47788 7.42689 7.06073
C 7.01378 7.11748 6.68832
H 5.99389 8.53642 8.09284
H 6.20677 6.83744 8.73568
H 8.61274 8.32991 9.13179
H 9.33484 7.25317 6.43547
H 6.60895 7.53688 5.77477
H 6.78038 6.09299 6.66394
10
 Atoms. Timestep: 1880
C 6.62023 7.6348 8.07089
C 8.09392 7.95452 8.27036
C 8.45225 7.43123 7.04172
C 7.05934 7.12075 6.64845
H 5.90126 8.44085 8.10631
H 6.11288 6.85582 8.70078
H 8.79527 8.33763 9.03722
H 9.41782 7.11886 6.62074
H 6.65205 7.63285 5.75206
H 6.89028 5.98618 6.48334
10
 Atoms. Timestep: 1900
C 6.59337 7.60243 8.01288
C 8.12409 7.95182 8.24958
C 8.44577 7.44615 7.09616
C 7.03162 7.09361 6.67759
H 5.88664 8.46302 8.01793
H 6.24803 6.85037 8.65503
H 8.72447 8.36701 9.02822
H 9.45115 7.15649 6.77393
H 6.70174 7.75959 5.86965
H 6.94283 6.05949 6.32696
10
 Atoms. Timestep: 1920
C 6.62074 7.61936 8.01274
C 8.04758 7.96448 8.28942
C 8.50009 7.39118 7.10635
C 7.07299 7.08556 6.6227
H 5.86307 8.46569 7.96582
H 6.30398 6.73569 8.74176
H 8.54101 8.46775 9.14703
H 9.49261 7.27124 6.65345
H 6.67831 7.82576 5.89038
H 6.79661 6.09035 6.30334
10
 Atoms. Timestep: 1940
C 6.63769 7.57529 7.98233
C 8.0281 7.94936 8.26931
C 8.52394 7.37873 7.15822
C 7.10726 7.13782 6.63792
H 5.90113 8.31519 8.04163
H 6.20358 6.85893 8.6525
H 8.33618 8.52021 9.15632
H 9.43543 7.37935 6.57801
H 6.77767 7.77801 5.80757
H 6.68804 6.12115 6.36629
10
 Atoms. Timestep: 1960
C 6.56518 7.56309 8.00688
C 8.04402 7.93759 8.30861
C 8.50723 7.41397 7.14659
C 7.11795 7.12024 6.60294
H 5.83921 8.4632 8.01538
H 6.14488 6.73681 8.5864
H 8.42339 8.52884 9.11955
H 9.50724 7.42574 6.65798
H 6.95269 7.78838 5.74203
H 6.85032 6.06777 6.37753
10
 Atoms. Timestep: 1980
C 6.56202 7.58181 7.93746
C 8.01007 7.91383 8.34534
C 8.48558 7.48798 7.15159
C 7.117 7.09708 6.64762
H 5.87024 8.43602 7.92784
H 6.12238 6.68472 8.49931
H 8.6174 8.42707 9.10664
H 9.50641 7.38453 6.81142
H 6.88595 7.71978 5.76568
H 7.07364 6.08366 6.28605
10
 Atoms. Timestep: 2000
C 6.57085 7.58215 7.94395
C 7.98706 7.91391 8.34912
C 8.49021 7.53845 7.1851
C 7.19038 7.10288 6.5803
H 5.8446 8.35717 7.84775
H 6.04616 6.81582 8.49615
H 8.53665 8.24085 9.27234
H 9.49009 7.35428 6.84476
H 6.62965 7.65754 5.77562
H 7.14581 5.96999 6.30157
10
 Atoms. Timestep: 2020
C 6.57985 7.5273 7.89325
C 7.96869 7.92246 8.38942
C 8.53647 7.54906 7.1576
C 7.16752 7.12543 6.58863
H 5.8685 8.42442 7.76846
H 6.05127 6.8267 8.54449
H 8.24414 8.12213 9.41652
H 9.59647 7.43903 6.78563
H 6.71124 7.5811 5.7291
H 7.1372 6.08115 6.47145
10
 Atoms. Timestep: 2040
C 6.54575 7.56349 7.92048
C 7.94654 7.85486 8.34544
C 8.54398 7.58793 7.21025
C 7.19937 7.1153 6.5815
H 5.92141 8.45754 7.78158
H 6.05329 6.70999 8.52679
H 8.14463 8.11637 9.3618
H 9.52618 7.63426 6.77563
H 6.96964 7.57187 5.57544
H 7.09498 6.00045 6.52171
10
 Atoms. Timestep: 2060
C 6.53276 7.55897 7.85215
C 7.89463 7.8214 8.41424
C 8.51149 7.58465 7.19275
C 7.24827 7.1044 6.60476
H 5.87934 8.40938 7.88211
H 5.98699 6.81773 8.37443
H 8.38698 8.23492 9.35774
H 9.52385 7.80815 6.84722
H 7.08417 7.54391 5.60861
H 7.13976 5.98939 6.43545
10
 Atoms. Timestep: 2080
C 6.50596 7.51761 7.83337
C 7.95676 7.84641 8.43245
C 8.49352 7.59313 7.28955
C 7.27061 7.0854 6.54157
H 5.83468 8.48642 7.77662
H 5.82371 6.7487 8.27906
H 8.39074 8.26698 9.32691
H 9.49817 7.82022 6.8971
H 6.94836 7.60635 5.64456
H 7.26727 6.03604 6.38308
10
 Atoms. Timestep: 2100
C 6.52813 7.48474 7.82813
C 7.88014 7.87689 8.46845
C 8.54837 7.59116 7.25818
C 7.24759 7.12835 6.57531
H 6.00185 8.35118 7.55467
H 5.85681 6.69421 8.24964
H 8.22603 8.26621 9.41668
H 9.58563 7.70873 6.91777
H 6.87128 7.67332 5.66842
H 7.35703 6.03952 6.30132
10
 Atoms. Timestep: 2120
C 6.53942 7.47965 7.85425
C 7.84409 7.86278 8.39523