LAMMPS (2 Aug 2023 - Update 2)
#13 Butadiene
units           metal
boundary        p p p
atom_style      atomic

neighbor        2.0 bin
neigh_modify    delay 0 every 1 check yes

read_data       restart.lmp
Reading data file ...
  orthogonal box = (0 0 0) to (15 15 15)
  1 by 1 by 3 MPI processor grid
  reading atoms ...
  10 atoms
  reading velocities ...
  10 velocities
  read_data CPU = 0.001 seconds
mass            1 12.0
mass            2 2

variable        sysvol          equal vol
variable        sysmass         equal mass(all)/6.0221367e+23
variable        sysdensity      equal v_sysmass/v_sysvol/1.0e-24
variable	out_freq 	equal 100

pair_style      deepmd ../files/frozen_model_1_compressed.pb ../files/frozen_model_2_compressed.pb ../files/frozen_model_3_compressed.pb ../files/frozen_model_3_compressed.pb out_file md.out out_freq 10 atomic relative 1.0
Summary of lammps deepmd module ...
  >>> Info of deepmd-kit:
  installed to:       /rs1/researchers/w/wjpfaend/rahul/MLP/DeePMD-kit/deepmd_cpu
  source:             v2.2.8-dirty
  source branch:      master
  source commit:      b875ea8
  source commit at:   2024-01-22 22:28:58 -0500
  support model ver.: 1.1 
  build variant:      cpu
  build with tf inc:  /rs1/researchers/w/wjpfaend/rahul/MLP/DeePMD-kit/tensorflow/lib/python3.11/site-packages/tensorflow/include;/rs1/researchers/w/wjpfaend/rahul/MLP/DeePMD-kit/tensorflow/lib/python3.11/site-packages/tensorflow/include
  build with tf lib:  /rs1/researchers/w/wjpfaend/rahul/MLP/DeePMD-kit/tensorflow/lib/python3.11/site-packages/tensorflow/libtensorflow_cc.so.2
  set tf intra_op_parallelism_threads: 0
  set tf inter_op_parallelism_threads: 0
  >>> Info of lammps module:
  use deepmd-kit at:  /rs1/researchers/w/wjpfaend/rahul/MLP/DeePMD-kit/deepmd_cpu
  source:             v2.2.8-dirty
  source branch:      master
  source commit:      b875ea8
  source commit at:   2024-01-22 22:28:58 -0500
  build float prec:   double
  build with tf inc:  /rs1/researchers/w/wjpfaend/rahul/MLP/DeePMD-kit/tensorflow/lib/python3.11/site-packages/tensorflow/include;/rs1/researchers/w/wjpfaend/rahul/MLP/DeePMD-kit/tensorflow/lib/python3.11/site-packages/tensorflow/include
  build with tf lib:  /rs1/researchers/w/wjpfaend/rahul/MLP/DeePMD-kit/tensorflow/lib/python3.11/site-packages/tensorflow/libtensorflow_cc.so.2
pair_coeff	* *

#
velocity        all create 300.0 2345678 rot no dist gaussian
fix             1 all nvt temp 300.0 300.0 0.05
fix             2 all plumed plumedfile plumed.dat outfile PLUMED.log

timestep        0.0005
thermo_style    custom step pe ke etotal v_sysdensity temp press vol
thermo          10

dump            10 all custom 100 btd.dump id type x y z
dump		101 all xyz 20 btd.xyz
dump_modify	101 element C H

fix		extra all print 20 "$(step), $(ke), $(pe), $(etotal), $(temp), $(press), $(vol)" file logfile screen no

restart	        20000 dump.restart

run             50000

CITE-CITE-CITE-CITE-CITE-CITE-CITE-CITE-CITE-CITE-CITE-CITE-CITE

Your simulation uses code contributions which should be cited:

- USER-DEEPMD package:

@article{Wang_ComputPhysCommun_2018_v228_p178,
  author = {Wang, Han and Zhang, Linfeng and Han, Jiequn and E, Weinan},
  doi = {10.1016/j.cpc.2018.03.016},
  url = {https://doi.org/10.1016/j.cpc.2018.03.016},
  year = 2018,
  month = {jul},
  publisher = {Elsevier {BV}},
  volume = 228,
  journal = {Comput. Phys. Commun.},
  title = {{DeePMD-kit: A deep learning package for many-body potential energy representation and molecular dynamics}},
  pages = {178--184}
}
@misc{Zeng_JChemPhys_2023_v159_p054801,
  title  = {{DeePMD-kit v2: A software package for deep potential models}},
  author =   {Jinzhe Zeng and Duo Zhang and Denghui Lu and Pinghui Mo and Zeyu Li
         and Yixiao Chen and Mari{\'a}n Rynik and Li'ang Huang and Ziyao Li and 
         Shaochen Shi and Yingze Wang and Haotian Ye and Ping Tuo and Jiabin
         Yang and Ye Ding and Yifan Li and Davide Tisi and Qiyu Zeng and Han 
         Bao and Yu Xia and Jiameng Huang and Koki Muraoka and Yibo Wang and 
         Junhan Chang and Fengbo Yuan and Sigbj{\o}rn L{\o}land Bore and Chun
         Cai and Yinnian Lin and Bo Wang and Jiayan Xu and Jia-Xin Zhu and 
         Chenxing Luo and Yuzhi Zhang and Rhys E A Goodall and Wenshuo Liang
         and Anurag Kumar Singh and Sikai Yao and Jingchao Zhang and Renata
         Wentzcovitch and Jiequn Han and Jie Liu and Weile Jia and Darrin M
         York and Weinan E and Roberto Car and Linfeng Zhang and Han Wang},
  journal =  {J. Chem. Phys.},
  volume =   159,
  issue =    5,  
  year =    2023,
  pages  =   054801,
  doi =      {10.1063/5.0155600},
}

CITE-CITE-CITE-CITE-CITE-CITE-CITE-CITE-CITE-CITE-CITE-CITE-CITE

Generated 0 of 1 mixed pair_coeff terms from geometric mixing rule
Neighbor list info ...
  update: every = 1 steps, delay = 0 steps, check = yes
  max neighbors/atom: 2000, page size: 100000
  master list distance cutoff = 8
  ghost atom cutoff = 8
  binsize = 4, bins = 4 4 4
  1 neighbor lists, perpetual/occasional/extra = 1 0 0
  (1) pair deepmd, perpetual
      attributes: full, newton on
      pair build: full/bin/atomonly
      stencil: full/bin/3d
      bin: standard
Per MPI rank memory allocation (min/avg/max) = 2.957 | 2.999 | 3.082 Mbytes
   Step         PotEng         KinEng         TotEng      v_sysdensity       Temp          Press          Volume    
         0  -56.200531      0.34900239    -55.851528      0.029520714    300           -1235.5642      3375         
        10  -56.139152      0.40186453    -55.737287      0.029520714    345.43993     -551.15246      3375         
        20  -56.207206      0.46971616    -55.73749       0.029520714    403.76471      1263.0839      3375         
        30  -56.02654       0.27951249    -55.747027      0.029520714    240.26697      918.16938      3375         
        40  -56.171763      0.43726439    -55.734498      0.029520714    375.86939     -281.10972      3375         
        50  -56.09388       0.3428052     -55.751075      0.029520714    294.67294      160.8234       3375         
        60  -56.091928      0.33722377    -55.754704      0.029520714    289.87518     -359.9105       3375         
        70  -56.176996      0.40576409    -55.771232      0.029520714    348.79196     -1319.2568      3375         
        80  -56.128694      0.36755384    -55.76114       0.029520714    315.94669     -92.35996       3375         
        90  -56.160989      0.38619106    -55.774798      0.029520714    331.96712      1331.5745      3375         
       100  -56.269531      0.47952312    -55.790008      0.029520714    412.1947       789.64051      3375         
       110  -56.261368      0.43871527    -55.822653      0.029520714    377.11656     -683.09226      3375         
       120  -56.069656      0.25741408    -55.812241      0.029520714    221.27134     -631.3713       3375         
       130  -56.202499      0.35482878    -55.84767       0.029520714    305.00832      383.31046      3375         
       140  -56.207387      0.35022471    -55.857162      0.029520714    301.05069      14.052383      3375         
       150  -56.239939      0.34091986    -55.899019      0.029520714    293.05231     -770.09977      3375         
       160  -56.282497      0.38842794    -55.894069      0.029520714    333.88992      28.253418      3375         
       170  -56.211508      0.27707452    -55.934433      0.029520714    238.1713       1124.9616      3375         
       180  -56.131808      0.17965877    -55.95215       0.029520714    154.43342      475.84823      3375         
       190  -56.251598      0.27687908    -55.974719      0.029520714    238.00331     -1132.2002      3375         
       200  -56.267995      0.28904398    -55.978951      0.029520714    248.46017     -852.54787      3375         
       210  -56.227416      0.22636926    -56.001047      0.029520714    194.58542      1175.9973      3375         
       220  -56.307589      0.29264679    -56.014943      0.029520714    251.55712      835.45406      3375         
       230  -56.308359      0.27206974    -56.036289      0.029520714    233.86923     -1099.4188      3375         
       240  -56.285583      0.25326296    -56.03232       0.029520714    217.70306     -699.25551      3375         
       250  -56.339206      0.29203289    -56.047173      0.029520714    251.02941      805.47693      3375         
       260  -56.324011      0.27066996    -56.053341      0.029520714    232.66599      636.05074      3375         
       270  -56.279882      0.20649226    -56.073389      0.029520714    177.49929     -433.48147      3375         
       280  -56.254666      0.20715782    -56.047508      0.029520714    178.07141     -882.50694      3375         
       290  -56.315729      0.25264879    -56.06308       0.029520714    217.17513      407.86093      3375         
       300  -56.288699      0.2285204     -56.060178      0.029520714    196.43453      1108.2434      3375         
       310  -56.353035      0.28775502    -56.06528       0.029520714    247.35219     -774.29281      3375         
       320  -56.259126      0.20683212    -56.052294      0.029520714    177.79143     -1069.7577      3375         
       330  -56.217572      0.16808179    -56.04949       0.029520714    144.48192      1064.3777      3375         
       340  -56.250358      0.20244165    -56.047916      0.029520714    174.01742      1078.7725      3375         
       350  -56.33076       0.2772423     -56.053517      0.029520714    238.31553     -822.45106      3375         
       360  -56.27945       0.25945539    -56.019995      0.029520714    223.02602     -1198.3895      3375         
       370  -56.34845       0.32751846    -56.020932      0.029520714    281.53256     -4.6098507      3375         
       380  -56.269         0.26026762    -56.008733      0.029520714    223.72421      1094.4645      3375         
       390  -56.23042       0.21271335    -56.017707      0.029520714    182.8469       599.00144      3375         
       400  -56.303173      0.31888672    -55.984286      0.029520714    274.11278     -595.46588      3375         
       410  -56.305101      0.31854453    -55.986556      0.029520714    273.81864     -166.04643      3375         
       420  -56.226207      0.2466433     -55.979564      0.029520714    212.01284      304.24973      3375         
       430  -56.193888      0.21371073    -55.980177      0.029520714    183.70424     -741.40645      3375         
       440  -56.23886       0.27675443    -55.962105      0.029520714    237.89616     -673.21844      3375         
       450  -56.281325      0.32576007    -55.955565      0.029520714    280.02107      866.59996      3375         
       460  -56.269053      0.31740954    -55.951644      0.029520714    272.84301      1007.1829      3375         
       470  -56.235914      0.28323357    -55.95268       0.029520714    243.46559     -104.44195      3375         
       480  -56.119207      0.18452115    -55.934686      0.029520714    158.61309     -653.98266      3375         
       490  -56.243339      0.31109659    -55.932243      0.029520714    267.41644     -323.26223      3375         
       500  -56.27681       0.35400996    -55.9228        0.029520714    304.30447     -115.05795      3375         
       510  -56.28983       0.35936758    -55.930462      0.029520714    308.90985     -95.033077      3375         
       520  -56.167032      0.2720693     -55.894962      0.029520714    233.86886      373.90479      3375         
       530  -56.307368      0.40976218    -55.897606      0.029520714    352.22869      962.37097      3375         
       540  -56.21181       0.3212521     -55.890558      0.029520714    276.14605      123.66255      3375         
       550  -56.189447      0.29895431    -55.890493      0.029520714    256.97902     -1469.943       3375         
       560  -56.175746      0.30138002    -55.874366      0.029520714    259.06414     -921.91151      3375         
       570  -56.214139      0.34653754    -55.867601      0.029520714    297.88123      1114.4735      3375         
       580  -56.21645       0.35501613    -55.861434      0.029520714    305.16937      1299.0147      3375         
       590  -56.191472      0.33062593    -55.860846      0.029520714    284.20373     -306.83011      3375         
       600  -56.169664      0.32869241    -55.840972      0.029520714    282.54168     -909.39164      3375         
       610  -56.155754      0.32525991    -55.830494      0.029520714    279.59113      178.66589      3375         
       620  -56.161309      0.33570387    -55.825605      0.029520714    288.56869      285.42871      3375         
       630  -56.235667      0.41125502    -55.824412      0.029520714    353.51192     -872.48798      3375         
       640  -56.101969      0.3019331     -55.800036      0.029520714    259.53957     -471.20834      3375         
       650  -56.15556       0.36170741    -55.793852      0.029520714    310.92115      1375.2152      3375         
       660  -56.250254      0.46807258    -55.782182      0.029520714    402.3519       1253.1535      3375         
       670  -56.251689      0.46670044    -55.784988      0.029520714    401.17242     -863.7791       3375         
       680  -56.081165      0.3202511     -55.760914      0.029520714    275.28559     -1688.4459      3375         
       690  -56.197361      0.44059259    -55.756769      0.029520714    378.73029      49.139571      3375         
       700  -56.047706      0.29250873    -55.755197      0.029520714    251.43844      1509.7736      3375         
       710  -56.148048      0.3927951     -55.755253      0.029520714    337.6439       83.702861      3375         
       720  -56.16082       0.42278849    -55.738032      0.029520714    363.42601     -1108.6876      3375         
       730  -56.179345      0.44546098    -55.733884      0.029520714    382.91512      117.37964      3375         
       740  -56.009572      0.27976073    -55.729811      0.029520714    240.48036      913.66478      3375         
       750  -56.166028      0.42899954    -55.737028      0.029520714    368.76498     -124.76698      3375         
       760  -56.150846      0.43202741    -55.718818      0.029520714    371.36772     -793.1144       3375         
       770  -56.087031      0.37755627    -55.709475      0.029520714    324.54471     -69.157181      3375         
       780  -56.157935      0.44419824    -55.713737      0.029520714    381.82968      890.9324       3375         
       790  -56.160982      0.44265075    -55.718331      0.029520714    380.49947      256.48221      3375         
       800  -56.112915      0.404862      -55.708053      0.029520714    348.01653     -1157.6872      3375         
       810  -56.230402      0.51866138    -55.711741      0.029520714    445.83767     -320.7631       3375         
       820  -56.176537      0.45515521    -55.721382      0.029520714    391.24822      929.96161      3375         
       830  -56.055359      0.32004062    -55.735318      0.029520714    275.10466      453.12533      3375         
       840  -56.167732      0.42632681    -55.741405      0.029520714    366.46753     -354.9715       3375         
       850  -56.218852      0.4676244     -55.751228      0.029520714    401.96664     -521.43935      3375         
       860  -55.993175      0.22358906    -55.769585      0.029520714    192.19558     -140.70232      3375         
       870  -56.204698      0.41033015    -55.794368      0.029520714    352.71691      286.59905      3375         
       880  -56.222063      0.41780359    -55.80426       0.029520714    359.14103      321.63065      3375         
       890  -56.191262      0.36758508    -55.823677      0.029520714    315.97355      221.46108      3375         
       900  -56.168962      0.31645687    -55.852505      0.029520714    272.0241      -16.598815      3375         
       910  -56.26664       0.39167376    -55.874966      0.029520714    336.68001     -708.83144      3375         
       920  -56.121871      0.23354187    -55.888329      0.029520714    200.75095     -531.00758      3375         
       930  -56.305787      0.39918812    -55.906599      0.029520714    343.1393       596.75962      3375         
       940  -56.327674      0.39654658    -55.931128      0.029520714    340.86865      722.44326      3375         
       950  -56.224781      0.2706271     -55.954154      0.029520714    232.62915     -125.71641      3375         
       960  -56.26111       0.2977916     -55.963319      0.029520714    255.97957     -376.63829      3375         
       970  -56.246151      0.27473671    -55.971414      0.029520714    236.16174      211.45185      3375         
       980  -56.203047      0.21774507    -55.985302      0.029520714    187.17213      75.148992      3375         
       990  -56.29596       0.29577521    -56.000185      0.029520714    254.24629     -897.1048       3375         
      1000  -56.31607       0.31538107    -56.000689      0.029520714    271.09935     -601.24582      3375         
      1010  -56.210497      0.2067271     -56.00377       0.029520714    177.70116      1325.9522      3375         
      1020  -56.233943      0.22285776    -56.011085      0.029520714    191.56697      1410.2417      3375         
      1030  -56.337833      0.31690862    -56.020924      0.029520714    272.41242     -757.5436       3375         
      1040  -56.275708      0.2643038     -56.011404      0.029520714    227.19369     -1677.6286      3375         
      1050  -56.34022       0.3294067     -56.010813      0.029520714    283.15568     -195.03526      3375         
      1060  -56.204461      0.19021931    -56.014241      0.029520714    163.51118      1239.2162      3375         
      1070  -56.272154      0.25538804    -56.016766      0.029520714    219.52976      455.76895      3375         
      1080  -56.28997       0.28204335    -56.007927      0.029520714    242.44248     -668.38007      3375         
      1090  -56.375017      0.37784954    -55.997167      0.029520714    324.79681     -92.19689       3375         
      1100  -56.223053      0.22873757    -55.994315      0.029520714    196.62121      661.43949      3375         
      1110  -56.214955      0.21896062    -55.995994      0.029520714    188.217       -293.26533      3375         
      1120  -56.215243      0.23510816    -55.980135      0.029520714    202.09732     -1069.9825      3375         
      1130  -56.250601      0.29130577    -55.959295      0.029520714    250.40439      40.788103      3375         
      1140  -56.306006      0.35710481    -55.948901      0.029520714    306.96478      1444.0353      3375         
      1150  -56.286872      0.35533808    -55.931534      0.029520714    305.44611      665.12644      3375         
      1160  -56.121262      0.2121563     -55.909106      0.029520714    182.36807     -1100.5277      3375         
      1170  -56.115316      0.22534282    -55.889973      0.029520714    193.70311     -990.28936      3375         
      1180  -56.278636      0.40953815    -55.869098      0.029520714    352.03611      272.89566      3375         
      1190  -56.327718      0.48569498    -55.842023      0.029520714    417.49998      597.18588      3375         
      1200  -56.144537      0.33777039    -55.806767      0.029520714    290.34505     -106.45395      3375         
      1210  -56.14008       0.36657233    -55.773508      0.029520714    315.103       -19.624534      3375         
      1220  -56.034873      0.26756435    -55.767309      0.029520714    229.99643      504.14562      3375         
      1230  -56.230427      0.48079394    -55.749633      0.029520714    413.28709      40.534059      3375         
      1240  -56.223168      0.49241334    -55.730754      0.029520714    423.27504     -824.20841      3375         
      1250  -56.065964      0.35953381    -55.70643       0.029520714    309.05274     -260.97481      3375         
      1260  -55.960931      0.25227671    -55.708654      0.029520714    216.85528      705.74496      3375         
      1270  -56.251627      0.5451871     -55.70644       0.029520714    468.639        328.23086      3375         
      1280  -56.022609      0.31994971    -55.70266       0.029520714    275.02652     -465.20606      3375         
      1290  -56.229324      0.54787579    -55.681448      0.029520714    470.95018     -334.60218      3375         
      1300  -56.074328      0.37858182    -55.695746      0.029520714    325.42627      538.93921      3375         
      1310  -56.062746      0.36166778    -55.701078      0.029520714    310.88708      215.31288      3375         
      1320  -56.159117      0.45471588    -55.704401      0.029520714    390.87057     -502.23348      3375         
      1330  -56.193402      0.49892157    -55.694481      0.029520714    428.86947      11.440678      3375         
      1340  -56.012161      0.29894256    -55.713219      0.029520714    256.96892      479.51026      3375         
      1350  -56.237922      0.51390956    -55.724012      0.029520714    441.75304     -369.05137      3375         
      1360  -56.116092      0.38207007    -55.734022      0.029520714    328.42474     -630.72237      3375         
      1370  -56.100823      0.37311433    -55.727709      0.029520714    320.72646      313.90051      3375         
      1380  -56.211885      0.46264042    -55.749245      0.029520714    397.68245      961.29625      3375         
      1390  -56.087054      0.32783293    -55.759221      0.029520714    281.80288      16.076761      3375         
      1400  -56.104462      0.33163386    -55.772828      0.029520714    285.07013     -1258.9012      3375         
      1410  -56.226029      0.46288931    -55.763139      0.029520714    397.89639     -135.58582      3375         
      1420  -56.151378      0.36537187    -55.786006      0.029520714    314.07109      1197.114       3375         
      1430  -56.182095      0.38778379    -55.794311      0.029520714    333.33621      103.55978      3375         
      1440  -56.16878       0.35495591    -55.813824      0.029520714    305.1176      -876.10187      3375         
      1450  -56.150476      0.35020108    -55.800274      0.029520714    301.03038      80.54191       3375         
      1460  -56.231806      0.40856188    -55.823244      0.029520714    351.19691      712.34864      3375         
      1470  -56.32695       0.48798236    -55.838967      0.029520714    419.4662      -143.49267      3375         
      1480  -56.09017       0.24187117    -55.848299      0.029520714    207.91075     -1222.5807      3375         
      1490  -56.22318       0.37594375    -55.847236      0.029520714    323.1586      -209.25295      3375         
      1500  -56.210091      0.3463419     -55.86375       0.029520714    297.71306      1788.3624      3375         
      1510  -56.244014      0.36964621    -55.874368      0.029520714    317.74528      719.86586      3375         
      1520  -56.204204      0.31742721    -55.886776      0.029520714    272.85819     -1454.8976      3375         
      1530  -56.198198      0.31309854    -55.885099      0.029520714    269.1373      -916.24192      3375         
      1540  -56.174642      0.27853728    -55.896105      0.029520714    239.42868      504.9087       3375         
      1550  -56.228078      0.32401354    -55.904064      0.029520714    278.51976      632.01142      3375         
      1560  -56.252593      0.33691946    -55.915674      0.029520714    289.6136      -126.32832      3375         
      1570  -56.249903      0.3472478     -55.902655      0.029520714    298.49176     -346.318        3375         
      1580  -56.251828      0.33228514    -55.919543      0.029520714    285.62997      494.99103      3375         
      1590  -56.197414      0.27175295    -55.925661      0.029520714    233.59692      554.7882       3375         
      1600  -56.240474      0.30966049    -55.930813      0.029520714    266.18198     -854.35884      3375         
      1610  -56.241564      0.31465877    -55.926905      0.029520714    270.47846     -875.79123      3375         
      1620  -56.306224      0.36996542    -55.936259      0.029520714    318.01967      494.54974      3375         
      1630  -56.27321       0.3288625     -55.944347      0.029520714    282.68789      883.79204      3375         
      1640  -56.143843      0.19533639    -55.948507      0.029520714    167.90979      68.67994       3375         
      1650  -56.282242      0.33816457    -55.944077      0.029520714    290.68389     -563.48151      3375         
      1660  -56.22069       0.26873567    -55.951954      0.029520714    231.00329     -196.40529      3375         
      1670  -56.236407      0.27820822    -55.958199      0.029520714    239.14583      6.1598053      3375         
      1680  -56.24107       0.27361301    -55.967457      0.029520714    235.19582     -79.425217      3375         
      1690  -56.187095      0.22954161    -55.957554      0.029520714    197.31235      345.16314      3375         
      1700  -56.22295       0.25462353    -55.968327      0.029520714    218.8726       578.53074      3375         
      1710  -56.358679      0.38449276    -55.974187      0.029520714    330.50727     -193.84956      3375         
      1720  -56.214372      0.2355522     -55.97882       0.029520714    202.47902     -656.86303      3375         
      1730  -56.279918      0.31199322    -55.967925      0.029520714    268.18718     -206.28033      3375         
      1740  -56.263502      0.28525722    -55.978245      0.029520714    245.2051       311.2541       3375         
      1750  -56.169428      0.18831124    -55.981116      0.029520714    161.87102      237.76029      3375         
      1760  -56.29707       0.31797522    -55.979095      0.029520714    273.32926     -286.21429      3375         
      1770  -56.304957      0.33507139    -55.969886      0.029520714    288.02501      215.17625      3375         
      1780  -56.213789      0.24260203    -55.971187      0.029520714    208.539        731.0495       3375         
      1790  -56.236488      0.26618204    -55.970306      0.029520714    228.80821     -382.71244      3375         
      1800  -56.183643      0.21208119    -55.971562      0.029520714    182.3035      -1210.4156      3375         
      1810  -56.180536      0.23309295    -55.947443      0.029520714    200.36506      216.09765      3375         
      1820  -56.32949       0.38374115    -55.945749      0.029520714    329.86119      1197.8891      3375         
      1830  -56.268138      0.33285065    -55.935287      0.029520714    286.11608      66.247811      3375         
      1840  -56.140425      0.21283096    -55.927594      0.029520714    182.94799     -1068.9945      3375         
      1850  -56.267817      0.36644312    -55.901374      0.029520714    314.99193     -249.165        3375         
      1860  -56.199395      0.30402046    -55.895375      0.029520714    261.33385      1201.2066      3375         
      1870  -56.310203      0.42995585    -55.880247      0.029520714    369.58702      469.91916      3375         
      1880  -56.185708      0.32117465    -55.864533      0.029520714    276.07947     -1290.5871      3375         
      1890  -56.150581      0.31644578    -55.834136      0.029520714    272.01456     -686.86538      3375         
      1900  -56.139411      0.31028388    -55.829127      0.029520714    266.71784      1344.9761      3375         
      1910  -56.260209      0.4446313     -55.815578      0.029520714    382.20194      577.93854      3375         
      1920  -56.194025      0.39492132    -55.799104      0.029520714    339.47158     -1460.3656      3375         
      1930  -56.176215      0.40708194    -55.769133      0.029520714    349.92477     -567.12343      3375         
      1940  -56.050223      0.28534779    -55.764875      0.029520714    245.28295      1478.6171      3375         
      1950  -56.085135      0.33483379    -55.750302      0.029520714    287.82077      980.17334      3375         
      1960  -56.244884      0.49444847    -55.750435      0.029520714    425.02443     -1215.5359      3375         
      1970  -56.101837      0.39892101    -55.702916      0.029520714    342.90969     -1427.365       3375         
      1980  -56.190702      0.48120623    -55.709496      0.029520714    413.64149      644.43717      3375         
      1990  -56.138127      0.44110629    -55.69702       0.029520714    379.17186      1756.5007      3375         
      2000  -56.129514      0.42922692    -55.700287      0.029520714    368.96044     -344.41292      3375         
      2010  -56.141045      0.4707055     -55.67034       0.029520714    404.61514     -1454.4023      3375         
      2020  -56.091293      0.40909144    -55.682201      0.029520714    351.65212      99.324341      3375         
      2030  -56.115875      0.43826572    -55.677609      0.029520714    376.73013      769.13518      3375         
      2040  -56.134234      0.44209083    -55.692143      0.029520714    380.01817     -124.72806      3375         
      2050  -56.131204      0.45645576    -55.674748      0.029520714    392.36616     -394.02867      3375         
      2060  -56.080264      0.39287215    -55.687392      0.029520714    337.71014      475.47601      3375         
      2070  -56.137808      0.44159123    -55.696217      0.029520714    379.58872      686.42034      3375         
      2080  -56.035948      0.31726861    -55.71868       0.029520714    272.72186     -332.64068      3375         
      2090  -56.19072       0.48827092    -55.70245       0.029520714    419.71425     -1210.3726      3375         
      2100  -56.117304      0.38497161    -55.732333      0.029520714    330.91888     -258.17714      3375         
      2110  -56.096164      0.35330974    -55.742855      0.029520714    303.70256      631.82588      3375         
      2120  -56.221946      0.44681847    -55.775128      0.029520714    384.08201      599.96451      3375         
      2130  -56.165052      0.38655447    -55.778497      0.029520714    332.2795       422.55304      3375         
      2140  -56.197955      0.38435358    -55.813602      0.029520714    330.38763     -88.308543      3375         
      2150  -56.222067      0.38102219    -55.841045      0.029520714    327.524       -588.06211      3375         
      2160  -56.245614      0.37214112    -55.873473      0.029520714    319.88989     -814.69232      3375         
      2170  -56.137816      0.2462786     -55.891538      0.029520714    211.69935     -37.931063      3375         
      2180  -56.250913      0.33702546    -55.913888      0.029520714    289.70472      1102.4917      3375         
      2190  -56.174575      0.2408262     -55.933749      0.029520714    207.01251      601.23741      3375         
      2200  -56.311166      0.34902553    -55.96214       0.029520714    300.01989     -806.75148      3375         
      2210  -56.273533      0.30351849    -55.970015      0.029520714    260.90235     -465.00174      3375         
      2220  -56.160744      0.17868375    -55.982061      0.029520714    153.59529      295.62932      3375         
      2230  -56.261801      0.26665478    -55.995146      0.029520714    229.21458      111.88019      3375         
      2240  -56.284895      0.27752849    -56.007367      0.029520714    238.56154     -172.39639      3375         
      2250  -56.240701      0.24290826    -55.997792      0.029520714    208.80223     -29.446947      3375         
      2260  -56.350717      0.34334927    -56.007368      0.029520714    295.14061      652.49084      3375         
      2270  -56.277041      0.26536778    -56.011674      0.029520714    228.10828      417.53286      3375         
      2280  -56.188729      0.17394353    -56.014786      0.029520714    149.52064     -1143.7748      3375         
      2290  -56.338358      0.326871      -56.011487      0.029520714    280.97601     -1056.9829      3375         
      2300  -56.298309      0.2921219     -56.006187      0.029520714    251.10593      1025.4887      3375         
      2310  -56.210018      0.20353139    -56.006487      0.029520714    174.95415      1254.2416      3375         
      2320  -56.315773      0.30538182    -56.010391      0.029520714    262.50406     -367.52873      3375         
      2330  -56.185939      0.19116585    -55.994773      0.029520714    164.32482     -979.05374      3375         
      2340  -56.255639      0.26456819    -55.99107       0.029520714    227.42095     -75.394675      3375         
      2350  -56.328883      0.34241908    -55.986464      0.029520714    294.34103      779.7246       3375         
      2360  -56.251385      0.26646917    -55.984916      0.029520714    229.05502      11.639498      3375         
      2370  -56.133928      0.16543226    -55.968496      0.029520714    142.2044      -762.69772      3375         
      2380  -56.322833      0.35877338    -55.96406       0.029520714    308.39907      203.7988       3375         
      2390  -56.291691      0.33670225    -55.954989      0.029520714    289.42688      690.7853       3375         
      2400  -56.19287       0.24145188    -55.951418      0.029520714    207.55034     -293.65614      3375         
      2410  -56.250644      0.31657606    -55.934068      0.029520714    272.12656     -645.43068      3375         
      2420  -56.286802      0.36246863    -55.924334      0.029520714    311.57549      190.2802       3375         
      2430  -56.221424      0.30303932    -55.918385      0.029520714    260.49047      781.97995      3375         
      2440  -56.218633      0.30767313    -55.91096       0.029520714    264.47366      259.47023      3375         
      2450  -56.24215       0.34463313    -55.897517      0.029520714    296.24421     -811.71849      3375         
      2460  -56.124842      0.2329497     -55.891893      0.029520714    200.24192     -609.98623      3375         
      2470  -56.284665      0.4006794     -55.883985      0.029520714    344.42119      175.84176      3375         
      2480  -56.252113      0.37164011    -55.880473      0.029520714    319.45922      503.52825      3375         
      2490  -56.081473      0.21974765    -55.861725      0.029520714    188.89354      519.2532       3375         
      2500  -56.197764      0.34104208    -55.856722      0.029520714    293.15737      141.24267      3375         
      2510  -56.299486      0.44684912    -55.852636      0.029520714    384.10836     -626.18532      3375         
      2520  -56.175373      0.33027724    -55.845096      0.029520714    283.90399     -789.93979      3375         
      2530  -56.167682      0.33488933    -55.832793      0.029520714    287.86851      125.5741       3375         
      2540  -56.239824      0.40785295    -55.831971      0.029520714    350.58752      861.69045      3375         
      2550  -56.125121      0.29645487    -55.828666      0.029520714    254.83052      430.03857      3375         
      2560  -56.26352       0.43680679    -55.826713      0.029520714    375.47605     -508.4427       3375         
      2570  -56.225194      0.41483869    -55.810355      0.029520714    356.59241     -339.38317      3375         
      2580  -56.107955      0.29308623    -55.814869      0.029520714    251.93486      142.87733      3375         
      2590  -56.181405      0.36449062    -55.816915      0.029520714    313.31357     -347.5016       3375         
      2600  -56.184285      0.36806404    -55.816221      0.029520714    316.38526     -613.93574      3375         
      2610  -56.141602      0.34058613    -55.801016      0.029520714    292.76544      988.00245      3375         
      2620  -56.204808      0.39598391    -55.808824      0.029520714    340.38498      1695.8203      3375         
      2630  -56.21308       0.40545594    -55.807624      0.029520714    348.52707     -441.56774      3375         
      2640  -56.060629      0.24661758    -55.814012      0.029520714    211.99073     -2003.733       3375         
      2650  -56.271503      0.47422524    -55.797278      0.029520714    407.64068     -1035.7561      3375         
      2660  -56.208458      0.40226481    -55.806193      0.029520714    345.784        1144.4586      3375         
      2670  -56.102062      0.2919486     -55.810113      0.029520714    250.95696      1557.3331      3375         
      2680  -56.207875      0.39153546    -55.81634       0.029520714    336.56112     -273.50915      3375         
      2690  -56.2852        0.49027872    -55.794921      0.029520714    421.44014     -902.81782      3375         
      2700  -56.122603      0.30811221    -55.814491      0.029520714    264.85109      425.12096      3375         
      2710  -56.125602      0.3114954     -55.814107      0.029520714    267.75926      218.37843      3375         
      2720  -56.199716      0.37422793    -55.825488      0.029520714    321.68369     -1191.2452      3375         
      2730  -56.176644      0.3646693     -55.811975      0.029520714    313.46716     -290.46135      3375         
      2740  -56.230049      0.40838015    -55.821669      0.029520714    351.0407       1460.9295      3375         
      2750  -56.17499       0.34861037    -55.826379      0.029520714    299.66302      1033.8852      3375         
      2760  -56.097205      0.25616068    -55.841044      0.029520714    220.19391     -1044.22        3375         
      2770  -56.211459      0.39477655    -55.816683      0.029520714    339.34715     -1454.1449      3375         
      2780  -56.272289      0.43698553    -55.835304      0.029520714    375.62969      230.53295      3375         
      2790  -56.163019      0.3264302     -55.836588      0.029520714    280.5971       1101.0421      3375         
      2800  -56.140492      0.29232273    -55.848169      0.029520714    251.27856      218.48355      3375         
      2810  -56.262179      0.43023249    -55.831946      0.029520714    369.82482     -232.92786      3375         
      2820  -56.15088       0.30412582    -55.846754      0.029520714    261.42441      58.757549      3375         
      2830  -56.212934      0.36209714    -55.850837      0.029520714    311.25615     -101.95209      3375         
      2840  -56.233544      0.3750125     -55.858531      0.029520714    322.3581      -639.52468      3375         
      2850  -56.194141      0.347551      -55.84659       0.029520714    298.75239     -433.98436      3375         
      2860  -56.149047      0.29445881    -55.854588      0.029520714    253.11472      774.82186      3375         
      2870  -56.191693      0.33331641    -55.858377      0.029520714    286.51644      782.71858      3375         
      2880  -56.154346      0.28876765    -55.865578      0.029520714    248.22264     -475.72946      3375         
      2890  -56.213055      0.35755176    -55.855503      0.029520714    307.34898     -426.42482      3375         
      2900  -56.2918        0.43170495    -55.860095      0.029520714    371.09054      315.60349      3375         
      2910  -56.138655      0.27786801    -55.860787      0.029520714    238.85338     -17.537871      3375         
      2920  -56.152168      0.27572098    -55.876447      0.029520714    237.00781     -170.05845      3375         
      2930  -56.172223      0.32420617    -55.848017      0.029520714    278.68534     -6.0496706      3375         
      2940  -56.322065      0.46286514    -55.8592        0.029520714    397.87562      60.592059      3375         
      2950  -56.2026        0.34104288    -55.861557      0.029520714    293.15806      153.97994      3375         
      2960  -56.200153      0.33543573    -55.864717      0.029520714    288.33819     -505.0701       3375         
      2970  -56.150881      0.29203555    -55.858845      0.029520714    251.03171     -120.90461      3375         
      2980  -56.18614       0.326294      -55.859846      0.029520714    280.48002      1241.3755      3375         
      2990  -56.262644      0.40200795    -55.860637      0.029520714    345.56321      342.95331      3375         
      3000  -56.236959      0.36999566    -55.866964      0.029520714    318.04567     -1436.4007      3375         
      3010  -56.141681      0.28190896    -55.859772      0.029520714    242.32696     -736.62689      3375         
      3020  -56.113032      0.25806702    -55.854965      0.029520714    221.83259      829.9797       3375         
      3030  -56.233086      0.37652363    -55.856563      0.029520714    323.65706      837.9045       3375         
      3040  -56.285846      0.41595548    -55.86989       0.029520714    357.5524      -165.90876      3375         
      3050  -56.156919      0.31174099    -55.845178      0.029520714    267.97036     -820.4749       3375         
      3060  -56.141287      0.28619965    -55.855088      0.029520714    246.0152       315.57908      3375         
      3070  -56.217437      0.36538049    -55.852057      0.029520714    314.0785       867.14008      3375         
      3080  -56.286975      0.42677049    -55.860205      0.029520714    366.84891     -884.09295      3375         
      3090  -56.15208       0.30446118    -55.847619      0.029520714    261.71269     -1137.711       3375         
      3100  -56.257525      0.41048275    -55.847042      0.029520714    352.84808      1041.628       3375         
      3110  -56.105247      0.25555878    -55.849688      0.029520714    219.67653      1566.4041      3375         
      3120  -56.253266      0.39997208    -55.853294      0.029520714    343.81319     -494.39855      3375         
      3130  -56.222805      0.37442973    -55.848375      0.029520714    321.85716     -1738.7         3375         
      3140  -56.153953      0.31264616    -55.841307      0.029520714    268.74844     -560.58102      3375         
      3150  -56.105295      0.26035965    -55.844935      0.029520714    223.80332      1318.4815      3375         
      3160  -56.274658      0.42140491    -55.853253      0.029520714    362.2367       1110.7349      3375         
      3170  -56.199742      0.36280645    -55.836936      0.029520714    311.86587     -445.96103      3375         
      3180  -56.175322      0.34066152    -55.83466       0.029520714    292.83024     -566.13348      3375         
      3190  -56.220313      0.38167181    -55.838642      0.029520714    328.0824       134.76325      3375         
      3200  -56.153794      0.31456607    -55.839228      0.029520714    270.39878     -161.38435      3375         
      3210  -56.208751      0.37768697    -55.831064      0.029520714    324.65706     -782.41458      3375         
      3220  -56.282497      0.45406722    -55.82843       0.029520714    390.31299      34.122537      3375         
      3230  -56.166523      0.33766885    -55.828854      0.029520714    290.25777      1137.7378      3375         
      3240  -56.144863      0.31392778    -55.830935      0.029520714    269.85011      566.21798      3375         
      3250  -56.196531      0.3658426     -55.830689      0.029520714    314.47572     -609.24335      3375         
      3260  -56.173151      0.35306527    -55.820086      0.029520714    303.49242     -548.69062      3375         
      3270  -56.195362      0.37067771    -55.824684      0.029520714    318.63195     -246.44746      3375         
      3280  -56.258634      0.42458977    -55.834044      0.029520714    364.97438     -57.111053      3375         
      3290  -56.044985      0.2287293     -55.816255      0.029520714    196.6141       541.05355      3375         
      3300  -56.189124      0.36811422    -55.82101       0.029520714    316.42839      528.13626      3375         
      3310  -56.21867       0.39936095    -55.819309      0.029520714    343.28786     -82.002993      3375         
      3320  -56.253696      0.42886481    -55.824831      0.029520714    368.64917     -644.74963      3375         
      3330  -56.15666       0.34270841    -55.813952      0.029520714    294.58974     -559.6422       3375         
      3340  -56.147319      0.33073958    -55.816579      0.029520714    284.30141      501.24172      3375         
      3350  -56.149668      0.33253025    -55.817138      0.029520714    285.84066      999.17108      3375         
      3360  -56.298328      0.47723305    -55.821094      0.029520714    410.22618     -523.80668      3375         
      3370  -56.203706      0.38558307    -55.818123      0.029520714    331.44449     -901.0095       3375         
      3380  -56.110774      0.29704957    -55.813724      0.029520714    255.34172      780.31608      3375         
      3390  -56.197397      0.37488077    -55.822517      0.029520714    322.24487      450.68043      3375         
      3400  -56.179111      0.34470775    -55.834404      0.029520714    296.30836     -922.34902      3375         
      3410  -56.155551      0.33389099    -55.82166       0.029520714    287.01035     -486.80154      3375         
      3420  -56.253052      0.42568164    -55.82737       0.029520714    365.91294      709.61224      3375         
      3430  -56.142961      0.31074671    -55.832214      0.029520714    267.11569      881.06481      3375         
      3440  -56.159597      0.31006787    -55.84953       0.029520714    266.53216     -260.98754      3375         
      3450  -56.193476      0.3619829     -55.831493      0.029520714    311.15795     -1285.4051      3375         
      3460  -56.273766      0.42911967    -55.844646      0.029520714    368.86825      259.09864      3375         
      3470  -56.168723      0.31642923    -55.852294      0.029520714    272.00034      1541.894       3375         
      3480  -56.22241       0.36147306    -55.860937      0.029520714    310.7197      -571.15878      3375         
      3490  -56.180421      0.3137245     -55.866696      0.029520714    269.67538     -1466.8235      3375         
      3500  -56.230615      0.36345648    -55.867159      0.029520714    312.42463      342.21785      3375         
      3510  -56.192152      0.31176374    -55.880389      0.029520714    267.98992      1047.1474      3375         
      3520  -56.305163      0.40515577    -55.900007      0.029520714    348.26905      260.21723      3375         
      3530  -56.125711      0.22886462    -55.896847      0.029520714    196.73042     -546.11883      3375         
      3540  -56.178866      0.28512239    -55.893743      0.029520714    245.0892      -531.9518       3375         
      3550  -56.25642       0.34507719    -55.911343      0.029520714    296.62592      595.84147      3375         
      3560  -56.173835      0.24898709    -55.924847      0.029520714    214.02755      286.07576      3375         
      3570  -56.193249      0.27277882    -55.92047       0.029520714    234.47876     -1099.1098      3375         
      3580  -56.285271      0.35621046    -55.929061      0.029520714    306.19601     -92.919781      3375         
      3590  -56.228437      0.29121363    -55.937223      0.029520714    250.32519      1269.0911      3375         
      3600  -56.229163      0.28013692    -55.949027      0.029520714    240.80373      340.31249      3375         
      3610  -56.205374      0.25385596    -55.951518      0.029520714    218.21279     -825.30325      3375         
      3620  -56.241228      0.29618304    -55.945045      0.029520714    254.59686     -591.29271      3375         
      3630  -56.319072      0.36047937    -55.958593      0.029520714    309.86553      128.70974      3375         
      3640  -56.286001      0.31937381    -55.966628      0.029520714    274.53148      443.40739      3375         
      3650  -56.117517      0.14842012    -55.969097      0.029520714    127.58089      189.73244      3375         
      3660  -56.30547       0.34202809    -55.963442      0.029520714    294.00494      180.77904      3375         
      3670  -56.232411      0.26282375    -55.969587      0.029520714    225.92145      65.175595      3375         
      3680  -56.284538      0.30481445    -55.979723      0.029520714    262.01636     -510.04035      3375         
      3690  -56.237124      0.26966361    -55.96746       0.029520714    231.80094     -590.68572      3375         
      3700  -56.188741      0.22385858    -55.964882      0.029520714    192.42726      137.54999      3375         
      3710  -56.197821      0.23128329    -55.966538      0.029520714    198.80949      742.63796      3375         
      3720  -56.373596      0.41063272    -55.962964      0.029520714    352.977        341.87085      3375         
      3730  -56.25366       0.30338948    -55.95027       0.029520714    260.79146     -385.78883      3375         
      3740  -56.256639      0.31598487    -55.940654      0.029520714    271.61837      16.199122      3375         
      3750  -56.217731      0.2824351     -55.935296      0.029520714    242.77923      158.0296       3375         
      3760  -56.200061      0.27497671    -55.925084      0.029520714    236.36805     -979.0566       3375         
      3770  -56.35785       0.44607963    -55.91177       0.029520714    383.44691     -549.32535      3375         
      3780  -56.244461      0.3679638     -55.876498      0.029520714    316.29909      1231.0859      3375         
      3790  -56.059414      0.18988358    -55.86953       0.029520714    163.22259      970.1104       3375         
      3800  -56.290308      0.42801637    -55.862291      0.029520714    367.91986     -389.67194      3375         
      3810  -56.211061      0.39001719    -55.821044      0.029520714    335.25603     -1011.413       3375         
      3820  -56.138317      0.33959825    -55.798719      0.029520714    291.91627     -488.22038      3375         
      3830  -56.162332      0.3808184     -55.781513      0.029520714    327.34881      866.95977      3375         
      3840  -56.126686      0.36151877    -55.765167      0.029520714    310.75899      450.02478      3375         
      3850  -56.105411      0.37240759    -55.733003      0.029520714    320.11894     -931.78448      3375         
      3860  -56.263525      0.55224326    -55.711282      0.029520714    474.70442      272.31671      3375         
      3870  -56.098881      0.40650505    -55.692376      0.029520714    349.42888      1073.2064      3375         
      3880  -56.069095      0.38678049    -55.682314      0.029520714    332.47378     -708.96116      3375         
      3890  -56.137232      0.46484217    -55.67239       0.029520714    399.57506     -1110.9806      3375         
      3900  -56.180611      0.54171188    -55.6389        0.029520714    465.65172      274.96924      3375         
      3910  -56.070347      0.4217349     -55.648612      0.029520714    362.52035      1009.3916      3375         
      3920  -56.067056      0.41803711    -55.649019      0.029520714    359.34176      583.12975      3375         
      3930  -56.043164      0.40042886    -55.642735      0.029520714    344.20583     -831.913        3375         
      3940  -56.148679      0.50958611    -55.639093      0.029520714    438.03664     -841.13658      3375         
      3950  -56.076224      0.42867599    -55.647548      0.029520714    368.48687      598.4068       3375         
      3960  -56.128672      0.46504659    -55.663625      0.029520714    399.75078      513.66995      3375         
      3970  -56.041998      0.38234226    -55.659656      0.029520714    328.65871     -582.30854      3375         
      3980  -56.099103      0.42997502    -55.669128      0.029520714    369.6035      -141.45778      3375         
      3990  -56.13343       0.44792764    -55.685503      0.029520714    385.03545      393.9726       3375         
      4000  -56.111192      0.41131825    -55.699873      0.029520714    353.56627      25.719248      3375         
      4010  -56.185574      0.46139206    -55.724182      0.029520714    396.60937     -54.817114      3375         
      4020  -56.202154      0.46697294    -55.735181      0.029520714    401.40666      45.021058      3375         
      4030  -56.001181      0.24357992    -55.757601      0.029520714    209.37958      197.10141      3375         
      4040  -56.24241       0.45687328    -55.785536      0.029520714    392.72506     -64.830994      3375         
      4050  -56.22745       0.42445376    -55.802996      0.029520714    364.85747     -636.30667      3375         
      4060  -56.149578      0.3301869     -55.819391      0.029520714    283.82633     -333.12875      3375         
      4070  -56.174886      0.32644704    -55.848439      0.029520714    280.61158      662.73425      3375         
      4080  -56.212281      0.34211583    -55.870166      0.029520714    294.08036      511.6712       3375         
      4090  -56.107007      0.22769724    -55.87931       0.029520714    195.72694      6.6698237      3375         
      4100  -56.321392      0.42774403    -55.893648      0.029520714    367.68576     -6.9331795      3375         
      4110  -56.249963      0.33848719    -55.911476      0.029520714    290.96121     -187.02719      3375         
      4120  -56.162599      0.23557787    -55.927021      0.029520714    202.50108     -752.33053      3375         
      4130  -56.196407      0.26315454    -55.933253      0.029520714    226.20579     -490.60361      3375         
      4140  -56.249964      0.32316828    -55.926796      0.029520714    277.79318      894.10306      3375         
      4150  -56.277667      0.33831709    -55.93935       0.029520714    290.81499      1145.2079      3375         
      4160  -56.343774      0.39380865    -55.949965      0.029520714    338.51514     -444.7125       3375         
      4170  -56.135952      0.19103398    -55.944918      0.029520714    164.21146     -1182.5419      3375         
      4180  -56.173543      0.23090265    -55.94264       0.029520714    198.48229      126.36793      3375         
      4190  -56.331599      0.38630332    -55.945296      0.029520714    332.06361      708.30897      3375         
      4200  -56.301135      0.34905525    -55.95208       0.029520714    300.04544     -37.01126       3375         
      4210  -56.175692      0.23350868    -55.942183      0.029520714    200.72242     -498.37014      3375         
      4220  -56.224662      0.28800232    -55.93666       0.029520714    247.56477      252.64035      3375         
      4230  -56.154014      0.21526531    -55.938748      0.029520714    185.04054      926.39826      3375         
      4240  -56.325833      0.38743893    -55.938394      0.029520714    333.03978     -490.06275      3375         
      4250  -56.231795      0.29940204    -55.932393      0.029520714    257.36389     -1676.6021      3375         
      4260  -56.226352      0.30733576    -55.919016      0.029520714    264.18366      213.07386      3375         
      4270  -56.177347      0.2549697     -55.922377      0.029520714    219.17016      1976.5005      3375         
      4280  -56.307228      0.3863734     -55.920855      0.029520714    332.12386      463.84485      3375         
      4290  -56.232693      0.32012694    -55.912566      0.029520714    275.17886     -1282.8017      3375         
      4300  -56.236864      0.34522926    -55.891635      0.029520714    296.75664     -934.36293      3375         
      4310  -56.157645      0.26152195    -55.896123      0.029520714    224.80243      506.06701      3375         
      4320  -56.289025      0.39385572    -55.895169      0.029520714    338.5556       720.45083      3375         
      4330  -56.215857      0.33457036    -55.881287      0.029520714    287.59433     -693.75185      3375         
      4340  -56.165546      0.30052212    -55.865024      0.029520714    258.3267      -335.95527      3375         
      4350  -56.191799      0.32574138    -55.866058      0.029520714    280.005        1263.8339      3375         
      4360  -56.24274       0.38561069    -55.85713       0.029520714    331.46824      289.48003      3375         
      4370  -56.161852      0.30775493    -55.854097      0.029520714    264.54397     -1210.4276      3375         
      4380  -56.271966      0.45061484    -55.821351      0.029520714    387.34534     -357.6466       3375         
      4390  -56.065058      0.2410627     -55.823996      0.029520714    207.2158       620.49021      3375         
      4400  -56.234944      0.41635465    -55.818589      0.029520714    357.89552      490.84112      3375         
      4410  -56.192494      0.38749034    -55.805004      0.029520714    333.08397     -295.10079      3375         
      4420  -56.212874      0.43944241    -55.773431      0.029520714    377.7416      -599.60001      3375         
      4430  -56.15337       0.37726592    -55.776104      0.029520714    324.29513      286.32176      3375         
      4440  -56.180709      0.41108216    -55.769627      0.029520714    353.36334      388.23915      3375         
      4450  -56.016965      0.26008551    -55.75688       0.029520714    223.56767     -474.57852      3375         
      4460  -56.30069       0.5660994     -55.73459       0.029520714    486.61506      133.21162      3375         
      4470  -56.133126      0.40410651    -55.72902       0.029520714    347.36712      791.84979      3375         
      4480  -56.051324      0.32929534    -55.722029      0.029520714    283.05995     -459.69157      3375         
      4490  -56.089467      0.36841331    -55.721054      0.029520714    316.68549     -897.21154      3375         
      4500  -56.14195       0.45240498    -55.689545      0.029520714    388.88413      251.38785      3375         
      4510  -56.125919      0.43392641    -55.691993      0.029520714    373.00009      728.92593      3375         
      4520  -56.115018      0.43192746    -55.68309       0.029520714    371.28181      66.000063      3375         
      4530  -56.073277      0.39170562    -55.681572      0.029520714    336.7074      -693.48384      3375         
      4540  -56.106783      0.45389452    -55.652888      0.029520714    390.16453     -76.263651      3375         
      4550  -56.12347       0.46397413    -55.659496      0.029520714    398.8289       904.10635      3375         
      4560  -56.088327      0.42907645    -55.659251      0.029520714    368.8311       40.268747      3375         
      4570  -56.138908      0.48492618    -55.653982      0.029520714    416.83913     -1164.9         3375         
      4580  -56.045231      0.40454141    -55.640689      0.029520714    347.74095      240.82273      3375         
      4590  -56.044384      0.39112311    -55.653261      0.029520714    336.20667      1329.5674      3375         
      4600  -56.207439      0.54662378    -55.660816      0.029520714    469.87395     -363.27153      3375         
      4610  -55.967387      0.29151688    -55.67587       0.029520714    250.58586     -1715.1448      3375         
      4620  -56.159963      0.4841966     -55.675767      0.029520714    416.21199     -147.89617      3375         
      4630  -56.168833      0.46740123    -55.701432      0.029520714    401.77481      1956.2435      3375         
      4640  -56.118438      0.39764368    -55.720795      0.029520714    341.81171      869.10617      3375         
      4650  -56.076071      0.31682682    -55.759244      0.029520714    272.3421      -1412.1739      3375         
      4660  -56.246887      0.50316173    -55.743726      0.029520714    432.51429     -967.62515      3375         
      4670  -56.108873      0.31146779    -55.797405      0.029520714    267.73552      825.17457      3375         
      4680  -56.242861      0.42297488    -55.819886      0.029520714    363.58623      504.88716      3375         
      4690  -56.195245      0.34270293    -55.852542      0.029520714    294.58502     -989.8264       3375         
      4700  -56.19332       0.33420175    -55.859118      0.029520714    287.27747     -430.89886      3375         
      4710  -56.253117      0.35974482    -55.893372      0.029520714    309.23412      1449.052       3375         
      4720  -56.232188      0.3186179     -55.91357       0.029520714    273.88171      1021.3647      3375         
      4730  -56.228183      0.28847964    -55.939704      0.029520714    247.97507     -1560.6999      3375         
      4740  -56.242426      0.30873093    -55.933696      0.029520714    265.38294     -1563.7018      3375         
      4750  -56.266932      0.31094128    -55.95599       0.029520714    267.28294      1005.4263      3375         
      4760  -56.178502      0.21380453    -55.964698      0.029520714    183.78487      1515.5758      3375         
      4770  -56.285298      0.29873906    -55.986559      0.029520714    256.79399     -102.18986      3375         
      4780  -56.279844      0.31207668    -55.967767      0.029520714    268.25891     -942.80972      3375         
      4790  -56.246798      0.25786217    -55.988936      0.029520714    221.65651     -456.57207      3375         
      4800  -56.279377      0.28856418    -55.990812      0.029520714    248.04774      440.61567      3375         
      4810  -56.260175      0.25893069    -56.001244      0.029520714    222.575        217.36411      3375         
      4820  -56.245683      0.26008664    -55.985597      0.029520714    223.56865     -516.59598      3375         
      4830  -56.308054      0.31557851    -55.992475      0.029520714    271.26907      478.09031      3375         
      4840  -56.365479      0.37132287    -55.994156      0.029520714    319.18652      811.99882      3375         
      4850  -56.175241      0.17958501    -55.995656      0.029520714    154.37001     -642.60527      3375         
      4860  -56.21406       0.22408878    -55.989971      0.029520714    192.62514     -663.66419      3375         
      4870  -56.302343      0.31843157    -55.983912      0.029520714    273.72154      61.551987      3375         
      4880  -56.276453      0.29816863    -55.978285      0.029520714    256.30366     -25.326857      3375         
      4890  -56.300446      0.31628006    -55.984166      0.029520714    271.87211      466.97215      3375         
      4900  -56.222363      0.27211955    -55.950243      0.029520714    233.91205      313.49142      3375         
      4910  -56.144373      0.19156883    -55.952804      0.029520714    164.67122     -312.74928      3375         
      4920  -56.238504      0.29557633    -55.942928      0.029520714    254.07533      113.97646      3375         
      4930  -56.420574      0.49577507    -55.924799      0.029520714    426.16476     -502.66958      3375         
      4940  -56.140277      0.24447973    -55.895797      0.029520714    210.15306     -272.47218      3375         
      4950  -56.146158      0.262322      -55.883836      0.029520714    225.49014      1260.5871      3375         
      4960  -56.262511      0.39609543    -55.866415      0.029520714    340.48084      120.90812      3375         
      4970  -56.206853      0.35827699    -55.848576      0.029520714    307.97238     -1542.7159      3375         
      4980  -56.220917      0.41039672    -55.81052       0.029520714    352.77413     -156.59856      3375         
      4990  -56.229856      0.44520843    -55.784648      0.029520714    382.69803      1120.2118      3375         
      5000  -56.038022      0.27197106    -55.766051      0.029520714    233.78441      557.01924      3375         
      5010  -56.125547      0.35578194    -55.769765      0.029520714    305.82765     -569.51675      3375         
      5020  -56.220078      0.51174892    -55.708329      0.029520714    439.89577     -946.80625      3375         
      5030  -56.089577      0.37479993    -55.714777      0.029520714    322.17538      716.50393      3375         
      5040  -56.121868      0.42775797    -55.69411       0.029520714    367.69774      883.13811      3375         
      5050  -56.097194      0.40360762    -55.693586      0.029520714    346.93827     -1249.4371      3375         
      5060  -56.087439      0.4207647     -55.666675      0.029520714    361.68638     -753.39935      3375         
      5070  -56.135134      0.46628249    -55.668851      0.029520714    400.81315      1539.2189      3375         
      5080  -56.169202      0.50207948    -55.667123      0.029520714    431.58399      889.53383      3375         
      5090  -56.12033       0.4431702     -55.677159      0.029520714    380.94599     -1409.5933      3375         
      5100  -56.090518      0.42853221    -55.661986      0.029520714    368.36327     -1468.1398      3375         
      5110  -56.120707      0.44838557    -55.672321      0.029520714    385.42908      1122.5175      3375         
      5120  -56.096507      0.42406253    -55.672445      0.029520714    364.52117      1854.0507      3375         
      5130  -56.211305      0.50022319    -55.711082      0.029520714    429.98833     -580.37637      3375         
      5140  -56.017848      0.34117439    -55.676674      0.029520714    293.2711      -1431.9246      3375         
      5150  -56.098138      0.39114311    -55.706995      0.029520714    336.22387      72.342754      3375         
      5160  -56.130794      0.42318277    -55.707611      0.029520714    363.76493      829.08302      3375         
      5170  -56.161073      0.42553952    -55.735534      0.029520714    365.79078     -232.90463      3375         
      5180  -56.079774      0.36466669    -55.715107      0.029520714    313.46492     -829.77202      3375         
      5190  -56.167096      0.43039195    -55.736704      0.029520714    369.96189      504.30053      3375         
      5200  -56.110401      0.36422669    -55.746175      0.029520714    313.0867       1577.5936      3375         
      5210  -56.154681      0.39406189    -55.760619      0.029520714    338.73282     -503.7029       3375         
      5220  -56.148111      0.38316054    -55.764951      0.029520714    329.36211     -1727.2866      3375         
      5230  -56.200665      0.43138066    -55.769284      0.029520714    370.81178      165.04182      3375         
      5240  -56.151849      0.36777924    -55.78407       0.029520714    316.14045      873.91703      3375         
      5250  -56.178969      0.36825092    -55.810718      0.029520714    316.5459       186.97177      3375         
      5260  -56.203419      0.41306759    -55.790352      0.029520714    355.07        -83.113157      3375         
      5270  -56.18545       0.3717773     -55.813673      0.029520714    319.57715     -252.54629      3375         
      5280  -56.152664      0.33526258    -55.817401      0.029520714    288.18936     -97.183231      3375         
      5290  -56.191355      0.35091485    -55.84044       0.029520714    301.64394      79.809961      3375         
      5300  -56.132421      0.30627282    -55.826148      0.029520714    263.26996     -296.84789      3375         
      5310  -56.251886      0.40861962    -55.843266      0.029520714    351.24655      524.73685      3375         
      5320  -56.198545      0.34779937    -55.850746      0.029520714    298.96589      801.59439      3375         
      5330  -56.173036      0.31011679    -55.862919      0.029520714    266.57421     -1063.4631      3375         
      5340  -56.16757       0.30815382    -55.859416      0.029520714    264.88685     -870.42146      3375         
      5350  -56.280609      0.42053322    -55.860076      0.029520714    361.4874       970.62957      3375         
      5360  -56.207097      0.33528055    -55.871817      0.029520714    288.2048       279.34407      3375         
      5370  -56.236104      0.34188206    -55.894221      0.029520714    293.87941     -584.63267      3375         
      5380  -56.131474      0.26223376    -55.86924       0.029520714    225.4143       189.08131      3375         
      5390  -56.24956       0.35918847    -55.890372      0.029520714    308.75589      546.25942      3375         
      5400  -56.284949      0.3983324     -55.886616      0.029520714    342.40373      239.23703      3375         
      5410  -56.2011        0.28929841    -55.911801      0.029520714    248.67888     -833.74398      3375         
      5420  -56.147572      0.26090741    -55.886664      0.029520714    224.27418     -1190.8887      3375         
      5430  -56.219014      0.31719855    -55.901815      0.029520714    272.66164      1157.3206      3375         
      5440  -56.220035      0.31550178    -55.904534      0.029520714    271.20311      1663.614       3375         
      5450  -56.228704      0.31671223    -55.911992      0.029520714    272.24361     -1316.6571      3375         
      5460  -56.209571      0.30229697    -55.907274      0.029520714    259.85235     -1402.9426      3375         
      5470  -56.229442      0.3239932     -55.905449      0.029520714    278.50227      1057.7066      3375         
      5480  -56.21748       0.30818896    -55.909291      0.029520714    264.91706      962.51751      3375         
      5490  -56.262935      0.33407824    -55.928857      0.029520714    287.17131     -408.33321      3375         
      5500  -56.161722      0.26185901    -55.899863      0.029520714    225.09217     -806.92561      3375         
      5510  -56.319603      0.4105242     -55.909079      0.029520714    352.88371      43.520289      3375         
      5520  -56.202188      0.29497831    -55.90721       0.029520714    253.56128      1006.1433      3375         
      5530  -56.214353      0.29401165    -55.920341      0.029520714    252.73034     -369.19363      3375         
      5540  -56.18737       0.29071218    -55.896658      0.029520714    249.89414     -1404.2578      3375         
      5550  -56.252077      0.34950259    -55.902575      0.029520714    300.42996      698.24123      3375         
      5560  -56.166504      0.26896276    -55.897541      0.029520714    231.1985       1653.7141      3375         
      5570  -56.275434      0.38046595    -55.894968      0.029520714    327.04586     -362.62106      3375         
      5580  -56.190309      0.30585852    -55.884451      0.029520714    262.91383     -1375.3141      3375         
      5590  -56.089754      0.22450396    -55.86525       0.029520714    192.98202     -171.13538      3375         
      5600  -56.21177       0.3469714     -55.864798      0.029520714    298.25417      790.73841      3375         
      5610  -56.33088       0.47066942    -55.86021       0.029520714    404.58412      401.97844      3375         
      5620  -56.169643      0.34262464    -55.827018      0.029520714    294.51773     -617.77146      3375         
      5630  -56.176784      0.36129684    -55.815487      0.029520714    310.56822     -180.03207      3375         
      5640  -56.108856      0.30496884    -55.803887      0.029520714    262.14907      617.79861      3375         
      5650  -56.16691       0.36001503    -55.806895      0.029520714    309.46639      48.550316      3375         
      5660  -56.273176      0.50643039    -55.766746      0.029520714    435.324       -760.61854      3375         
      5670  -56.207017      0.44965662    -55.75736       0.029520714    386.52167     -163.94919      3375         
      5680  -55.963672      0.21373229    -55.74994       0.029520714    183.72277      1079.4339      3375         
      5690  -56.127331      0.38489277    -55.742439      0.029520714    330.85112      363.06557      3375         
      5700  -56.162044      0.43375748    -55.728287      0.029520714    372.85488     -978.70965      3375         
      5710  -56.216532      0.51099223    -55.70554       0.029520714    439.24532     -407.9519       3375         
      5720  -56.060774      0.35623017    -55.704544      0.029520714    306.21295      190.43129      3375         
      5730  -56.118013      0.41743147    -55.700582      0.029520714    358.82116     -107.33338      3375         
      5740  -56.049433      0.35868667    -55.690746      0.029520714    308.32454      707.69845      3375         
      5750  -56.262085      0.59102238    -55.671062      0.029520714    508.03868      627.38101      3375         
      5760  -56.05648       0.38185092    -55.674629      0.029520714    328.23636     -540.97722      3375         
      5770  -56.209556      0.52023333    -55.689322      0.029520714    447.18891     -520.60043      3375         
      5780  -56.096856      0.42936547    -55.667491      0.029520714    369.07954     -450.88038      3375         
      5790  -56.032634      0.35116588    -55.681468      0.029520714    301.85972      20.319388      3375         
      5800  -56.111657      0.42240275    -55.689254      0.029520714    363.09443      1002.1442      3375         
      5810  -56.237207      0.53954653    -55.69766       0.029520714    463.7904      -177.11247      3375         
      5820  -56.099428      0.3889607     -55.710467      0.029520714    334.34788     -761.25737      3375         
      5830  -56.093002      0.37284814    -55.720154      0.029520714    320.49764      859.62308      3375         
      5840  -56.120655      0.38409109    -55.736563      0.029520714    330.162        276.93137      3375         
      5850  -56.135486      0.37775563    -55.75773       0.029520714    324.71609     -1079.741       3375         
      5860  -56.233711      0.45795451    -55.775757      0.029520714    393.65448     -243.59324      3375         
      5870  -56.224317      0.43783888    -55.786478      0.029520714    376.36322      742.45595      3375         
      5880  -56.077439      0.26490031    -55.812538      0.029520714    227.70644      793.74612      3375         
      5890  -56.212582      0.36708556    -55.845496      0.029520714    315.54416     -100.59327      3375         
      5900  -56.238737      0.38576036    -55.852977      0.029520714    331.59689     -1624.6842      3375         
      5910  -56.240651      0.36074791    -55.879903      0.029520714    310.09637     -377.22727      3375         
      5920  -56.161667      0.25735759    -55.904309      0.029520714    221.22278      1870.1719      3375         
      5930  -56.293392      0.36783271    -55.92556       0.029520714    316.18641      329.18435      3375         
      5940  -56.197104      0.25705031    -55.940054      0.029520714    220.95863     -1230.2988      3375         
      5950  -56.239116      0.29713079    -55.941985      0.029520714    255.41154     -45.065029      3375         
      5960  -56.254706      0.28974496    -55.964961      0.029520714    249.06273      593.26126      3375         
      5970  -56.272001      0.29757211    -55.974429      0.029520714    255.79089     -144.82618      3375         
      5980  -56.207003      0.22035287    -55.98665       0.029520714    189.41378     -538.98501      3375         
      5990  -56.297522      0.3222154     -55.975306      0.029520714    276.97409     -114.62966      3375         
      6000  -56.252347      0.26294918    -55.989397      0.029520714    226.02926      876.36648      3375         
      6010  -56.299857      0.29426762    -56.005589      0.029520714    252.95038      573.5255       3375         
      6020  -56.238311      0.24936467    -55.988946      0.029520714    214.35212     -1176.9392      3375         
      6030  -56.260114      0.26886674    -55.991247      0.029520714    231.11596     -629.10439      3375         
      6040  -56.321582      0.32634108    -55.995241      0.029520714    280.52049      969.07767      3375         
      6050  -56.31866       0.32254163    -55.996118      0.029520714    277.25451      427.55715      3375         
      6060  -56.17869       0.18711935    -55.991571      0.029520714    160.84648     -425.48811      3375         
      6070  -56.294095      0.31062111    -55.983473      0.029520714    267.00772     -100.478        3375         
      6080  -56.244491      0.26091401    -55.983577      0.029520714    224.27985     -4.7762126      3375         
      6090  -56.318097      0.33754844    -55.980549      0.029520714    290.15426     -302.98399      3375         
      6100  -56.257264      0.28232924    -55.974935      0.029520714    242.68823     -217.43696      3375         
      6110  -56.201894      0.25237185    -55.949522      0.029520714    216.93706      445.33116      3375         
      6120  -56.149442      0.19500315    -55.954439      0.029520714    167.62333      889.12961      3375         
      6130  -56.406243      0.45324393    -55.952999      0.029520714    389.60529     -206.07156      3375         
      6140  -56.222748      0.29848982    -55.924258      0.029520714    256.57975     -1152.6159      3375         
      6150  -56.18814       0.26835705    -55.919783      0.029520714    230.67783     -56.921337      3375         
      6160  -56.206443      0.29660562    -55.909837      0.029520714    254.9601       783.32589      3375         
      6170  -56.312765      0.40425522    -55.90851       0.029520714    347.49495     -43.318638      3375         
      6180  -56.155965      0.26586653    -55.890099      0.029520714    228.537       -426.43832      3375         
      6190  -56.316546      0.44810875    -55.868438      0.029520714    385.19113      258.30627      3375         
      6200  -56.166588      0.2970775     -55.869511      0.029520714    255.36573      586.28741      3375         
      6210  -56.170275      0.30324211    -55.867033      0.029520714    260.66478     -581.75626      3375         
      6220  -56.168645      0.31058463    -55.858061      0.029520714    266.97636     -1035.6279      3375         
      6230  -56.270512      0.43513751    -55.835375      0.029520714    374.04115      918.67785      3375         
      6240  -56.159076      0.31812462    -55.840952      0.029520714    273.45769      1374.8313      3375         
      6250  -56.238331      0.39201752    -55.846313      0.029520714    336.9755      -658.29005      3375         
      6260  -56.082797      0.25069896    -55.832098      0.029520714    215.49906     -1483.509       3375         
      6270  -56.192271      0.37005431    -55.822217      0.029520714    318.09608     -131.36587      3375         
      6280  -56.238179      0.41133983    -55.826839      0.029520714    353.58482      1310.91        3375         
      6290  -56.271815      0.43692448    -55.83489       0.029520714    375.57721      575.62992      3375         
      6300  -56.0888        0.26239937    -55.826401      0.029520714    225.55665     -1295.5668      3375         
      6310  -56.287924      0.47180872    -55.816115      0.029520714    405.56345     -1.6029787      3375         
      6320  -56.082306      0.25336621    -55.82894       0.029520714    217.79181      1567.8978      3375         
      6330  -56.20917       0.38203964    -55.82713       0.029520714    328.39859     -748.65078      3375         
      6340  -56.2162        0.37694317    -55.839257      0.029520714    324.0177      -1799.3851      3375         
      6350  -56.245767      0.43826196    -55.807505      0.029520714    376.7269       533.0176       3375         
      6360  -56.018245      0.18868737    -55.829557      0.029520714    162.19434      1672.3731      3375         
[...]
     48420  -55.982128      0.36389063    -55.618237      0.029520714    312.79783     -358.74226      3375         
     48430  -56.096263      0.50716026    -55.589103      0.029520714    435.95139     -134.70125      3375         
     48440  -56.121608      0.56733249    -55.554276      0.029520714    487.67501      94.834952      3375         
     48450  -56.028599      0.51051775    -55.518081      0.029520714    438.83746      546.49897      3375         
     48460  -56.173708      0.67797618    -55.495732      0.029520714    582.78355      153.84108      3375         
     48470  -56.125058      0.6463581     -55.4787        0.029520714    555.60488     -448.97325      3375         
     48480  -55.837102      0.38728763    -55.449814      0.029520714    332.90972     -92.616634      3375         
     48490  -56.018392      0.5603958     -55.457996      0.029520714    481.71229      116.50546      3375         
     48500  -56.148694      0.69194783    -55.456746      0.029520714    594.79348     -415.27876      3375         
     48510  -56.05733       0.5898045     -55.467525      0.029520714    506.99179     -515.99806      3375         
     48520  -55.908785      0.43964068    -55.469144      0.029520714    377.91204      580.26672      3375         
     48530  -55.830167      0.33882248    -55.491345      0.029520714    291.24942      1530.3828      3375         
     48540  -56.066215      0.54799389    -55.518221      0.029520714    471.05169      14.846308      3375         
     48550  -56.072465      0.51087967    -55.561585      0.029520714    439.14857     -2042.3694      3375         
     48560  -55.998264      0.41886522    -55.579399      0.029520714    360.05359     -656.41662      3375         
     48570  -56.06842       0.4278157     -55.640604      0.029520714    367.74736      1553.6933      3375         
     48580  -56.201076      0.51447482    -55.686601      0.029520714    442.23894      884.65811      3375         
     48590  -56.135229      0.38181209    -55.753417      0.029520714    328.20299     -727.00887      3375         
     48600  -56.208676      0.43340411    -55.775272      0.029520714    372.55112     -640.06502      3375         
     48610  -56.186823      0.35890858    -55.827914      0.029520714    308.51529      224.95244      3375         
     48620  -56.192401      0.34063376    -55.851767      0.029520714    292.80638      467.4436       3375         
     48630  -56.196682      0.31936687    -55.877315      0.029520714    274.52552     -500.86735      3375         
     48640  -56.146765      0.27022293    -55.876543      0.029520714    232.28173     -483.25172      3375         
     48650  -56.179589      0.28841325    -55.891176      0.029520714    247.918        1212.518       3375         
     48660  -56.290026      0.38825439    -55.901772      0.029520714    333.74074      670.29941      3375         
     48670  -56.162804      0.25141066    -55.911393      0.029520714    216.11083     -1467.7852      3375         
     48680  -56.128159      0.22455169    -55.903608      0.029520714    193.02305     -857.04688      3375         
     48690  -56.221692      0.30910456    -55.912588      0.029520714    265.7041       972.61892      3375         
     48700  -56.256248      0.34233813    -55.91391       0.029520714    294.27144      806.56912      3375         
     48710  -56.22752       0.30302469    -55.924495      0.029520714    260.47789     -137.50294      3375         
     48720  -56.247045      0.346475      -55.90057       0.029520714    297.82747     -576.27891      3375         
     48730  -56.228217      0.3109443     -55.917273      0.029520714    267.28554     -77.110669      3375         
     48740  -56.26516       0.34337377    -55.921786      0.029520714    295.16168      412.22448      3375         
     48750  -56.19925       0.28340598    -55.915844      0.029520714    243.61379     -494.08957      3375         
     48760  -56.263392      0.35680196    -55.90659       0.029520714    306.70446     -358.03805      3375         
     48770  -56.179208      0.26666076    -55.912547      0.029520714    229.21971      1166.9655      3375         
     48780  -56.24284       0.33016891    -55.912671      0.029520714    283.81087      206.24025      3375         
     48790  -56.125397      0.21235947    -55.913038      0.029520714    182.5427      -1169.6692      3375         
     48800  -56.224221      0.32505959    -55.899162      0.029520714    279.41894     -55.250927      3375         
     48810  -56.254871      0.35679311    -55.898078      0.029520714    306.69685      531.28469      3375         
     48820  -56.209333      0.31283006    -55.896503      0.029520714    268.90651      86.58185       3375         
     48830  -56.062048      0.16427219    -55.897776      0.029520714    141.20721      68.923606      3375         
     48840  -56.299064      0.43602601    -55.863038      0.029520714    374.80489      14.879061      3375         
     48850  -56.287155      0.41817841    -55.868976      0.029520714    359.46322      29.85236       3375         
     48860  -56.16675       0.30339406    -55.863356      0.029520714    260.7954      -274.51718      3375         
     48870  -56.164376      0.31734027    -55.847036      0.029520714    272.78346     -946.58846      3375         
     48880  -56.244199      0.41168035    -55.832519      0.029520714    353.87753      602.38261      3375         
     48890  -56.214348      0.38999066    -55.824358      0.029520714    335.23323      1602.797       3375         
     48900  -56.246606      0.42889169    -55.817714      0.029520714    368.67228     -371.37703      3375         
     48910  -56.076139      0.26746308    -55.808676      0.029520714    229.90938     -1671.1409      3375         
     48920  -56.153146      0.36867833    -55.784468      0.029520714    316.9133      -92.908966      3375         
     48930  -56.179851      0.39591823    -55.783933      0.029520714    340.32852      1323.3412      3375         
     48940  -56.151476      0.38282735    -55.768648      0.029520714    329.0757       200.26106      3375         
     48950  -56.047442      0.27608546    -55.771357      0.029520714    237.32112     -1069.1542      3375         
     48960  -56.286935      0.56476351    -55.722171      0.029520714    485.46674     -70.151587      3375         
     48970  -56.088818      0.35945282    -55.729365      0.029520714    308.98311      1369.3029      3375         
     48980  -56.12107       0.40384151    -55.717229      0.029520714    347.13932     -65.32922       3375         
     48990  -56.152026      0.44746607    -55.70456       0.029520714    384.63868     -1643.7419      3375         
     49000  -56.221066      0.547355      -55.673711      0.029520714    470.50251     -456.53922      3375         
     49010  -56.110355      0.43568841    -55.674667      0.029520714    374.51469      1728.5093      3375         
     49020  -56.170319      0.49888276    -55.671436      0.029520714    428.83611      1058.5336      3375         
     49030  -56.070332      0.40372826    -55.666604      0.029520714    347.04197     -1390.2893      3375         
     49040  -56.128592      0.47163893    -55.656953      0.029520714    405.4175      -1238.4507      3375         
     49050  -56.15673       0.49610252    -55.660627      0.029520714    426.44623      836.45709      3375         
     49060  -56.019868      0.35748135    -55.662387      0.029520714    307.28845      766.44875      3375         
     49070  -56.001683      0.31641468    -55.685268      0.029520714    271.98784     -349.83685      3375         
     49080  -56.146825      0.49567519    -55.65115       0.029520714    426.0789      -270.04451      3375         
     49090  -56.109916      0.42763399    -55.682282      0.029520714    367.59117      42.32784       3375         
     49100  -56.108783      0.41852658    -55.690257      0.029520714    359.76251      589.57466      3375         
     49110  -56.195057      0.48049811    -55.714559      0.029520714    413.0328      -273.11799      3375         
     49120  -56.102156      0.38397445    -55.718181      0.029520714    330.06174     -1073.463       3375         
     49130  -56.145664      0.39239794    -55.753266      0.029520714    337.30251      498.13417      3375         
     49140  -56.241974      0.4616502     -55.780324      0.029520714    396.83126      1286.6581      3375         
     49150  -56.216519      0.39357118    -55.822948      0.029520714    338.31102     -651.28699      3375         
     49160  -56.253337      0.40241383    -55.850923      0.029520714    345.9121      -983.44078      3375         
     49170  -56.147714      0.27343467    -55.874279      0.029520714    235.04251      461.15488      3375         
     49180  -56.121323      0.22367095    -55.897652      0.029520714    192.26598      393.02019      3375         
     49190  -56.338521      0.39749761    -55.941024      0.029520714    341.68615      69.462946      3375         
     49200  -56.271624      0.33963369    -55.93199       0.029520714    291.94673     -225.58072      3375         
     49210  -56.138587      0.17463204    -55.963955      0.029520714    150.11248     -151.01051      3375         
     49220  -56.169924      0.20355688    -55.966367      0.029520714    174.97606      435.64383      3375         
     49230  -56.384673      0.39573104    -55.988942      0.029520714    340.16762     -120.30054      3375         
     49240  -56.257001      0.27646       -55.980541      0.029520714    237.64307     -827.70779      3375         
     49250  -56.291245      0.29773115    -55.993513      0.029520714    255.9276       464.97518      3375         
     49260  -56.268255      0.26822596    -56.000029      0.029520714    230.56515      885.09805      3375         
     49270  -56.290556      0.28420385    -56.006352      0.029520714    244.29963     -549.17459      3375         
     49280  -56.25573       0.24860076    -56.007129      0.029520714    213.69547     -605.80802      3375         
     49290  -56.363861      0.3646245     -55.999236      0.029520714    313.42865      316.60566      3375         
     49300  -56.224024      0.21925713    -56.004767      0.029520714    188.47188      284.6571       3375         
     49310  -56.285414      0.26838343    -56.01703       0.029520714    230.70051     -107.69305      3375         
     49320  -56.240547      0.24581895    -55.994728      0.029520714    211.30424     -236.40101      3375         
     49330  -56.227856      0.23377904    -55.994077      0.029520714    200.95481      186.43339      3375         
     49340  -56.246364      0.25683566    -55.989528      0.029520714    220.77413      598.80378      3375         
     49350  -56.357504      0.3620826     -55.995422      0.029520714    311.24366     -583.6073       3375         
     49360  -56.166728      0.20176767    -55.96496       0.029520714    173.43807     -1087.6015      3375         
     49370  -56.245287      0.2807956     -55.964492      0.029520714    241.36993      886.06716      3375         
     49380  -56.260355      0.30610947    -55.954245      0.029520714    263.12954      1440.4951      3375         
     49390  -56.329296      0.38784329    -55.941453      0.029520714    333.38736     -880.42802      3375         
     49400  -56.2461        0.3187283     -55.927371      0.029520714    273.97661     -1400.4013      3375         
     49410  -56.228389      0.33282573    -55.895564      0.029520714    286.09465      619.0617       3375         
     49420  -56.149628      0.25697059    -55.892657      0.029520714    220.89011      1121.0077      3375         
     49430  -56.341658      0.44918807    -55.89247       0.029520714    386.1189      -376.12023      3375         
     49440  -56.131306      0.2846297     -55.846676      0.029520714    244.66569     -1212.3014      3375         
     49450  -56.231901      0.39771814    -55.834183      0.029520714    341.87572      338.9852       3375         
     49460  -56.118449      0.30080337    -55.817646      0.029520714    258.56846      1490.3461      3375         
     49470  -56.214861      0.39363247    -55.821228      0.029520714    338.3637      -170.16823      3375         
     49480  -56.065176      0.28343643    -55.78174       0.029520714    243.63996     -1746.0331      3375         
     49490  -56.277744      0.50480041    -55.772943      0.029520714    433.92288     -158.90762      3375         
     49500  -56.154632      0.39537651    -55.759255      0.029520714    339.86287      1867.7479      3375         
     49510  -56.145874      0.39375891    -55.752115      0.029520714    338.47239      367.09561      3375         
     49520  -56.10735       0.36252404    -55.744826      0.029520714    311.62311     -1747.3822      3375         
     49530  -56.249314      0.53467198    -55.714642      0.029520714    459.60027     -320.54802      3375         
     49540  -56.224195      0.49735777    -55.726837      0.029520714    427.52524      1097.2359      3375         
     49550  -56.172154      0.44025148    -55.731903      0.029520714    378.43708      127.76374      3375         
     49560  -56.005377      0.28149037    -55.723886      0.029520714    241.96714     -502.26871      3375         
     49570  -56.219214      0.50356624    -55.715647      0.029520714    432.86199     -63.297264      3375         
     49580  -56.151573      0.43221266    -55.71936       0.029520714    371.52697      409.99593      3375         
     49590  -56.185996      0.43375008    -55.752246      0.029520714    372.84852      253.5088       3375         
     49600  -55.988794      0.27002495    -55.718769      0.029520714    232.11154     -839.58651      3375         
     49610  -56.148184      0.41359173    -55.734593      0.029520714    355.52054     -287.86694      3375         
     49620  -56.123791      0.38460874    -55.739182      0.029520714    330.60696      1310.7651      3375         
     49630  -56.237748      0.4895861     -55.748162      0.029520714    420.84477     -310.20281      3375         
     49640  -56.068534      0.31857041    -55.749963      0.029520714    273.84089     -1006.4952      3375         
     49650  -56.216465      0.46786621    -55.748599      0.029520714    402.1745       889.652        3375         
     49660  -56.166079      0.40340422    -55.762675      0.029520714    346.76343      335.27478      3375         
     49670  -56.209992      0.42928212    -55.78071       0.029520714    369.00789     -994.35986      3375         
     49680  -56.160069      0.3886708     -55.771399      0.029520714    334.09869      31.372187      3375         
     49690  -56.260699      0.48041515    -55.780283      0.029520714    412.96149      595.85404      3375         
     49700  -56.127233      0.33716124    -55.790072      0.029520714    289.82143      228.66559      3375         
     49710  -56.113397      0.29484422    -55.818553      0.029520714    253.44602     -359.52349      3375         
     49720  -56.124503      0.33129207    -55.793211      0.029520714    284.77633     -992.77452      3375         
     49730  -56.275675      0.45895702    -55.816718      0.029520714    394.51623      610.71914      3375         
     49740  -56.158992      0.33475768    -55.824235      0.029520714    287.75535      1388.6111      3375         
     49750  -56.093262      0.25815844    -55.835103      0.029520714    221.91117     -686.94158      3375         
     49760  -56.136975      0.30307883    -55.833896      0.029520714    260.52443     -1127.6306      3375         
     49770  -56.281481      0.45043283    -55.831048      0.029520714    387.18889      759.56984      3375         
     49780  -56.218827      0.37176192    -55.847065      0.029520714    319.56393      421.93165      3375         
     49790  -56.227057      0.36774956    -55.859307      0.029520714    316.11493     -730.02732      3375         
     49800  -56.165766      0.30538919    -55.860377      0.029520714    262.5104      -422.0216       3375         
     49810  -56.247281      0.38942852    -55.857853      0.029520714    334.75001      754.97628      3375         
     49820  -56.18623       0.31755657    -55.868673      0.029520714    272.96939      1033.5437      3375         
     49830  -56.296486      0.40173388    -55.894752      0.029520714    345.32762     -485.51994      3375         
     49840  -56.180875      0.30286621    -55.878009      0.029520714    260.34166     -1662.2163      3375         
     49850  -56.161846      0.27123076    -55.890615      0.029520714    233.14806      20.671496      3375         
     49860  -56.135531      0.23643323    -55.899098      0.029520714    203.23634      1694.0685      3375         
     49870  -56.298593      0.39297093    -55.905622      0.029520714    337.79505      191.30078      3375         
     49880  -56.216166      0.30639846    -55.909767      0.029520714    263.37796     -1012.446       3375         
     49890  -56.216492      0.30561654    -55.910875      0.029520714    262.70583     -219.43463      3375         
     49900  -56.157514      0.23819468    -55.919319      0.029520714    204.75047      577.12206      3375         
     49910  -56.231806      0.3081298     -55.923676      0.029520714    264.86621      3.8374916      3375         
     49920  -56.353814      0.41891364    -55.9349        0.029520714    360.09521     -522.51971      3375         
     49930  -56.301417      0.37936172    -55.922056      0.029520714    326.09666     -44.385922      3375         
     49940  -56.138444      0.1989077     -55.939536      0.029520714    170.97966      698.94793      3375         
     49950  -56.236213      0.28299469    -55.953218      0.029520714    243.26024      520.2401       3375         
     49960  -56.340352      0.39250121    -55.94785       0.029520714    337.39128     -792.63844      3375         
     49970  -56.227883      0.26826084    -55.959622      0.029520714    230.59513     -1009.6404      3375         
     49980  -56.211103      0.24112436    -55.969979      0.029520714    207.2688       399.13675      3375         
     49990  -56.269562      0.29229861    -55.977264      0.029520714    251.25783      1073.2714      3375         
     50000  -56.242849      0.25610251    -55.986747      0.029520714    220.14391     -17.120487      3375         
Loop time of 81.9768 on 3 procs for 50000 steps with 10 atoms

Performance: 26.349 ns/day, 0.911 hours/ns, 609.928 timesteps/s, 6.099 katom-step/s
168.0% CPU use with 3 MPI tasks x no OpenMP threads

MPI task timing breakdown:
Section |  min time  |  avg time  |  max time  |%varavg| %total
---------------------------------------------------------------
Pair    | 27.027     | 44.257     | 78.29      | 361.8 | 53.99
Neigh   | 0.00065267 | 0.00082497 | 0.001161   |   0.0 |  0.00
Comm    | 1.0252     | 34.982     | 52.205     | 406.0 | 42.67
Output  | 0.49659    | 0.51425    | 0.54561    |   3.1 |  0.63
Modify  | 1.9142     | 1.993      | 2.0832     |   4.9 |  2.43
Other   |            | 0.23       |            |       |  0.28

Nlocal:        3.33333 ave          10 max           0 min
Histogram: 2 0 0 0 0 0 0 0 0 1
Nghost:             88 ave         112 max          52 min
Histogram: 1 0 0 0 0 0 0 0 1 1
Neighs:              0 ave           0 max           0 min
Histogram: 3 0 0 0 0 0 0 0 0 0
FullNghs:           30 ave          90 max           0 min
Histogram: 2 0 0 0 0 0 0 0 0 1

Total # of neighbors = 90
Ave neighs/atom = 9
Neighbor list builds = 126
Dangerous builds = 0

write_data	restart.data
System init for write_data ...
Generated 0 of 1 mixed pair_coeff terms from geometric mixing rule
#
Total wall time: 0:01:23
