LAMMPS data file via write_data, version 2 Aug 2023, timestep = 50000, units = metal

10 atoms
2 atom types

0 15 xlo xhi
0 15 ylo yhi
0 15 zlo zhi

Masses

1 12
2 2

Atoms # atomic

10 2 5.84808066807495 6.276891788203474 7.542232462925969 0 0 0
4 1 6.547220127088455 7.173315905204913 7.257449306763197 0 0 0
7 2 9.431188685280269 8.247589356534169 7.7614849766001335 0 0 0
8 2 8.338575983482679 6.511408404301712 5.787441921083275 0 0 0
9 2 5.893708642901679 7.897470837643821 6.703730500442152 0 0 0
1 1 7.260435765495746 7.955027736498372 8.374395000554708 0 0 0
3 1 7.93276848552079 7.016648570998953 6.666467423957123 0 0 0
2 1 8.48357337841709 7.830786231410341 7.555561151817163 0 0 0
6 2 7.356769178175564 7.444400691331029 9.396452160013096 0 0 0
5 2 6.911690303741473 8.98756825887413 8.57442067889025 0 0 0

Velocities

10 6.092322744401749 0.5897405220243327 -7.878654395603784
4 -1.8886496201885976 0.7866931876064251 -5.547028576480378
7 19.022232208776774 2.7256087831854345 0.9254413879916233
8 2.3827337465803535 6.043331222996309 -12.604381995448877
9 -11.228608293576674 0.5893855249978719 -10.228784144688388
1 -4.359893955362176 -2.075642497247374 4.860916149538727
3 1.1753330077648951 -4.2046263224051925 5.30333348008791
2 -0.2510960250029391 5.710579134393889 1.2228511381313858
6 4.193144570471759 -1.1169440053733775 10.07118634149099
5 11.484014580077718 -10.133143061917968 -15.325240341408772
