ITEM: TIMESTEP
0
ITEM: NUMBER OF ATOMS
10
ITEM: BOX BOUNDS pp pp pp
0.0000000000000000e+00 1.5000000000000000e+01
0.0000000000000000e+00 1.5000000000000000e+01
0.0000000000000000e+00 1.5000000000000000e+01
ITEM: ATOMS id type x y z
10 2 5.51945 7.21034 8.85257
4 1 6.39981 7.5585 8.2249
7 2 8.48821 8.0376 5.85843
8 2 5.94003 7.08281 6.16935
9 2 7.14704 8.07424 8.77993
1 1 8.83624 7.40317 7.85217
3 1 6.64235 7.45021 6.93382
2 1 8.06475 7.64843 6.77587
6 2 8.48263 6.8539 8.76873
5 2 9.88778 7.59933 7.73943
ITEM: TIMESTEP
100
ITEM: NUMBER OF ATOMS
10
ITEM: BOX BOUNDS pp pp pp
0.0000000000000000e+00 1.5000000000000000e+01
0.0000000000000000e+00 1.5000000000000000e+01
0.0000000000000000e+00 1.5000000000000000e+01
ITEM: ATOMS id type x y z
10 2 5.44971 7.3222 8.62307
4 1 6.38093 7.59272 8.10818
7 2 8.63272 8.27425 6.05249
8 2 6.1214 7.05853 6.05168
9 2 7.01776 8.25786 8.72823
1 1 8.74902 7.33386 7.95447
3 1 6.69514 7.39651 6.86975
2 1 8.12541 7.6753 6.8212
6 2 8.44483 6.54194 8.58595
5 2 9.75463 7.77484 8.32592
ITEM: TIMESTEP
200
ITEM: NUMBER OF ATOMS
10
ITEM: BOX BOUNDS pp pp pp
0.0000000000000000e+00 1.5000000000000000e+01
0.0000000000000000e+00 1.5000000000000000e+01
0.0000000000000000e+00 1.5000000000000000e+01
ITEM: ATOMS id type x y z
10 2 5.27404 7.19221 8.28429
4 1 6.30173 7.54132 8.08841
7 2 8.83539 7.9488 5.9958
8 2 6.19181 7.16372 5.95848
9 2 6.78977 8.04557 8.88583
1 1 8.69076 7.37715 8.03746
3 1 6.82182 7.47581 6.82432
2 1 8.21777 7.69497 6.83131
6 2 8.14616 6.72856 8.74852
5 2 9.69434 7.60562 8.32705
ITEM: TIMESTEP
300
ITEM: NUMBER OF ATOMS
10
ITEM: BOX BOUNDS pp pp pp
0.0000000000000000e+00 1.5000000000000000e+01
0.0000000000000000e+00 1.5000000000000000e+01
0.0000000000000000e+00 1.5000000000000000e+01
ITEM: ATOMS id type x y z
10 2 5.24251 7.27477 8.14789
4 1 6.28525 7.58344 8.01659
7 2 8.92286 8.24926 6.10734
8 2 6.37664 6.88831 5.97102
9 2 6.65987 8.26797 8.85236
1 1 8.60659 7.31718 8.11636
3 1 6.88817 7.41923 6.77857
2 1 8.26572 7.76389 6.87363
6 2 8.05408 6.52762 8.55379
5 2 9.59369 7.50957 8.54573
ITEM: TIMESTEP
400
ITEM: NUMBER OF ATOMS
10
ITEM: BOX BOUNDS pp pp pp
0.0000000000000000e+00 1.5000000000000000e+01
0.0000000000000000e+00 1.5000000000000000e+01
0.0000000000000000e+00 1.5000000000000000e+01
ITEM: ATOMS id type x y z
10 2 5.17451 7.31085 7.9241
4 1 6.28152 7.51632 7.9087
7 2 8.99721 8.05336 6.21217
8 2 6.48437 7.33248 5.72907
9 2 6.68197 7.93267 8.78072
1 1 8.57509 7.39313 8.23752
3 1 6.88524 7.48607 6.7237
2 1 8.29145 7.66452 6.91751
6 2 8.02302 6.65554 8.85487
5 2 9.56307 7.57485 8.66351
ITEM: TIMESTEP
500
ITEM: NUMBER OF ATOMS
10
ITEM: BOX BOUNDS pp pp pp
0.0000000000000000e+00 1.5000000000000000e+01
0.0000000000000000e+00 1.5000000000000000e+01
0.0000000000000000e+00 1.5000000000000000e+01
ITEM: ATOMS id type x y z
10 2 5.26018 7.26774 8.04015
4 1 6.22479 7.56348 7.77816
7 2 8.98353 8.35526 6.44687
8 2 6.61477 7.12113 5.60747
9 2 6.62336 8.2483 8.59533
1 1 8.52987 7.29344 8.33736
3 1 6.97405 7.45361 6.60766
2 1 8.29598 7.72267 7.05672
6 2 7.99233 6.44639 8.73366
5 2 9.50169 7.58197 8.78614
ITEM: TIMESTEP
600
ITEM: NUMBER OF ATOMS
10
ITEM: BOX BOUNDS pp pp pp
0.0000000000000000e+00 1.5000000000000000e+01
0.0000000000000000e+00 1.5000000000000000e+01
0.0000000000000000e+00 1.5000000000000000e+01
ITEM: ATOMS id type x y z
10 2 5.10772 7.26129 7.45197
4 1 6.18058 7.54803 7.65683
7 2 9.15577 8.07635 6.56227
8 2 6.81387 7.40037 5.58219
9 2 6.47212 7.89469 8.56109
1 1 8.49025 7.34601 8.37781
3 1 7.02942 7.48252 6.6288
2 1 8.34755 7.6905 7.14326
6 2 7.87647 6.65843 8.93118
5 2 9.41129 7.52648 8.96013
ITEM: TIMESTEP
700
ITEM: NUMBER OF ATOMS
10
ITEM: BOX BOUNDS pp pp pp
0.0000000000000000e+00 1.5000000000000000e+01
0.0000000000000000e+00 1.5000000000000000e+01
0.0000000000000000e+00 1.5000000000000000e+01
ITEM: ATOMS id type x y z
10 2 5.10959 7.22182 7.29404
4 1 6.15927 7.58929 7.49944
7 2 9.30108 8.15225 6.62482
8 2 6.94181 7.09093 5.63202
9 2 6.09275 8.11023 8.5574
1 1 8.38113 7.27933 8.44908
3 1 7.1429 7.46611 6.66572
2 1 8.44808 7.78087 7.20833
6 2 7.70391 6.47263 8.65297
5 2 9.18662 7.47855 9.19225
ITEM: TIMESTEP
800
ITEM: NUMBER OF ATOMS
10
ITEM: BOX BOUNDS pp pp pp
0.0000000000000000e+00 1.5000000000000000e+01
0.0000000000000000e+00 1.5000000000000000e+01
0.0000000000000000e+00 1.5000000000000000e+01
ITEM: ATOMS id type x y z
10 2 5.23922 7.15048 7.02932
4 1 6.16138 7.55953 7.42202
7 2 9.43336 8.14347 6.94929
8 2 7.23389 7.26315 5.53441
9 2 6.23749 8.08366 8.2721
1 1 8.25174 7.27978 8.55949
3 1 7.21225 7.50076 6.56357
2 1 8.45537 7.75596 7.28927
6 2 7.50036 6.48778 8.74372
5 2 8.99523 7.51527 9.35405
ITEM: TIMESTEP
900
ITEM: NUMBER OF ATOMS
10
ITEM: BOX BOUNDS pp pp pp
0.0000000000000000e+00 1.5000000000000000e+01
0.0000000000000000e+00 1.5000000000000000e+01
0.0000000000000000e+00 1.5000000000000000e+01
ITEM: ATOMS id type x y z
10 2 5.1971 7.42675 6.92022
4 1 6.21194 7.48942 7.26556
7 2 9.3652 8.23644 7.13987
8 2 7.38197 7.4001 5.32607
9 2 6.20189 8.00466 8.29197
1 1 8.12243 7.28586 8.63732
3 1 7.32726 7.53164 6.48055
2 1 8.4567 7.69899 7.41686
6 2 7.42027 6.57604 8.9687
5 2 8.84756 7.54054 9.44044
ITEM: TIMESTEP
1000
ITEM: NUMBER OF ATOMS
10
ITEM: BOX BOUNDS pp pp pp
0.0000000000000000e+00 1.5000000000000000e+01
0.0000000000000000e+00 1.5000000000000000e+01
0.0000000000000000e+00 1.5000000000000000e+01
ITEM: ATOMS id type x y z
10 2 5.26113 7.30957 6.66131
4 1 6.24794 7.53464 7.20795
7 2 9.32326 8.3345 7.33251
8 2 7.53659 7.16736 5.5199
9 2 6.22576 8.18965 8.02068
1 1 8.0675 7.236 8.67879
3 1 7.41487 7.52933 6.48806
2 1 8.411 7.75447 7.46879
6 2 7.2568 6.46402 8.73621
5 2 8.67258 7.4283 9.55686
ITEM: TIMESTEP
1100
ITEM: NUMBER OF ATOMS
10
ITEM: BOX BOUNDS pp pp pp
0.0000000000000000e+00 1.5000000000000000e+01
0.0000000000000000e+00 1.5000000000000000e+01
0.0000000000000000e+00 1.5000000000000000e+01
ITEM: ATOMS id type x y z
10 2 5.38296 7.27865 6.51185
4 1 6.25548 7.51579 7.08027
7 2 9.51555 8.08654 7.32348
8 2 7.64097 7.40451 5.44815
9 2 5.91108 7.95556 8.04889
1 1 7.97696 7.26081 8.69169
3 1 7.46669 7.5635 6.55644
2 1 8.48843 7.72495 7.5111
6 2 7.15373 6.62099 8.80682
5 2 8.3943 7.48339 9.71281
ITEM: TIMESTEP
1200
ITEM: NUMBER OF ATOMS
10
ITEM: BOX BOUNDS pp pp pp
0.0000000000000000e+00 1.5000000000000000e+01
0.0000000000000000e+00 1.5000000000000000e+01
0.0000000000000000e+00 1.5000000000000000e+01
ITEM: ATOMS id type x y z
10 2 5.48665 7.25107 6.37279
4 1 6.28115 7.62258 7.0002
7 2 9.31469 8.35517 7.60689
8 2 7.81652 7.16963 5.58048
9 2 6.01945 8.1375 7.86227
1 1 7.89373 7.22126 8.67781
3 1 7.56879 7.47687 6.58019
2 1 8.44432 7.7619 7.62229
6 2 7.21479 6.3347 8.48947
5 2 8.14396 7.47629 9.69413
ITEM: TIMESTEP
1300
ITEM: NUMBER OF ATOMS
10
ITEM: BOX BOUNDS pp pp pp
0.0000000000000000e+00 1.5000000000000000e+01
0.0000000000000000e+00 1.5000000000000000e+01
0.0000000000000000e+00 1.5000000000000000e+01
ITEM: ATOMS id type x y z
10 2 5.52252 7.09913 6.11705
4 1 6.34604 7.53917 6.80925
7 2 9.45518 8.11665 7.81592
8 2 8.08555 7.60822 5.49449
9 2 5.95539 7.84683 7.86047
1 1 7.726 7.27087 8.78441
3 1 7.67337 7.58532 6.49964
2 1 8.43268 7.69939 7.71735
6 2 6.8575 6.69675 8.88104
5 2 8.17934 7.28387 9.85614
ITEM: TIMESTEP
1400
ITEM: NUMBER OF ATOMS
10
ITEM: BOX BOUNDS pp pp pp
0.0000000000000000e+00 1.5000000000000000e+01
0.0000000000000000e+00 1.5000000000000000e+01
0.0000000000000000e+00 1.5000000000000000e+01
ITEM: ATOMS id type x y z
10 2 5.71825 7.31729 5.98273
4 1 6.46328 7.59954 6.75318
7 2 9.11328 8.51082 8.00494
8 2 8.22264 7.29363 5.54236
9 2 6.12038 8.08715 7.5832
1 1 7.57927 7.21127 8.80928
3 1 7.75173 7.51526 6.50938
2 1 8.39965 7.71514 7.84476
6 2 7.00223 6.31172 8.46385
5 2 7.78365 7.4521 9.81227
ITEM: TIMESTEP
1500
ITEM: NUMBER OF ATOMS
10
ITEM: BOX BOUNDS pp pp pp
0.0000000000000000e+00 1.5000000000000000e+01
0.0000000000000000e+00 1.5000000000000000e+01
0.0000000000000000e+00 1.5000000000000000e+01
ITEM: ATOMS id type x y z
10 2 5.95968 7.25245 5.76007
4 1 6.49665 7.52646 6.63612
7 2 9.34858 8.21809 8.19463
8 2 8.43474 7.46352 5.61148
9 2 5.8691 7.94444 7.46849
1 1 7.46565 7.25269 8.79034
3 1 7.84138 7.60975 6.53958
2 1 8.40414 7.69067 7.91991
6 2 6.71191 6.56271 8.61036
5 2 7.55312 7.30137 9.92827
ITEM: TIMESTEP
1600
ITEM: NUMBER OF ATOMS
10
ITEM: BOX BOUNDS pp pp pp
0.0000000000000000e+00 1.5000000000000000e+01
0.0000000000000000e+00 1.5000000000000000e+01
0.0000000000000000e+00 1.5000000000000000e+01
ITEM: ATOMS id type x y z
10 2 6.07087 7.19749 5.58239
4 1 6.54805 7.57594 6.56462
7 2 9.22071 8.26455 8.32975
8 2 8.49649 7.23886 5.79761
9 2 5.90197 8.05819 7.28083
1 1 7.38628 7.19692 8.75165
3 1 7.92917 7.5751 6.65123
2 1 8.35042 7.75689 8.00108
6 2 6.69074 6.44163 8.24934
5 2 7.45971 7.39012 9.8376
ITEM: TIMESTEP
1700
ITEM: NUMBER OF ATOMS
10
ITEM: BOX BOUNDS pp pp pp
0.0000000000000000e+00 1.5000000000000000e+01
0.0000000000000000e+00 1.5000000000000000e+01
0.0000000000000000e+00 1.5000000000000000e+01
ITEM: ATOMS id type x y z
10 2 6.26987 7.36543 5.50918
4 1 6.66637 7.58814 6.48786
7 2 9.12295 8.29623 8.5276
8 2 8.74912 7.38245 5.89151
9 2 5.88879 7.94391 7.18192
1 1 7.29186 7.1859 8.74463
3 1 7.97047 7.54687 6.66804
2 1 8.29652 7.73739 8.0179
6 2 6.59397 6.49928 8.48951
5 2 7.14794 7.38294 9.7787
ITEM: TIMESTEP
1800
ITEM: NUMBER OF ATOMS
10
ITEM: BOX BOUNDS pp pp pp
0.0000000000000000e+00 1.5000000000000000e+01
0.0000000000000000e+00 1.5000000000000000e+01
0.0000000000000000e+00 1.5000000000000000e+01
ITEM: ATOMS id type x y z
10 2 6.30712 7.23607 5.50319
4 1 6.78619 7.56326 6.41967
7 2 8.99877 8.2228 8.59045
8 2 8.8571 7.47499 5.97158
9 2 6.08362 7.99615 7.08517
1 1 7.15947 7.18397 8.74159
3 1 8.0961 7.61237 6.70252
2 1 8.18358 7.69926 8.0773
6 2 6.4047 6.46233 8.28956
5 2 7.12068 7.47444 9.80259
ITEM: TIMESTEP
1900
ITEM: NUMBER OF ATOMS
10
ITEM: BOX BOUNDS pp pp pp
0.0000000000000000e+00 1.5000000000000000e+01
0.0000000000000000e+00 1.5000000000000000e+01
0.0000000000000000e+00 1.5000000000000000e+01
ITEM: ATOMS id type x y z
10 2 6.60293 7.27443 5.28822
4 1 6.89901 7.59973 6.34184
7 2 8.75342 8.33365 8.77725
8 2 9.03806 7.2397 6.12374
9 2 6.1172 8.17016 6.94193
1 1 7.0295 7.15936 8.67444
3 1 8.20413 7.59816 6.73926
2 1 8.12834 7.72613 8.18955
6 2 6.51366 6.33523 8.29142
5 2 6.53286 7.36656 9.7959
ITEM: TIMESTEP
2000
ITEM: NUMBER OF ATOMS
10
ITEM: BOX BOUNDS pp pp pp
0.0000000000000000e+00 1.5000000000000000e+01
0.0000000000000000e+00 1.5000000000000000e+01
0.0000000000000000e+00 1.5000000000000000e+01
ITEM: ATOMS id type x y z
10 2 7.0756 7.39035 5.16422
4 1 7.05678 7.53279 6.22504
7 2 8.80303 8.09599 9.07502
8 2 9.13865 7.42323 6.27503
9 2 6.13063 7.7787 6.59866
1 1 6.84378 7.25177 8.62813
3 1 8.22127 7.6498 6.86308
2 1 8.06354 7.66149 8.32805
6 2 6.31562 6.58573 7.8845
5 2 6.54826 7.37083 9.62586
ITEM: TIMESTEP
2100
ITEM: NUMBER OF ATOMS
10
ITEM: BOX BOUNDS pp pp pp
0.0000000000000000e+00 1.5000000000000000e+01
0.0000000000000000e+00 1.5000000000000000e+01
0.0000000000000000e+00 1.5000000000000000e+01
ITEM: ATOMS id type x y z
10 2 7.11147 7.28952 5.1476
4 1 7.19407 7.62956 6.22213
7 2 8.4119 8.36442 9.17863
8 2 9.24872 7.09205 6.57707
9 2 6.30171 8.24061 6.50154
1 1 6.74586 7.15289 8.50904
3 1 8.32139 7.54551 6.91359
2 1 7.97221 7.76716 8.3678
6 2 6.42126 6.37552 7.91912
5 2 6.2277 7.28715 9.48964
ITEM: TIMESTEP
2200
ITEM: NUMBER OF ATOMS
10
ITEM: BOX BOUNDS pp pp pp
0.0000000000000000e+00 1.5000000000000000e+01
0.0000000000000000e+00 1.5000000000000000e+01
0.0000000000000000e+00 1.5000000000000000e+01
ITEM: ATOMS id type x y z
10 2 7.46353 7.3009 5.11811
4 1 7.2889 7.57879 6.19383
7 2 8.43976 8.08187 9.21202
8 2 9.42 7.58205 6.67223
9 2 6.33007 7.91306 6.54071
1 1 6.65032 7.24017 8.4563
3 1 8.37739 7.60294 7.01292
2 1 7.90384 7.6357 8.37861
6 2 6.11133 6.46589 7.74878
5 2 6.03668 7.5306 9.34725
ITEM: TIMESTEP
2300
ITEM: NUMBER OF ATOMS
10
ITEM: BOX BOUNDS pp pp pp
0.0000000000000000e+00 1.5000000000000000e+01
0.0000000000000000e+00 1.5000000000000000e+01
0.0000000000000000e+00 1.5000000000000000e+01
ITEM: ATOMS id type x y z
10 2 7.44806 7.32299 5.21906
4 1 7.40515 7.65611 6.20743
7 2 8.24337 8.37479 9.11304
8 2 9.42289 7.18317 6.83598
9 2 6.48209 8.18849 6.38191
1 1 6.58219 7.14129 8.37582
3 1 8.42429 7.54116 7.11807
2 1 7.81164 7.71062 8.36902
6 2 6.30918 6.40301 7.74083
5 2 5.87876 7.45245 9.17615
ITEM: TIMESTEP
2400
ITEM: NUMBER OF ATOMS
10
ITEM: BOX BOUNDS pp pp pp
0.0000000000000000e+00 1.5000000000000000e+01
0.0000000000000000e+00 1.5000000000000000e+01
0.0000000000000000e+00 1.5000000000000000e+01
ITEM: ATOMS id type x y z
10 2 7.92372 7.27984 5.1654
4 1 7.51476 7.59762 6.18932
7 2 8.19045 8.04681 9.37653
8 2 9.44609 7.37619 7.06229
9 2 6.49691 7.89353 6.23837
1 1 6.51604 7.25002 8.32693
3 1 8.38719 7.61299 7.15539
2 1 7.79325 7.64911 8.40921
6 2 6.03183 6.64151 7.47344
5 2 5.76749 7.32367 9.08784
ITEM: TIMESTEP
2500
ITEM: NUMBER OF ATOMS
10
ITEM: BOX BOUNDS pp pp pp
0.0000000000000000e+00 1.5000000000000000e+01
0.0000000000000000e+00 1.5000000000000000e+01
0.0000000000000000e+00 1.5000000000000000e+01
ITEM: ATOMS id type x y z
10 2 7.95359 7.41855 5.13232
4 1 7.64952 7.64684 6.19597
7 2 7.89593 8.32057 9.28112
8 2 9.40719 7.12385 7.1485
9 2 6.63165 8.18622 6.11019
1 1 6.4459 7.20735 8.15746
3 1 8.43087 7.52397 7.30112
2 1 7.68248 7.66942 8.4903
6 2 6.38701 6.40791 7.51774
5 2 5.59607 7.47747 8.83004
ITEM: TIMESTEP
2600
ITEM: NUMBER OF ATOMS
10
ITEM: BOX BOUNDS pp pp pp
0.0000000000000000e+00 1.5000000000000000e+01
0.0000000000000000e+00 1.5000000000000000e+01
0.0000000000000000e+00 1.5000000000000000e+01
ITEM: ATOMS id type x y z
10 2 8.28996 7.25012 5.35245
4 1 7.77162 7.62552 6.18397
7 2 7.64943 8.03894 9.53921
8 2 9.63467 7.35031 7.45476
9 2 6.88483 8.11966 6.18037
1 1 6.34393 7.28144 8.05154
3 1 8.51624 7.55448 7.38545
2 1 7.56192 7.62957 8.46521
6 2 6.06898 6.56488 7.20989
5 2 5.43385 7.35006 8.6353
ITEM: TIMESTEP
2700
ITEM: NUMBER OF ATOMS
10
ITEM: BOX BOUNDS pp pp pp
0.0000000000000000e+00 1.5000000000000000e+01
0.0000000000000000e+00 1.5000000000000000e+01
0.0000000000000000e+00 1.5000000000000000e+01
ITEM: ATOMS id type x y z
10 2 8.47658 7.39926 5.3443
4 1 7.95334 7.65498 6.27779
7 2 7.51285 8.14991 9.39653
8 2 9.56916 7.2586 7.5446
9 2 6.93985 8.18954 6.10372
1 1 6.27334 7.23606 7.91926
3 1 8.51478 7.48413 7.46019
2 1 7.43251 7.65011 8.47989
6 2 6.19088 6.55044 7.13026
5 2 5.39082 7.52062 8.54683
ITEM: TIMESTEP
2800
ITEM: NUMBER OF ATOMS
10
ITEM: BOX BOUNDS pp pp pp
0.0000000000000000e+00 1.5000000000000000e+01
0.0000000000000000e+00 1.5000000000000000e+01
0.0000000000000000e+00 1.5000000000000000e+01
ITEM: ATOMS id type x y z
10 2 8.78665 7.39625 5.43052
4 1 8.02266 7.66795 6.30389
7 2 7.39005 8.12451 9.49403
8 2 9.47661 7.15613 7.83192
9 2 7.16728 8.19209 6.03267
1 1 6.2394 7.25221 7.85476
3 1 8.48801 7.49761 7.5256
2 1 7.3919 7.6381 8.45866
6 2 6.19754 6.53319 6.97413
5 2 5.25405 7.48263 8.26829
ITEM: TIMESTEP
2900
ITEM: NUMBER OF ATOMS
10
ITEM: BOX BOUNDS pp pp pp
0.0000000000000000e+00 1.5000000000000000e+01
0.0000000000000000e+00 1.5000000000000000e+01
0.0000000000000000e+00 1.5000000000000000e+01
ITEM: ATOMS id type x y z
10 2 8.81336 7.32904 5.59561
4 1 8.14907 7.641 6.31075
7 2 7.34494 7.92493 9.48714
8 2 9.38406 7.10424 8.00101
9 2 7.28586 8.26273 5.91151
1 1 6.2339 7.25988 7.73979
3 1 8.45351 7.54456 7.63731
2 1 7.29089 7.62585 8.4617
6 2 6.29192 6.70034 6.87276
5 2 5.23966 7.47097 8.12366
ITEM: TIMESTEP
3000
ITEM: NUMBER OF ATOMS
10
ITEM: BOX BOUNDS pp pp pp
0.0000000000000000e+00 1.5000000000000000e+01
0.0000000000000000e+00 1.5000000000000000e+01
0.0000000000000000e+00 1.5000000000000000e+01
ITEM: ATOMS id type x y z
10 2 9.0555 7.51526 5.66924
4 1 8.19437 7.68015 6.40595
7 2 7.1676 8.13518 9.3661
8 2 9.40443 7.05834 8.17159
9 2 7.46905 8.30772 6.03977
1 1 6.23875 7.25689 7.62596
3 1 8.44312 7.46758 7.71958
2 1 7.22315 7.62118 8.41948
6 2 6.27119 6.44113 6.83199
5 2 5.15991 7.60756 7.78448
ITEM: TIMESTEP
3100
ITEM: NUMBER OF ATOMS
10
ITEM: BOX BOUNDS pp pp pp
0.0000000000000000e+00 1.5000000000000000e+01
0.0000000000000000e+00 1.5000000000000000e+01
0.0000000000000000e+00 1.5000000000000000e+01
ITEM: ATOMS id type x y z
10 2 9.20899 7.44566 5.87323
4 1 8.34818 7.59391 6.50714
7 2 6.8255 7.85916 9.38996
8 2 9.30249 7.27385 8.34515
9 2 7.4922 8.26275 6.00149
1 1 6.16345 7.30651 7.44924
3 1 8.45903 7.50943 7.83989
2 1 7.17824 7.59413 8.35838
6 2 6.22067 6.82875 6.51156
5 2 5.18072 7.52591 7.8397
ITEM: TIMESTEP
3200
ITEM: NUMBER OF ATOMS
10
ITEM: BOX BOUNDS pp pp pp
0.0000000000000000e+00 1.5000000000000000e+01
0.0000000000000000e+00 1.5000000000000000e+01
0.0000000000000000e+00 1.5000000000000000e+01
ITEM: ATOMS id type x y z
10 2 9.37245 7.50518 5.97891
4 1 8.42835 7.69497 6.62411
7 2 6.61439 8.11715 9.2142
8 2 9.26974 6.8655 8.43573
9 2 7.89092 8.43981 6.21701
1 1 6.23347 7.28691 7.29383
3 1 8.36107 7.41126 7.92885
2 1 7.02936 7.66002 8.33518
6 2 6.46977 6.43719 6.60528
5 2 5.19325 7.53619 7.34601
ITEM: TIMESTEP
3300
ITEM: NUMBER OF ATOMS
10
ITEM: BOX BOUNDS pp pp pp
0.0000000000000000e+00 1.5000000000000000e+01
0.0000000000000000e+00 1.5000000000000000e+01
0.0000000000000000e+00 1.5000000000000000e+01
ITEM: ATOMS id type x y z
10 2 9.52441 7.47882 6.34357
4 1 8.56767 7.6482 6.67781
7 2 6.41633 7.79145 9.25703
8 2 9.12542 7.18524 8.66912
9 2 7.86512 8.19276 5.94722
1 1 6.2549 7.397 7.17179
3 1 8.33132 7.44222 8.02554
2 1 6.91517 7.55071 8.31624
6 2 6.65758 6.73933 6.44998
5 2 5.12079 7.60364 7.07377
ITEM: TIMESTEP
3400
ITEM: NUMBER OF ATOMS
10
ITEM: BOX BOUNDS pp pp pp
0.0000000000000000e+00 1.5000000000000000e+01
0.0000000000000000e+00 1.5000000000000000e+01
0.0000000000000000e+00 1.5000000000000000e+01
ITEM: ATOMS id type x y z
10 2 9.566 7.36414 6.27758
4 1 8.6132 7.72407 6.82061
7 2 6.37327 8.03778 9.14192
8 2 8.97786 6.84514 8.77991
9 2 8.06623 8.40149 6.23927
1 1 6.27858 7.34004 7.05238
3 1 8.2871 7.39583 8.07179
2 1 6.85392 7.62681 8.25042
6 2 6.73118 6.55849 6.38112
5 2 5.21262 7.49248 6.898
ITEM: TIMESTEP
3500
ITEM: NUMBER OF ATOMS
10
ITEM: BOX BOUNDS pp pp pp
0.0000000000000000e+00 1.5000000000000000e+01
0.0000000000000000e+00 1.5000000000000000e+01
0.0000000000000000e+00 1.5000000000000000e+01
ITEM: ATOMS id type x y z
10 2 9.69815 7.41484 6.60408
4 1 8.69188 7.68726 6.92414
7 2 6.29744 7.88098 9.05766
8 2 8.827 7.12386 9.0178
9 2 8.01669 8.18215 6.16304
1 1 6.27658 7.38733 6.95382
3 1 8.26037 7.40506 8.13214
2 1 6.83445 7.54849 8.16441
6 2 6.69171 6.83687 6.19401
5 2 5.21331 7.61246 6.80533
ITEM: TIMESTEP
3600
ITEM: NUMBER OF ATOMS
10
ITEM: BOX BOUNDS pp pp pp
0.0000000000000000e+00 1.5000000000000000e+01
0.0000000000000000e+00 1.5000000000000000e+01
0.0000000000000000e+00 1.5000000000000000e+01
ITEM: ATOMS id type x y z
10 2 9.73998 7.50547 6.67346
4 1 8.71934 7.73341 7.01534
7 2 6.21896 8.07348 8.94736
8 2 8.6747 6.85899 9.01976
9 2 8.23413 8.35638 6.35226
1 1 6.34973 7.34555 6.88379
3 1 8.16968 7.34807 8.1943
2 1 6.76501 7.59517 8.10674
6 2 6.8971 6.60096 6.1822
5 2 5.33663 7.69146 6.51289
ITEM: TIMESTEP
3700
ITEM: NUMBER OF ATOMS
10
ITEM: BOX BOUNDS pp pp pp
0.0000000000000000e+00 1.5000000000000000e+01
0.0000000000000000e+00 1.5000000000000000e+01
0.0000000000000000e+00 1.5000000000000000e+01
ITEM: ATOMS id type x y z
10 2 9.77787 7.3604 7.01047
4 1 8.75263 7.66012 7.12925
7 2 5.9556 7.76993 8.78994
8 2 8.54237 6.89692 9.20834
9 2 8.28987 8.33967 6.3458
1 1 6.45324 7.38564 6.74134
3 1 8.0929 7.41134 8.24935
2 1 6.69472 7.59023 8.07587
6 2 7.10715 6.96817 6.09392
5 2 5.49011 7.6009 6.26564
ITEM: TIMESTEP
3800
ITEM: NUMBER OF ATOMS
10
ITEM: BOX BOUNDS pp pp pp
0.0000000000000000e+00 1.5000000000000000e+01
0.0000000000000000e+00 1.5000000000000000e+01
0.0000000000000000e+00 1.5000000000000000e+01
ITEM: ATOMS id type x y z
10 2 9.88306 7.62971 7.29888
4 1 8.77207 7.66428 7.24799
7 2 5.76423 7.94068 8.66341
8 2 8.4112 6.90771 9.18749
9 2 8.52804 8.33309 6.44163
1 1 6.53211 7.41843 6.62404
3 1 7.97757 7.32189 8.35715
2 1 6.6279 7.56824 7.96042
6 2 7.36729 6.80264 6.10026
5 2 5.71227 7.76911 6.05972
ITEM: TIMESTEP
3900
ITEM: NUMBER OF ATOMS
10
ITEM: BOX BOUNDS pp pp pp
0.0000000000000000e+00 1.5000000000000000e+01
0.0000000000000000e+00 1.5000000000000000e+01
0.0000000000000000e+00 1.5000000000000000e+01
ITEM: ATOMS id type x y z
10 2 9.85851 7.41297 7.51869
4 1 8.79292 7.66875 7.39257
7 2 5.74944 7.91277 8.38388
8 2 8.24793 6.79672 9.32893
9 2 8.44346 8.44028 6.6817
1 1 6.6209 7.41348 6.53852
3 1 7.93603 7.34206 8.36866
2 1 6.60441 7.58938 7.88761
6 2 7.3559 6.95019 5.98507
5 2 5.74318 7.62508 5.8666
ITEM: TIMESTEP
4000
ITEM: NUMBER OF ATOMS
10
ITEM: BOX BOUNDS pp pp pp
0.0000000000000000e+00 1.5000000000000000e+01
0.0000000000000000e+00 1.5000000000000000e+01
0.0000000000000000e+00 1.5000000000000000e+01
ITEM: ATOMS id type x y z
10 2 9.85529 7.48861 7.54762
4 1 8.81073 7.68144 7.52438
7 2 5.67043 7.91671 8.33392
8 2 8.07313 6.93825 9.3866
9 2 8.64368 8.33835 6.71487
1 1 6.65368 7.42904 6.45996
3 1 7.87263 7.31769 8.40886
2 1 6.5811 7.54075 7.78931
6 2 7.53199 6.89889 5.9655
5 2 5.84057 7.82569 5.84547
ITEM: TIMESTEP
4100
ITEM: NUMBER OF ATOMS
10
ITEM: BOX BOUNDS pp pp pp
0.0000000000000000e+00 1.5000000000000000e+01
0.0000000000000000e+00 1.5000000000000000e+01
0.0000000000000000e+00 1.5000000000000000e+01
ITEM: ATOMS id type x y z
10 2 9.83618 7.32523 7.92193
4 1 8.79818 7.71765 7.6208
7 2 5.66547 7.98161 8.193
8 2 7.88864 6.84329 9.3778
9 2 8.71027 8.52478 6.86527
1 1 6.74651 7.424 6.41161
3 1 7.82959 7.30513 8.38799
2 1 6.54816 7.54167 7.73097
6 2 7.44496 6.79429 5.98357
5 2 6.04379 7.82015 5.63922
ITEM: TIMESTEP
4200
ITEM: NUMBER OF ATOMS
10
ITEM: BOX BOUNDS pp pp pp
0.0000000000000000e+00 1.5000000000000000e+01
0.0000000000000000e+00 1.5000000000000000e+01
0.0000000000000000e+00 1.5000000000000000e+01
ITEM: ATOMS id type x y z
10 2 9.77159 7.21958 8.12514
4 1 8.82282 7.68283 7.74155
7 2 5.54369 7.76327 8.09543
8 2 7.71766 6.81114 9.37602
9 2 8.97148 8.40971 6.9737
1 1 6.867 7.49335 6.33994
3 1 7.69197 7.35847 8.42189
2 1 6.49949 7.53988 7.61927
6 2 7.78136 6.96781 5.94161
5 2 6.05057 7.60131 5.64118
ITEM: TIMESTEP
4300
ITEM: NUMBER OF ATOMS
10
ITEM: BOX BOUNDS pp pp pp
0.0000000000000000e+00 1.5000000000000000e+01
0.0000000000000000e+00 1.5000000000000000e+01
0.0000000000000000e+00 1.5000000000000000e+01
ITEM: ATOMS id type x y z
10 2 9.62403 7.43373 8.41407
4 1 8.7639 7.71359 7.87145
7 2 5.57467 8.06812 7.79579
8 2 7.53483 6.72603 9.3822
9 2 8.87051 8.51811 7.11776
1 1 7.01892 7.48661 6.28118
3 1 7.60055 7.26203 8.42936
2 1 6.52204 7.52417 7.5462
6 2 7.71327 6.72819 6.03988
5 2 6.37423 7.82741 5.37015
ITEM: TIMESTEP
4400
ITEM: NUMBER OF ATOMS
10
ITEM: BOX BOUNDS pp pp pp
0.0000000000000000e+00 1.5000000000000000e+01
0.0000000000000000e+00 1.5000000000000000e+01
0.0000000000000000e+00 1.5000000000000000e+01
ITEM: ATOMS id type x y z
10 2 9.65115 7.34425 8.49292
4 1 8.69497 7.6374 7.97078
7 2 5.52202 7.78152 7.55082
8 2 7.38177 6.90597 9.46093
9 2 8.8291 8.45671 7.31319
1 1 7.1317 7.52481 6.23591
3 1 7.49395 7.32248 8.46424
2 1 6.53985 7.5047 7.45751
6 2 8.04421 6.92115 5.90938
5 2 6.53285 7.87412 5.39118
ITEM: TIMESTEP
4500
ITEM: NUMBER OF ATOMS
10
ITEM: BOX BOUNDS pp pp pp
0.0000000000000000e+00 1.5000000000000000e+01
0.0000000000000000e+00 1.5000000000000000e+01
0.0000000000000000e+00 1.5000000000000000e+01
ITEM: ATOMS id type x y z
10 2 9.56867 7.39422 8.61116
4 1 8.66464 7.67062 8.06217
7 2 5.51528 7.96885 7.37461
8 2 7.31615 6.64176 9.32805
9 2 8.81242 8.61743 7.467
1 1 7.1988 7.46559 6.21257
3 1 7.42523 7.25911 8.44845
2 1 6.56873 7.57747 7.39675
6 2 8.08437 6.93195 6.04871
5 2 6.68277 7.82912 5.33983
ITEM: TIMESTEP
4600
ITEM: NUMBER OF ATOMS
10
ITEM: BOX BOUNDS pp pp pp
0.0000000000000000e+00 1.5000000000000000e+01
0.0000000000000000e+00 1.5000000000000000e+01
0.0000000000000000e+00 1.5000000000000000e+01
ITEM: ATOMS id type x y z
10 2 9.32354 7.51973 9.00436
4 1 8.66198 7.64438 8.12458
7 2 5.50494 7.8182 7.32265
8 2 7.15501 6.84242 9.40639
9 2 9.03303 8.30124 7.4105
1 1 7.25564 7.51787 6.20862
3 1 7.39118 7.26978 8.41903
2 1 6.51888 7.5078 7.31227
6 2 8.2499 7.04801 6.07421
5 2 6.89152 8.05141 5.28387
ITEM: TIMESTEP
4700
ITEM: NUMBER OF ATOMS
10
ITEM: BOX BOUNDS pp pp pp
0.0000000000000000e+00 1.5000000000000000e+01
0.0000000000000000e+00 1.5000000000000000e+01
0.0000000000000000e+00 1.5000000000000000e+01
ITEM: ATOMS id type x y z
10 2 9.44001 7.24644 8.72356
4 1 8.5616 7.68377 8.26218
7 2 5.50235 7.91428 7.21319
8 2 6.98492 6.53001 9.15353
9 2 8.85339 8.67557 7.74035
1 1 7.40149 7.46537 6.19147
3 1 7.30908 7.27652 8.43985
2 1 6.54339 7.57785 7.20396
6 2 8.34387 6.9197 6.30179
5 2 7.10614 7.91294 5.17185
ITEM: TIMESTEP
4800
ITEM: NUMBER OF ATOMS
10
ITEM: BOX BOUNDS pp pp pp
0.0000000000000000e+00 1.5000000000000000e+01
0.0000000000000000e+00 1.5000000000000000e+01
0.0000000000000000e+00 1.5000000000000000e+01
ITEM: ATOMS id type x y z
10 2 9.22219 7.31532 9.19587
4 1 8.49966 7.68182 8.37272
7 2 5.55935 7.87067 7.02901
8 2 6.64078 6.79021 9.24352
9 2 8.86485 8.28904 7.63126
1 1 7.52192 7.56091 6.13888
3 1 7.2284 7.25676 8.43353
2 1 6.58765 7.47275 7.11756
6 2 8.48133 7.092 6.19156
5 2 7.32964 8.02931 5.22168
ITEM: TIMESTEP
4900
ITEM: NUMBER OF ATOMS
10
ITEM: BOX BOUNDS pp pp pp
0.0000000000000000e+00 1.5000000000000000e+01
0.0000000000000000e+00 1.5000000000000000e+01
0.0000000000000000e+00 1.5000000000000000e+01
ITEM: ATOMS id type x y z
10 2 9.06554 7.41262 9.26515
4 1 8.3783 7.68341 8.4789
7 2 5.66168 8.06753 6.85609
8 2 6.65938 6.54085 9.10892
9 2 8.77175 8.4535 7.73852
1 1 7.67977 7.54542 6.19249
3 1 7.13103 7.19156 8.37563
2 1 6.6332 7.55802 7.01782
6 2 8.59292 6.98413 6.37804
5 2 7.43895 7.89092 5.15322
ITEM: TIMESTEP
5000
ITEM: NUMBER OF ATOMS
10
ITEM: BOX BOUNDS pp pp pp
0.0000000000000000e+00 1.5000000000000000e+01
0.0000000000000000e+00 1.5000000000000000e+01
0.0000000000000000e+00 1.5000000000000000e+01
ITEM: ATOMS id type x y z
10 2 8.92789 7.29113 9.34335
4 1 8.32096 7.67039 8.50669
7 2 5.70274 7.81564 6.58195
8 2 6.51277 6.6217 9.07
9 2 8.80764 8.38248 7.89278
1 1 7.76725 7.59825 6.23417
3 1 7.04893 7.22424 8.33464
2 1 6.64713 7.53611 6.9805
6 2 8.68555 7.03177 6.51787
5 2 7.78187 7.90335 5.14705
ITEM: TIMESTEP
5100
ITEM: NUMBER OF ATOMS
10
ITEM: BOX BOUNDS pp pp pp
0.0000000000000000e+00 1.5000000000000000e+01
0.0000000000000000e+00 1.5000000000000000e+01
0.0000000000000000e+00 1.5000000000000000e+01
ITEM: ATOMS id type x y z
10 2 8.77622 7.34841 9.45905
4 1 8.25648 7.66282 8.55437
7 2 5.67351 7.81126 6.49993
8 2 6.48718 6.69726 9.06382
9 2 8.83936 8.36341 7.96347
1 1 7.84606 7.59924 6.24787
3 1 7.01599 7.21818 8.26365
2 1 6.66674 7.51216 6.9365
6 2 8.65506 7.01609 6.5964
5 2 7.98097 8.02913 5.29201
ITEM: TIMESTEP
5200
ITEM: NUMBER OF ATOMS
10
ITEM: BOX BOUNDS pp pp pp
0.0000000000000000e+00 1.5000000000000000e+01
0.0000000000000000e+00 1.5000000000000000e+01
0.0000000000000000e+00 1.5000000000000000e+01
ITEM: ATOMS id type x y z
10 2 8.69792 7.32918 9.53454
4 1 8.16724 7.65085 8.59993
7 2 5.83868 7.93233 6.45383
8 2 6.40504 6.512 8.84847
9 2 8.67519 8.51275 8.09998
1 1 7.90948 7.54107 6.25556
3 1 6.95559 7.21329 8.24236
2 1 6.73771 7.58535 6.91193
6 2 8.84552 7.10623 6.67215
5 2 8.04156 7.88412 5.22134
ITEM: TIMESTEP
5300
ITEM: NUMBER OF ATOMS
10
ITEM: BOX BOUNDS pp pp pp
0.0000000000000000e+00 1.5000000000000000e+01
0.0000000000000000e+00 1.5000000000000000e+01
0.0000000000000000e+00 1.5000000000000000e+01
ITEM: ATOMS id type x y z
10 2 8.45559 7.43139 9.66144
4 1 8.1031 7.61065 8.65472
7 2 5.89741 7.84919 6.36334
8 2 6.08572 6.69055 8.76675
9 2 8.72224 8.32424 8.15169
1 1 8.01598 7.55069 6.27678
3 1 6.87799 7.23308 8.22563
2 1 6.82195 7.53639 6.84504
6 2 8.96507 7.27738 6.68921
5 2 8.08387 8.06243 5.24349
ITEM: TIMESTEP
5400
ITEM: NUMBER OF ATOMS
10
ITEM: BOX BOUNDS pp pp pp
0.0000000000000000e+00 1.5000000000000000e+01
0.0000000000000000e+00 1.5000000000000000e+01
0.0000000000000000e+00 1.5000000000000000e+01
ITEM: ATOMS id type x y z
10 2 8.32609 7.31899 9.68132
4 1 8.01339 7.65074 8.71343
7 2 5.9279 7.93592 6.23267
8 2 6.06961 6.58882 8.59913
9 2 8.42627 8.54836 8.26902
1 1 8.12796 7.53489 6.33567
3 1 6.85499 7.22003 8.16556
2 1 6.82689 7.56253 6.74577
6 2 8.88856 6.87623 6.76369
5 2 8.54619 8.14257 5.58057
ITEM: TIMESTEP
5500
ITEM: NUMBER OF ATOMS
10
ITEM: BOX BOUNDS pp pp pp
0.0000000000000000e+00 1.5000000000000000e+01
0.0000000000000000e+00 1.5000000000000000e+01
0.0000000000000000e+00 1.5000000000000000e+01
ITEM: ATOMS id type x y z
10 2 8.05703 7.17035 9.88362
4 1 7.88396 7.5719 8.76891
7 2 6.08731 7.64047 5.95803
8 2 5.97838 6.66817 8.56943
9 2 8.57649 8.40014 8.55135
1 1 8.24524 7.59065 6.36481
3 1 6.7634 7.28301 8.12326
2 1 6.93085 7.59418 6.66324
6 2 8.94501 7.22559 7.09854
5 2 8.53905 7.87687 5.30676
ITEM: TIMESTEP
5600
ITEM: NUMBER OF ATOMS
10
ITEM: BOX BOUNDS pp pp pp
0.0000000000000000e+00 1.5000000000000000e+01
0.0000000000000000e+00 1.5000000000000000e+01
0.0000000000000000e+00 1.5000000000000000e+01
ITEM: ATOMS id type x y z
10 2 7.65066 7.43437 9.87367
4 1 7.75767 7.63847 8.79569
7 2 6.32532 8.12341 5.95448
8 2 5.93671 6.56791 8.44777
9 2 8.38727 8.45041 8.44732
1 1 8.31235 7.54569 6.44553
3 1 6.76468 7.15827 8.05048
2 1 6.99688 7.62153 6.63847
6 2 8.9798 6.86505 6.97791
5 2 8.85478 7.99511 5.60677
ITEM: TIMESTEP
5700
ITEM: NUMBER OF ATOMS
10
ITEM: BOX BOUNDS pp pp pp
0.0000000000000000e+00 1.5000000000000000e+01
0.0000000000000000e+00 1.5000000000000000e+01
0.0000000000000000e+00 1.5000000000000000e+01
ITEM: ATOMS id type x y z
10 2 7.79308 7.25881 9.81424
4 1 7.66789 7.58398 8.8008
7 2 6.3917 7.83305 5.81222
8 2 5.71291 6.82643 8.31585
9 2 8.34978 8.35023 8.5592
1 1 8.4084 7.60327 6.54052
3 1 6.67042 7.24365 7.96446
2 1 7.08673 7.55723 6.62861
6 2 9.05911 7.03404 7.18153
5 2 8.81685 7.98863 5.59963
ITEM: TIMESTEP
5800
ITEM: NUMBER OF ATOMS
10
ITEM: BOX BOUNDS pp pp pp
0.0000000000000000e+00 1.5000000000000000e+01
0.0000000000000000e+00 1.5000000000000000e+01
0.0000000000000000e+00 1.5000000000000000e+01
ITEM: ATOMS id type x y z
10 2 7.73672 7.12767 9.82223