10
 Atoms. Timestep: 0
C 8.83624 7.40317 7.85217
C 8.06475 7.64843 6.77587
C 6.64235 7.45021 6.93382
C 6.39981 7.5585 8.2249
H 9.88778 7.59933 7.73943
H 8.48263 6.8539 8.76873
H 8.48821 8.0376 5.85843
H 5.94003 7.08281 6.16935
H 7.14704 8.07424 8.77993
H 5.51945 7.21034 8.85257
10
 Atoms. Timestep: 20
C 8.73369 7.36233 7.87285
C 8.09797 7.69702 6.72873
C 6.67691 7.43544 6.92625
C 6.44702 7.57618 8.26062
H 9.80361 7.58766 7.84971
H 8.4203 6.82581 8.71513
H 8.57012 8.08085 5.85455
H 6.01758 6.90999 6.22041
H 7.06371 8.1858 8.95686
H 5.51516 7.20402 8.5616
10
 Atoms. Timestep: 40
C 8.74851 7.34549 7.8332
C 8.10446 7.69998 6.7058
C 6.75238 7.41968 6.95762
C 6.39264 7.6013 8.25136
H 9.84599 7.63814 8.10424
H 8.33103 6.68479 8.56441
H 8.67994 8.13926 5.85106
H 6.07137 6.89624 6.31784
H 6.82089 8.25919 9.01233
H 5.38681 7.20368 8.5512
10
 Atoms. Timestep: 60
C 8.73799 7.3647 7.87756
C 8.17714 7.69084 6.72216
C 6.7556 7.39981 6.97043
C 6.38689 7.60729 8.222
H 9.72008 7.65896 8.15245
H 8.2595 6.49556 8.41814
H 8.58432 8.21417 5.83547
H 6.06734 6.9287 6.24147
H 6.7735 8.29963 8.91495
H 5.37356 7.24717 8.57365
10
 Atoms. Timestep: 80
C 8.71202 7.35743 7.96968
C 8.12475 7.69156 6.73715
C 6.76213 7.39027 6.86703
C 6.40024 7.59962 8.22693
H 9.70665 7.66642 8.23494
H 8.38883 6.45948 8.48555
H 8.52396 8.25446 5.93157
H 6.09185 6.96814 6.09496
H 6.99208 8.34513 8.80908
H 5.42583 7.29307 8.52815
10
 Atoms. Timestep: 100
C 8.74902 7.33386 7.95447
C 8.12541 7.6753 6.8212
C 6.69514 7.39651 6.86975
C 6.38093 7.59272 8.10818
H 9.75463 7.77484 8.32592
H 8.44483 6.54194 8.58595
H 8.63272 8.27425 6.05249
H 6.1214 7.05853 6.05168
H 7.01776 8.25786 8.72823
H 5.44971 7.3222 8.62307
10
 Atoms. Timestep: 120
C 8.73118 7.33181 7.98393
C 8.16001 7.67297 6.82699
C 6.73603 7.40158 6.80587
C 6.37322 7.59768 8.14041
H 9.70779 7.77559 8.16397
H 8.34336 6.61287 8.723
H 8.72638 8.28606 6.06961
H 6.04718 7.06831 5.97986
H 6.93742 8.17114 8.81877
H 5.35914 7.28181 8.59057
10
 Atoms. Timestep: 140
C 8.69695 7.3626 8.01292
C 8.17217 7.67208 6.77689
C 6.78157 7.44063 6.86448
C 6.3565 7.56545 8.12119
H 9.71786 7.63498 8.13836
H 8.26103 6.67586 8.77511
H 8.74129 8.19638 6.04294
H 6.12138 7.09886 6.06161
H 6.86333 8.13895 8.87858
H 5.37597 7.2304 8.33949
10
 Atoms. Timestep: 160
C 8.7281 7.39043 7.9806
C 8.22007 7.66837 6.81185
C 6.78913 7.47651 6.87961
C 6.28111 7.54611 8.11148
H 9.82818 7.50927 8.29036
H 8.23488 6.76799 8.66262
H 8.74461 8.0519 5.94994
H 6.19355 7.10198 6.08539
H 6.75868 8.1378 8.95788
H 5.2536 7.16255 8.24156
10
 Atoms. Timestep: 180
C 8.68581 7.38576 8.04759
C 8.21654 7.70257 6.79808
C 6.79962 7.48079 6.84937
C 6.35189 7.53296 8.10742
H 9.75623 7.5217 8.26949
H 8.10667 6.75889 8.6983
H 8.79537 7.95151 5.85041
H 6.22002 7.09981 5.98419
H 6.63916 8.05192 8.99546
H 5.28342 7.2237 8.27639
10
 Atoms. Timestep: 200
C 8.69076 7.37715 8.03746
C 8.21777 7.69497 6.83131
C 6.82182 7.47581 6.82432
C 6.30173 7.54132 8.08841
H 9.69434 7.60562 8.32705
H 8.14616 6.72856 8.74852
H 8.83539 7.9488 5.9958
H 6.19181 7.16372 5.95848
H 6.78977 8.04557 8.88583
H 5.27404 7.19221 8.28429
10
 Atoms. Timestep: 220
C 8.69664 7.35985 8.06813
C 8.22435 7.66001 6.85022
C 6.77062 7.46275 6.81967
C 6.28519 7.5547 8.02861
H 9.71566 7.69407 8.38169
H 8.25471 6.66983 8.78431
H 8.86152 8.11497 6.11793
H 6.22011 7.22785 5.95093
H 6.90902 8.0917 8.77457
H 5.30221 7.19764 8.27981
10
 Atoms. Timestep: 240
C 8.65674 7.34526 8.12441
C 8.20583 7.63754 6.86852
C 6.80063 7.44409 6.73015
C 6.34763 7.56579 8.0384
H 9.68018 7.70419 8.3477
H 8.26571 6.6105 8.77893
H 8.79277 8.31868 6.1737
H 6.19349 7.18536 5.84506
H 6.8194 8.16247 8.84676
H 5.30746 7.28266 8.32788
10
 Atoms. Timestep: 260
C 8.69309 7.32163 8.09103
C 8.21983 7.67141 6.89909
C 6.8202 7.42834 6.77298
C 6.30139 7.58926 8.00822
H 9.66181 7.69522 8.44973
H 8.23356 6.54442 8.71803
H 8.78112 8.31159 6.22006
H 6.24342 7.12543 5.86557
H 6.73057 8.19795 8.72536
H 5.26644 7.28154 8.28234
10
 Atoms. Timestep: 280
C 8.65216 7.30906 8.08697
C 8.24946 7.74515 6.87575
C 6.84321 7.40836 6.81769
C 6.27686 7.58824 8.01041
H 9.60977 7.60306 8.52123
H 8.14958 6.49919 8.64908
H 8.85886 8.25747 6.17589
H 6.35395 7.02304 5.95873
H 6.76664 8.27385 8.71744
H 5.25506 7.25857 8.12171
10
 Atoms. Timestep: 300
C 8.60659 7.31718 8.11636
C 8.26572 7.76389 6.87363
C 6.88817 7.41923 6.77857
C 6.28525 7.58344 8.01659
H 9.59369 7.50957 8.54573
H 8.05408 6.52762 8.55379
H 8.92286 8.24926 6.10734
H 6.37664 6.88831 5.97102
H 6.65987 8.26797 8.85236
H 5.24251 7.27477 8.14789
10
 Atoms. Timestep: 320
C 8.65184 7.32532 8.12348
C 8.28506 7.71954 6.90779
C 6.84746 7.46291 6.79058
C 6.26451 7.59696 7.94992
H 9.64293 7.52331 8.60869
H 8.06257 6.55815 8.58882
H 8.92296 8.24466 6.17398
H 6.39537 6.89292 5.92127
H 6.56127 8.16161 8.75515
H 5.24566 7.21099 8.21048
10
 Atoms. Timestep: 340
C 8.61891 7.3196 8.16336
C 8.25978 7.69154 6.91456
C 6.86809 7.46987 6.72386
C 6.27438 7.57788 7.96899
H 9.6151 7.59183 8.52277
H 8.11693 6.59036 8.83997
H 8.90186 8.24067 6.27695
H 6.38299 7.08347 5.84025
H 6.72126 8.22447 8.7258
H 5.25889 7.13584 8.05864
10
 Atoms. Timestep: 360
C 8.61367 7.31508 8.21079
C 8.25212 7.67069 6.94462
C 6.85818 7.46433 6.71228
C 6.28443 7.53971 7.90454
H 9.6 7.68771 8.45766
H 8.12854 6.66191 8.91996
H 8.96085 8.22002 6.29521
H 6.35569 7.30151 5.79005
H 6.73982 8.20836 8.71244
H 5.28862 7.20161 8.0803
10
 Atoms. Timestep: 380
C 8.6426 7.3508 8.20476
C 8.27547 7.65217 6.98402
C 6.8756 7.46572 6.69214
C 6.23362 7.53205 7.89268
H 9.6575 7.68588 8.59116
H 8.12155 6.69901 8.85969
H 8.99502 8.11596 6.27374
H 6.34561 7.40083 5.68114
H 6.65866 8.04974 8.70765
H 5.18188 7.2641 8.13394
10
 Atoms. Timestep: 400
C 8.57509 7.39313 8.23752
C 8.29145 7.66452 6.91751
C 6.88524 7.48607 6.7237
C 6.28152 7.51632 7.9087
H 9.56307 7.57485 8.66351
H 8.02302 6.65554 8.85487
H 8.99721 8.05336 6.21217
H 6.48437 7.33248 5.72907
H 6.68197 7.93267 8.78072
H 5.17451 7.31085 7.9241
10
 Atoms. Timestep: 420
C 8.60271 7.37211 8.21631
C 8.33847 7.6733 6.94465
C 6.93227 7.50667 6.74325
C 6.19922 7.53316 7.88912
H 9.54372 7.58876 8.70929
H 7.94018 6.70573 8.73825
H 9.00783 8.04317 6.17358
H 6.46634 7.21055 5.83589
H 6.5937 7.9054 8.87745
H 5.13624 7.25493 7.79458
10
 Atoms. Timestep: 440
C 8.58815 7.32709 8.21627
C 8.35941 7.6983 6.95368
C 6.9404 7.49844 6.7655
C 6.22177 7.54934 7.85049
H 9.53091 7.61502 8.71272
H 7.88763 6.71966 8.74208
H 9.09024 8.11392 6.21448
H 6.42324 7.14125 5.83094
H 6.33583 7.96348 8.86859
H 5.1978 7.22764 7.80457
10
 Atoms. Timestep: 460
C 8.54537 7.3179 8.24018
C 8.33317 7.71645 6.95033
C 6.96096 7.47679 6.70059
C 6.24321 7.55242 7.892
H 9.51209 7.54581 8.74363
H 7.91467 6.65234 8.84261
H 9.10475 8.1995 6.36761
H 6.50201 7.14875 5.74661
H 6.44631 8.12927 8.75804
H 5.14791 7.16291 7.73195
10
 Atoms. Timestep: 480
C 8.5663 7.32063 8.27546
C 8.32048 7.70416 7.0362
C 6.91856 7.4718 6.68361
C 6.22301 7.55132 7.78999
H 9.50858 7.53746 8.7687
H 7.99619 6.54699 8.76685
H 9.03377 8.27283 6.4626
H 6.59259 7.17738 5.73286
H 6.6277 8.21007 8.53367
H 5.19512 7.18781 7.91277
10
 Atoms. Timestep: 500
C 8.52987 7.29344 8.33736
C 8.29598 7.72267 7.05672
C 6.97405 7.45361 6.60766
C 6.22479 7.56348 7.77816
H 9.50169 7.58197 8.78614
H 7.99233 6.44639 8.73366
H 8.98353 8.35526 6.44687
H 6.61477 7.12113 5.60747
H 6.62336 8.2483 8.59533
H 5.26018 7.26774 8.04015
10
 Atoms. Timestep: 520
C 8.49327 7.2784 8.29999
C 8.31745 7.74207 7.04382
C 6.98526 7.44078 6.6326
C 6.26218 7.59437 7.78237
H 9.35961 7.58798 8.90904
H 7.97299 6.43597 8.77198
H 9.0503 8.35144 6.52061
H 6.65868 7.09024 5.62995
H 6.54423 8.24134 8.60326
H 5.18924 7.17928 7.90148
10
 Atoms. Timestep: 540
C 8.5345 7.26831 8.28476
C 8.37767 7.73169 7.03106
C 6.98743 7.46623 6.71049
C 6.19091 7.59726 7.75008
H 9.29358 7.62109 9.00126
H 7.86768 6.51918 8.68619
H 9.14545 8.33125 6.56604
H 6.64297 7.07239 5.78864
H 6.46776 8.1888 8.53789
H 5.16343 7.10633 7.65057
10
 Atoms. Timestep: 560
C 8.45494 7.30648 8.32165
C 8.41624 7.71893 7.04265
C 7.05313 7.49228 6.66908
C 6.19592 7.54034 7.75631
H 9.3223 7.562 8.92491
H 7.76763 6.55377 8.66866
H 9.15293 8.31317 6.47844
H 6.62228 7.03183 5.76994
H 6.33003 8.1382 8.72903
H 5.20743 7.27283 7.5799
10
 Atoms. Timestep: 580
C 8.48925 7.33712 8.38408
C 8.38913 7.7099 7.06557
C 7.02092 7.49176 6.65981
C 6.20291 7.53962 7.69021
H 9.40916 7.4906 8.98019
H 7.82688 6.5715 8.79087
H 9.16667 8.21126 6.46848
H 6.73553 7.16007 5.61699
H 6.29433 7.9819 8.71596
H 5.07807 7.33427 7.51848
10
 Atoms. Timestep: 600
C 8.49025 7.34601 8.37781
C 8.34755 7.6905 7.14326
C 7.02942 7.48252 6.6288
C 6.18058 7.54803 7.65683
H 9.41129 7.52648 8.96013
H 7.87647 6.65843 8.93118
H 9.15577 8.07635 6.56227
H 6.81387 7.40037 5.58219
H 6.47212 7.89469 8.56109
H 5.10772 7.26129 7.45197
10
 Atoms. Timestep: 620
C 8.40661 7.31223 8.46
C 8.35086 7.68304 7.11668
C 7.06541 7.51056 6.57191
C 6.21435 7.50665 7.63643
H 9.3988 7.64115 8.83672
H 7.7302 6.71082 9.06376
H 9.23191 8.09731 6.5952
H 6.78498 7.51171 5.5402
H 6.54069 7.93318 8.59729
H 5.21407 7.25093 7.54569
10
 Atoms. Timestep: 640
C 8.43732 7.31647 8.43936
C 8.39561 7.63691 7.17157
C 7.05556 7.56822 6.5518
C 6.19379 7.48389 7.58244
H 9.33158 7.62021 9.01235
H 7.72745 6.79281 9.05045
H 9.26387 8.11776 6.69849
H 6.75143 7.4566 5.46194
H 6.45098 8.03067 8.5791
H 5.10496 7.16897 7.61558
10
 Atoms. Timestep: 660
C 8.418 7.33293 8.45897
C 8.39107 7.65504 7.12733
C 7.06812 7.57753 6.59398
C 6.20276 7.51345 7.59065
H 9.26267 7.5071 9.14179
H 7.66658 6.70966 8.95649
H 9.28472 8.09964 6.709
H 6.88169 7.31722 5.55361
H 6.38064 8.00594 8.47626
H 5.16799 7.1067 7.42628
10
 Atoms. Timestep: 680
C 8.34143 7.32043 8.45482
C 8.42851 7.72742 7.17011
C 7.14243 7.51827 6.60454
C 6.17267 7.558 7.60892
H 9.23344 7.46985 9.08131
H 7.63855 6.5644 8.76303
H 9.26673 8.08778 6.56622
H 6.94607 7.18256 5.61693
H 6.28186 8.03105 8.55629
H 5.24713 7.13965 7.27492
10
 Atoms. Timestep: 700
C 8.38113 7.27933 8.44908
C 8.44808 7.78087 7.20833
C 7.1429 7.46611 6.66572
C 6.15927 7.58929 7.49944
H 9.18662 7.47855 9.19225
H 7.70391 6.47263 8.65297
H 9.30108 8.15225 6.62482
H 6.94181 7.09093 5.63202
H 6.09275 8.11023 8.5574
H 5.10959 7.22182 7.29404
10
 Atoms. Timestep: 720
C 8.34783 7.26953 8.44675
C 8.41534 7.77448 7.19943
C 7.16847 7.46045 6.62004
C 6.18067 7.56957 7.54034
H 9.05666 7.45051 9.24945
H 7.71084 6.41991 8.73016
H 9.28666 8.33001 6.85981
H 7.01398 7.01095 5.60425
H 6.22851 8.22959 8.40479
H 5.15351 7.33483 7.20116
10
 Atoms. Timestep: 740
C 8.31383 7.2475 8.50086
C 8.4221 7.72601 7.24153
C 7.15664 7.46959 6.52917
C 6.20872 7.57577 7.52738
H 9.05235 7.566 9.26389
H 7.65947 6.41314 8.7373
H 9.15309 8.52028 7.00927
H 7.04333 7.04292 5.5764
H 6.40189 8.23709 8.28502
H 5.20607 7.32733 7.22349
10
 Atoms. Timestep: 760
C 8.31943 7.23334 8.53969
C 8.40606 7.70303 7.29131
C 7.19409 7.47277 6.52327
C 6.21614 7.60042 7.39941
H 9.034 7.59777 9.30999
H 7.68256 6.4244 8.80212
H 9.07365 8.51947 7.001
H 7.0204 7.13207 5.49622
H 6.36588 8.239 8.37029
H 5.13315 7.24994 7.38727
10
 Atoms. Timestep: 780
C 8.24462 7.26017 8.53675
C 8.39549 7.74401 7.27329
C 7.24507 7.45717 6.53792
C 6.22111 7.60669 7.43051
H 8.96742 7.49357 9.30168
H 7.64439 6.403 8.89123
H 9.24019 8.35121 6.9579
H 7.12621 7.22288 5.42543
H 6.27191 8.16477 8.40482
H 5.23611 7.17632 7.23711
10
 Atoms. Timestep: 800
C 8.25174 7.27978 8.55949
C 8.45537 7.75596 7.28927
C 7.21225 7.50076 6.56357
C 6.16138 7.55953 7.42202
H 8.99523 7.51527 9.35405
H 7.50036 6.48778 8.74372
H 9.43336 8.14347 6.94929
H 7.23389 7.26315 5.53441
H 6.23749 8.08366 8.2721
H 5.23922 7.15048 7.02932
10
 Atoms. Timestep: 820
C 8.24096 7.31309 8.54787
C 8.4832 7.71033 7.32869
C 7.2609 7.58542 6.58747
C 6.17544 7.47855 7.36268
H 8.91751 7.47106 9.38151
H 7.43839 6.66424 8.72024
H 9.42881 8.03957 6.92213
H 7.18306 7.23653 5.56854
H 6.06802 8.06863 8.35589
H 5.12516 7.21569 6.98037
10
 Atoms. Timestep: 840
C 8.19193 7.30942 8.61228
C 8.49421 7.6976 7.29014
C 7.2782 7.5894 6.56192
C 6.19753 7.50029 7.35027
H 8.92494 7.44894 9.44265
H 7.34981 6.6898 8.91537
H 9.44591 8.08648 6.90831
H 7.19245 7.30173 5.45449
H 5.97978 7.89937 8.38836
H 5.25989 7.21338 6.89215
10
 Atoms. Timestep: 860
C 8.21305 7.32017 8.59991
C 8.45925 7.66569 7.38316
C 7.26949 7.53445 6.52798
C 6.17179 7.55733 7.31726
H 8.941 7.50636 9.39117
H 7.382 6.69518 8.96184
H 9.39539 8.11412 7.03963
H 7.26157 7.47784 5.45819
H 6.14494 7.80568 8.29617
H 5.31757 7.15493 6.77223
10
 Atoms. Timestep: 880
C 8.16112 7.30845 8.64178
C 8.4173 7.67529 7.35732
C 7.31709 7.51667 6.53224
C 6.22167 7.53834 7.26472
H 8.96987 7.56285 9.34471
H 7.36468 6.63464 8.93835
H 9.37559 8.16791 7.18163
H 7.31993 7.51342 5.47806
H 6.21993 7.8354 8.31007
H 5.1709 7.27331 6.85979
10
 Atoms. Timestep: 900
C 8.12243 7.28586 8.63732
C 8.4567 7.69899 7.41686
C 7.32726 7.53164 6.48055
C 6.21194 7.48942 7.26556
H 8.84756 7.54054 9.44044
H 7.42027 6.57604 8.9687
H 9.3652 8.23644 7.13987
H 7.38197 7.4001 5.32607
H 6.20189 8.00466 8.29197
H 5.1971 7.42675 6.92022
10
 Atoms. Timestep: 920
C 8.16263 7.26027 8.66206
C 8.44499 7.71698 7.40427
C 7.32044 7.53657 6.50544
C 6.20665 7.52912 7.24235
H 8.718 7.52538 9.58175
H 7.40239 6.47591 8.86774
H 9.36149 8.27115 7.16996
H 7.39095 7.27725 5.46282
H 6.21191 8.08209 8.13114
H 5.23101 7.3306 6.79084
10
 Atoms. Timestep: 940
C 8.09993 7.25596 8.60742
C 8.4463 7.73024 7.42253
C 7.37748 7.50508 6.55063
C 6.23124 7.60015 7.26209
H 8.65307 7.50355 9.4918
H 7.38898 6.42233 8.66328
H 9.33644 8.30304 7.22027
H 7.39754 7.17346 5.55987
H 6.09281 8.13945 8.16491
H 5.32542 7.12957 6.73285
10
 Atoms. Timestep: 960
C 8.07077 7.22082 8.62469
C 8.51223 7.76498 7.43366
C 7.38219 7.49237 6.55405
C 6.19582 7.62232 7.20994
H 8.65952 7.4648 9.55953
H 7.38623 6.41872 8.63788
H 9.40309 8.38667 7.26648
H 7.43783 7.06646 5.48423
H 5.96382 8.17359 8.16629
H 5.3075 7.10687 6.84056
10
 Atoms. Timestep: 980
C 8.09198 7.24237 8.62216
C 8.47561 7.75717 7.46188
C 7.37504 7.52441 6.53189
C 6.21618 7.56614 7.18555
H 8.57979 7.3556 9.59949
H 7.3625 6.44612 8.7372
H 9.37055 8.37334 7.33969
H 7.49146 7.06407 5.53903
H 6.096 8.22587 8.05405
H 5.27088 7.21448 6.81069
10
 Atoms. Timestep: 1000
C 8.0675 7.236 8.67879
C 8.411 7.75447 7.46879
C 7.41487 7.52933 6.48806
C 6.24794 7.53464 7.20795
H 8.67258 7.4283 9.55686
H 7.2568 6.46402 8.73621
H 9.32326 8.3345 7.33251
H 7.53659 7.16736 5.5199
H 6.22576 8.18965 8.02068
H 5.26113 7.30957 6.66131
10
 Atoms. Timestep: 1020
C 8.04225 7.2356 8.69331
C 8.42615 7.73439 7.51695
C 7.40537 7.50358 6.49266
C 6.25635 7.56506 7.13955
H 8.71847 7.50832 9.53611
H 7.29783 6.49366 8.83541
H 9.33335 8.30058 7.31037
H 7.57199 7.31697 5.38489
H 6.11675 8.0763 8.09057
H 5.30492 7.29238 6.67686
10
 Atoms. Timestep: 1040
C 8.02218 7.27243 8.67765
C 8.45879 7.69406 7.47598
C 7.4476 7.50875 6.52986
C 6.22223 7.58469 7.10679
H 8.60362 7.48243 9.61178
H 7.31926 6.51658 8.94107
H 9.39113 8.26346 7.3939
H 7.55827 7.43173 5.41724
H 6.0187 7.92291 8.1606
H 5.32822 7.24329 6.62267
10
 Atoms. Timestep: 1060
C 8.00125 7.29953 8.69024
C 8.5103 7.66366 7.4908
C 7.41869 7.55939 6.52108
C 6.23871 7.53908 7.13895
H 8.51243 7.54463 9.5938
H 7.18427 6.52439 8.77184
H 9.45126 8.2106 7.3848
H 7.56417 7.42396 5.50454
H 6.02397 7.88548 8.12637
H 5.37417 7.26096 6.46125
10
 Atoms. Timestep: 1080
C 8.01552 7.27955 8.70378
C 8.50326 7.67332 7.52717
C 7.45459 7.59798 6.53613
C 6.2257 7.49585 7.12087
H 8.45224 7.58276 9.67131
H 7.1536 6.63502 8.63237
H 9.46414 8.11615 7.32158
H 7.55395 7.37139 5.44215
H 5.95684 7.91387 8.04043
H 5.34885 7.32057 6.45344
10
 Atoms. Timestep: 1100
C 7.97696 7.26081 8.69169
C 8.48843 7.72495 7.5111
C 7.46669 7.5635 6.55644
C 6.25548 7.51579 7.08027
H 8.3943 7.48339 9.71281
H 7.15373 6.62099 8.80682
H 9.51555 8.08654 7.32348
H 7.64097 7.40451 5.44815
H 5.91108 7.95556 8.04889
H 5.38296 7.27865 6.51185
10
 Atoms. Timestep: 1120
C 7.95091 7.27286 8.70214
C 8.46506 7.73201 7.56272
C 7.48357 7.52252 6.50474
C 6.23526 7.57331 7.06401
H 8.50725 7.40995 9.61566
H 7.15655 6.51462 8.83705
H 9.47413 8.14938 7.42624
H 7.72993 7.40212 5.49603
H 6.05136 8.01007 8.07794
H 5.39604 7.12971 6.43436
10
 Atoms. Timestep: 1140
C 7.92999 7.26817 8.74233
C 8.41677 7.70771 7.56911
C 7.49609 7.54003 6.50273
C 6.28574 7.57737 7.03016
H 8.61596 7.40298 9.59729
H 7.16285 6.45939 8.72341
H 9.32739 8.27398 7.5856
H 7.7337 7.28408 5.46633
H 6.11294 8.05195 7.91323
H 5.39966 7.18795 6.53719
10
 Atoms. Timestep: 1160
C 7.9117 7.21553 8.71498
C 8.42044 7.7285 7.59405
C 7.54387 7.56201 6.47095
C 6.29517 7.5515 7.03725
H 8.45021 7.39923 9.68542
H 7.17966 6.47117 8.81228
H 9.27983 8.41542 7.61619
H 7.73357 7.10032 5.42798
H 6.07871 8.20115 7.90933
H 5.37494 7.2875 6.53441
10
 Atoms. Timestep: 1180
C 7.91997 7.162 8.71946
C 8.46316 7.7833 7.60285
C 7.51422 7.51682 6.48675
C 6.29117 7.57931 7.01428
H 8.22512 7.46077 9.7339
H 7.14371 6.40058 8.77361
H 9.34813 8.46136 7.59144
H 7.78867 7.11807 5.55253
H 6.08596 8.27165 7.90259
H 5.4013 7.25899 6.39487
10
 Atoms. Timestep: 1200
C 7.89373 7.22126 8.67781
C 8.44432 7.7619 7.62229
C 7.56879 7.47687 6.58019
C 6.28115 7.62258 7.0002
H 8.14396 7.47629 9.69413
H 7.21479 6.3347 8.48947
H 9.31469 8.35517 7.60689
H 7.81652 7.16963 5.58048
H 6.01945 8.1375 7.86227
H 5.48665 7.25107 6.37279
10
 Atoms. Timestep: 1220
C 7.81099 7.24066 8.73546
C 8.49392 7.74977 7.6263
C 7.5757 7.49221 6.54926
C 6.28874 7.61126 6.96656
H 8.14536 7.43248 9.77501
H 7.29454 6.31809 8.55154
H 9.41834 8.35078 7.62301
H 7.86437 7.20348 5.47739
H 5.92464 8.05698 7.89091
H 5.46068 7.29481 6.30563
10
 Atoms. Timestep: 1240
C 7.81766 7.2465 8.75341
C 8.47515 7.71113 7.68296
C 7.56795 7.56497 6.47614
C 6.32153 7.54401 6.92026
H 8.10983 7.43211 9.80557
H 7.19124 6.38758 8.82361
H 9.41702 8.30052 7.67359
H 7.87753 7.28003 5.49437
H 5.96514 8.06471 7.90271
H 5.46944 7.35538 6.19245
10
 Atoms. Timestep: 1260
C 7.81483 7.21784 8.77596
C 8.39007 7.68339 7.65334
C 7.64245 7.60858 6.50966
C 6.33455 7.51096 6.90625
H 8.24779 7.58499 9.72566
H 6.89921 6.54986 8.82426
H 9.31074 8.2174 7.78491
H 7.93177 7.4182 5.49478
H 6.07221 7.99186 7.79692
H 5.57086 7.33307 6.1912
10
 Atoms. Timestep: 1280
C 7.75147 7.21786 8.77712
C 8.40613 7.68728 7.71944
C 7.63191 7.58153 6.48353
C 6.36706 7.52835 6.88736
H 8.32048 7.53145 9.63673
H 6.80881 6.69881 8.81709
H 9.36722 8.18919 7.80959
H 8.08816 7.5946 5.44178
H 6.00973 7.9144 7.79176
H 5.5902 7.20143 6.18739
10
 Atoms. Timestep: 1300
C 7.726 7.27087 8.78441
C 8.43268 7.69939 7.71735
C 7.67337 7.58532 6.49964
C 6.34604 7.53917 6.80925
H 8.17934 7.28387 9.85614
H 6.8575 6.69675 8.88104
H 9.45518 8.11665 7.81592
H 8.08555 7.60822 5.49449
H 5.95539 7.84683 7.86047
H 5.52252 7.09913 6.11705
10
 Atoms. Timestep: 1320
C 7.68984 7.31046 8.77762
C 8.43962 7.7066 7.73
C 7.66109 7.62672 6.54165
C 6.38597 7.49404 6.81655
H 8.03132 7.24214 9.79668
H 6.84712 6.60076 8.68377
H 9.47492 8.01857 7.78959
H 8.0586 7.47446 5.57327
H 5.96142 7.83588 7.74373
H 5.69149 7.22122 6.10703
10
 Atoms. Timestep: 1340
C 7.68681 7.25391 8.80123
C 8.44922 7.72287 7.79139
C 7.69954 7.63696 6.54758
C 6.33748 7.49812 6.81288
H 8.02759 7.44921 9.80232
H 6.88287 6.56715 8.46594
H 9.48421 8.0281 7.81307
H 8.11223 7.34362 5.53483
H 5.88005 7.8945 7.65154
H 5.69871 7.26626 5.90283
10
 Atoms. Timestep: 1360
C 7.68633 7.20763 8.7428
C 8.44611 7.73255 7.77696
C 7.68123 7.56855 6.58424
C 6.41052 7.55443 6.78222
H 7.8402 7.50945 9.8294
H 6.90183 6.48786 8.67577
H 9.43918 8.19488 7.95506
H 8.14986 7.38977 5.61659
H 5.73453 7.99212 7.58068
H 5.71332 7.26697 5.91415
10
 Atoms. Timestep: 1380
C 7.6393 7.20452 8.74908
C 8.43279 7.71872 7.78795
C 7.76621 7.51513 6.56533
C 6.37852 7.59788 6.75838
H 7.76162 7.46206 9.83167
H 6.94544 6.3992 8.68527
H 9.25021 8.41501 8.01365
H 8.17223 7.38658 5.58241
H 5.89918 8.07728 7.66404
H 5.79438 7.26238 5.94755
10
 Atoms. Timestep: 1400
C 7.57927 7.21127 8.80928
C 8.39965 7.71514 7.84476
C 7.75173 7.51526 6.50938
C 6.46328 7.59954 6.75318
H 7.78365 7.4521 9.81227
H 7.00223 6.31172 8.46385
H 9.11328 8.51082 8.00494
H 8.22264 7.29363 5.54236
H 6.12038 8.08715 7.5832
H 5.71825 7.31729 5.98273
10
 Atoms. Timestep: 1420
C 7.58847 7.19751 8.7774
C 8.33625 7.75726 7.83589
C 7.82504 7.53221 6.53337
C 6.47287 7.5782 6.72612
H 7.69937 7.34371 9.89627
H 6.95494 6.31505 8.55792
H 9.15887 8.45393 8.06659
H 8.30263 7.16355 5.60024
H 6.07877 8.17396 7.55626
H 5.59365 7.37866 5.9751
10
 Atoms. Timestep: 1440
C 7.56161 7.1523 8.74583
C 8.36812 7.81712 7.85358
C 7.79236 7.53053 6.55441
C 6.4545 7.58414 6.69767
H 7.6981 7.33531 9.85857
H 6.87954 6.37079 8.61825
H 9.29118 8.35229 8.13614
H 8.38987 7.14969 5.74121
H 5.99343 8.23099 7.4958
H 5.81237 7.27638 5.93007
10
 Atoms. Timestep: 1460
C 7.55748 7.18153 8.76191
C 8.38102 7.76995 7.90306
C 7.79647 7.56396 6.60284
C 6.44592 7.59917 6.65978
H 7.75569 7.37345 9.77538
H 6.81466 6.43521 8.43972
H 9.29425 8.27416 8.14244
H 8.33487 7.18898 5.74198
H 5.92 8.14326 7.39943
H 5.91924 7.11726 5.82455
10
 Atoms. Timestep: 1480
C 7.50551 7.23956 8.77808
C 8.4005 7.70969 7.88734
C 7.83187 7.60577 6.60146
C 6.50016 7.5701 6.669
H 7.67854 7.2934 9.88183
H 6.72592 6.48529 8.43028
H 9.29804 8.26089 8.16721
H 8.29431 7.28942 5.66088
H 5.80558 8.01835 7.35287
H 5.89336 7.12197 5.78063
10
 Atoms. Timestep: 1500
C 7.46565 7.25269 8.79034
C 8.40414 7.69067 7.91991
C 7.84138 7.60975 6.53958
C 6.49665 7.52646 6.63612
H 7.55312 7.30137 9.92827
H 6.71191 6.56271 8.61036
H 9.34858 8.21809 8.19463
H 8.43474 7.46352 5.61148
H 5.8691 7.94444 7.46849
H 5.95968 7.25245 5.76007
10
 Atoms. Timestep: 1520
C 7.45556 7.23302 8.81097
C 8.34384 7.69617 7.90785
C 7.86743 7.59005 6.57999
C 6.51985 7.5185 6.59586
H 7.60523 7.51215 9.83455
H 6.66461 6.56219 8.58614
H 9.28952 8.10687 8.20921
H 8.48156 7.62142 5.69655
H 6.04827 7.84606 7.49825
H 5.91475 7.34486 5.69631
10
 Atoms. Timestep: 1540
C 7.42922 7.23583 8.78635
C 8.31683 7.68847 7.92457
C 7.89383 7.57706 6.58266
C 6.56793 7.52383 6.61291
H 7.6412 7.58103 9.80098
H 6.57559 6.49799 8.57139
H 9.25119 8.12913 8.21528
H 8.53627 7.66108 5.72091
H 5.9743 7.80169 7.44121
H 5.89857 7.398 5.70027
10
 Atoms. Timestep: 1560
C 7.41124 7.23771 8.8108
C 8.3589 7.67299 7.94565
C 7.91135 7.58764 6.55527
C 6.5328 7.54102 6.57898
H 7.50315 7.41362 9.94363
H 6.61825 6.52521 8.65661
H 9.24914 8.27353 8.28558
H 8.57039 7.56325 5.63989
H 5.86612 7.8661 7.3913
H 6.03124 7.34213 5.62779
10
 Atoms. Timestep: 1580
C 7.40146 7.24014 8.78528
C 8.36461 7.68587 7.95965
C 7.87646 7.59791 6.61259
C 6.58001 7.5501 6.56657
H 7.44491 7.32022 9.84148
H 6.69414 6.53559 8.50866
H 9.18315 8.29572 8.3272
H 8.43551 7.38591 5.72169
H 5.89368 7.96186 7.31008
H 6.13739 7.27655 5.63532
10
 Atoms. Timestep: 1600
C 7.38628 7.19692 8.75165
C 8.35042 7.75689 8.00108
C 7.92917 7.5751 6.65123
C 6.54805 7.57594 6.56462
H 7.45971 7.39012 9.8376
H 6.69074 6.44163 8.24934
H 9.22071 8.26455 8.32975
H 8.49649 7.23886 5.79761
H 5.90197 8.05819 7.28083
H 6.07087 7.19749 5.58239
10
 Atoms. Timestep: 1620
C 7.38899 7.16619 8.74076
C 8.32017 7.80206 8.0089
C 7.90823 7.54902 6.61299
C 6.59062 7.59907 6.54702
H 7.26165 7.33343 9.84348
H 6.70958 6.35484 8.40306
H 9.26977 8.27345 8.39234
H 8.67615 7.19814 5.87773
H 5.94213 8.14011 7.20056
H 6.01667 7.22198 5.71386
10
 Atoms. Timestep: 1640
C 7.34595 7.17099 8.76549
C 8.2757 7.76502 7.96864
C 7.98198 7.56012 6.6314
C 6.6059 7.59243 6.53657
H 7.20967 7.29513 9.8257
H 6.79905 6.36773 8.45801
H 9.11074 8.34053 8.40668
H 8.65955 7.21589 5.82718
H 6.06421 8.24137 7.26558
H 6.0236 7.228 5.69326
10
 Atoms. Timestep: 1660
C 7.27549 7.18689 8.76602
C 8.29006 7.72076 8.03756
C 7.98217 7.55525 6.59046
C 6.65645 7.58406 6.55129
H 7.33135 7.42323 9.84956
H 6.75479 6.28233 8.31477
H 8.98248 8.44177 8.37575
H 8.60657 7.30964 5.7789
H 6.12493 8.22247 7.25132
H 6.0989 7.25882 5.64672
10
 Atoms. Timestep: 1680
C 7.31078 7.19168 8.76648
C 8.29232 7.70419 8.03771
C 8.00436 7.54212 6.6348
C 6.63741 7.60197 6.4948
H 7.23015 7.40289 9.86586
H 6.61217 6.35022 8.44953
H 8.99335 8.46216 8.47354
H 8.67352 7.36831 5.7639
H 6.01293 8.099 7.17949
H 6.13268 7.29771 5.55395
10
 Atoms. Timestep: 1700
C 7.29186 7.1859 8.74463
C 8.29652 7.73739 8.0179
C 7.97047 7.54687 6.66804
C 6.66637 7.58814 6.48786
H 7.14794 7.38294 9.7787
H 6.59397 6.49928 8.48951
H 9.12295 8.29623 8.5276
H 8.74912 7.38245 5.89151
H 5.88879 7.94391 7.18192
H 6.26987 7.36543 5.50918
10
 Atoms. Timestep: 1720
C 7.25313 7.21138 8.75853
C 8.28862 7.73728 8.09232
C 7.99641 7.58868 6.66536
C 6.65857 7.55229 6.45866
H 7.21077 7.4575 9.86188
H 6.57891 6.49403 8.23722
H 9.20599 8.12354 8.4286
H 8.71682 7.37833 5.90773
H 5.88352 7.85247 7.20842
H 6.34759 7.37632 5.39586
10
 Atoms. Timestep: 1740
C 7.22616 7.26484 8.76377
C 8.287 7.69588 8.08401
C 8.00176 7.62813 6.69076
C 6.70211 7.5233 6.44944
H 7.11299 7.32345 9.85986
H 6.54699 6.5068 8.23884
H 9.24395 8.07992 8.49195
H 8.69415 7.45846 5.86944
H 5.92073 7.86152 7.05095
H 6.30301 7.31698 5.45009
10
 Atoms. Timestep: 1760
C 7.19122 7.25101 8.74914
C 8.30538 7.67737 8.07362
C 8.03279 7.62609 6.67833
C 6.68823 7.52905 6.43993
H 7.03882 7.27741 9.79689
H 6.47691 6.59361 8.42195
H 9.18267 8.11976 8.63507
H 8.83264 7.59736 5.87585
H 5.92392 7.95811 7.06032
H 6.36338 7.17263 5.45285
10
 Atoms. Timestep: 1780
C 7.17311 7.19939 8.73348
C 8.25373 7.68148 8.1119
C 8.05578 7.61474 6.65924
C 6.73129 7.55274 6.41932
H 7.16198 7.47139 9.86759
H 6.4036 6.56371 8.32553
H 9.05685 8.1456 8.5985
H 8.85852 7.61616 5.95449
H 5.98227 8.02125 7.12691
H 6.37733 7.11181 5.47237
10
 Atoms. Timestep: 1800
C 7.15947 7.18397 8.74159
C 8.18358 7.69926 8.0773
C 8.0961 7.61237 6.70252
C 6.78619 7.56326 6.41967
H 7.12068 7.47444 9.80259
H 6.4047 6.46233 8.28956
H 8.99877 8.2228 8.59045
H 8.8571 7.47499 5.97158
H 6.08362 7.99615 7.08517
H 6.30712 7.23607 5.50319
10
 Atoms. Timestep: 1820
C 7.12352 7.18437 8.73999
C 8.20168 7.74605 8.11659
C 8.11711 7.5868 6.66029
C 6.76923 7.57384 6.41326
H 6.91173 7.29045 9.77022
H 6.50742 6.37925 8.4043
H 8.99439 8.35529 8.6899
H 8.96536 7.26262 5.95771
H 6.09829 8.03059 7.08729
H 6.37759 7.35543 5.39886
10
 Atoms. Timestep: 1840
C 7.12113 7.18556 8.69635
C 8.22668 7.76905 8.17601
C 8.07505 7.53295 6.68754
C 6.80667 7.59625 6.38393
H 6.79751 7.27663 9.84646
H 6.67984 6.33303 8.24532
H 8.87447 8.40707 8.6965
H 8.87222 7.19086 6.05345
H 6.04263 8.11003 7.04007
H 6.48012 7.39952 5.34421
10
 Atoms. Timestep: 1860
C 7.12466 7.16034 8.66934
C 8.19453 7.75613 8.17178
C 8.10727 7.50761 6.82235
C 6.80558 7.63155 6.36151
H 6.81199 7.40418 9.67928
H 6.73686 6.30439 8.0584
H 8.82054 8.46976 8.66236
H 8.81986 7.18478 6.11076
H 6.00335 8.16393 6.89749
H 6.53911 7.35917 5.33079
10
 Atoms. Timestep: 1880
C 7.07272 7.12047 8.684
C 8.18937 7.76349 8.18906
C 8.10577 7.53673 6.75252
C 6.8486 7.64968 6.3684
H 6.66583 7.37083 9.60081
H 6.52451 6.25325 8.26346
H 8.88537 8.53984 8.7356
H 9.01038 7.17576 6.13978
H 6.08302 8.16307 6.82388
H 6.65617 7.29497 5.36156
10
 Atoms. Timestep: 1900
C 7.0295 7.15936 8.67444
C 8.12834 7.72613 8.18955
C 8.20413 7.59816 6.73926
C 6.89901 7.59973 6.34184
H 6.53286 7.36656 9.7959
H 6.51366 6.33523 8.29142
H 8.75342 8.33365 8.77725
H 9.03806 7.2397 6.12374
H 6.1172 8.17016 6.94193
H 6.60293 7.27443 5.28822
10
 Atoms. Timestep: 1920
C 6.91222 7.20954 8.65242
C 8.10846 7.70137 8.19734
C 8.22588 7.617 6.77471
C 6.96973 7.53981 6.33482
H 6.79056 7.41286 9.71677
H 6.48888 6.38902 8.07379
H 8.75828 8.2158 8.86996
H 9.04224 7.42123 6.16975
H 6.18435 8.04208 6.92951
H 6.56198 7.33273 5.37352
10
 Atoms. Timestep: 1940
C 6.92258 7.22605 8.66064
C 8.0913 7.70245 8.24681
C 8.22236 7.59802 6.80856
C 6.94901 7.55045 6.25773
H 6.72056 7.34058 9.68359
H 6.26033 6.49695 8.08875
H 8.89 8.14218 8.96639
H 9.21687 7.5989 6.23289
H 6.19843 7.95293 6.83501
H 6.72634 7.22658 5.23994
10
 Atoms. Timestep: 1960
C 6.93436 7.21906 8.62296
C 8.11322 7.70363 8.23917
C 8.18714 7.60448 6.82624
C 7.01055 7.55376 6.27689
H 6.46594 7.25258 9.75514
H 6.13131 6.67732 8.16126
H 8.86635 8.06964 8.9159
H 9.18137 7.63106 6.35493
H 6.03642 7.90865 6.70114
H 6.97094 7.19512 5.20901
10
 Atoms. Timestep: 1980
C 6.8559 7.21617 8.63517
C 8.08501 7.67679 8.28067
C 8.23854 7.65176 6.86768
C 7.02448 7.53068 6.26659
H 6.61803 7.35718 9.69124
H 6.25312 6.7181 7.95168
H 8.85365 8.06371 8.89309
H 9.10968 7.50576 6.2944
H 5.9918 7.82057 6.57545
H 7.07408 7.3023 5.18249
10
 Atoms. Timestep: 2000
C 6.84378 7.25177 8.62813
C 8.06354 7.66149 8.32805
C 8.22127 7.6498 6.86308
C 7.05678 7.53279 6.22504
H 6.54826 7.37083 9.62586
H 6.31562 6.58573 7.8845
H 8.80303 8.09599 9.07502
H 9.13865 7.42323 6.27503
H 6.13063 7.7787 6.59866
H 7.0756 7.39035 5.16422
10
 Atoms. Timestep: 2020
C 6.85358 7.25176 8.56389
C 8.09191 7.69878 8.29543
C 8.24238 7.57921 6.89438
C 7.07138 7.56866 6.23481
H 6.24494 7.31882 9.58355
H 6.24555 6.45654 8.02737
H 8.65741 8.12118 9.12663
H 9.24473 7.49348 6.40651
H 6.11478 7.85715 6.69158
H 7.06116 7.38237 5.1222
10
 Atoms. Timestep: 2040
C 6.7934 7.17771 8.5638
C 8.01322 7.70851 8.31113
C 8.31092 7.53622 6.89388
C 7.10332 7.60775 6.25604
H 6.27069 7.47429 9.4885
H 6.39908 6.44318 7.98096
H 8.67166 8.24533 8.97071
H 9.28622 7.52064 6.46189
H 6.14877 8.03361 6.65683
H 7.02235 7.3218 5.18108
10
 Atoms. Timestep: 2060
C 6.76377 7.15607 8.5785
C 7.97419 7.69583 8.29524
C 8.30679 7.55663 6.92528
C 7.14876 7.61311 6.25235
H 6.26625 7.47842 9.45009
H 6.43889 6.34072 7.89156
H 8.58892 8.37998 8.90601
H 9.27235 7.40002 6.4549
H 6.36183 8.18775 6.6284
H 7.03459 7.30323 5.24982
10
 Atoms. Timestep: 2080
C 6.79279 7.18431 8.51521
C 7.99316 7.72504 8.31199
C 8.32137 7.56855 6.93815
C 7.14313 7.60698 6.24631
H 6.14422 7.28556 9.46757
H 6.29955 6.26504 7.97828
H 8.40845 8.40188 9.06723
H 9.28123 7.19018 6.50927
H 6.38933 8.29075 6.63142
H 7.09848 7.2773 5.16527
10
 Atoms. Timestep: 2100
C 6.74586 7.15289 8.50904
C 7.97221 7.76716 8.3678
C 8.32139 7.54551 6.91359
C 7.19407 7.62956 6.22213
H 6.2277 7.28715 9.48964
H 6.42126 6.37552 7.91912
H 8.4119 8.36442 9.17863
H 9.24872 7.09205 6.57707
H 6.30171 8.24061 6.50154
H 7.11147 7.28952 5.1476
10
 Atoms. Timestep: 2120
C 6.74886 7.16958 8.51026
C 7.91531 7.75648 8.3375