LAMMPS (2 Aug 2023 - Update 2)
#13 Butadiene
units           metal
boundary        p p p
atom_style      atomic

neighbor        2.0 bin
neigh_modify    delay 0 every 1 check yes

read_data       restart.lmp
Reading data file ...
  orthogonal box = (0 0 0) to (15 15 15)
  1 by 1 by 3 MPI processor grid
  reading atoms ...
  10 atoms
  reading velocities ...
  10 velocities
  read_data CPU = 0.001 seconds
mass            1 12.0
mass            2 2

variable        sysvol          equal vol
variable        sysmass         equal mass(all)/6.0221367e+23
variable        sysdensity      equal v_sysmass/v_sysvol/1.0e-24
variable	out_freq 	equal 100

pair_style      deepmd ../files/frozen_model_1_compressed.pb ../files/frozen_model_2_compressed.pb ../files/frozen_model_3_compressed.pb ../files/frozen_model_3_compressed.pb out_file md.out out_freq 10 atomic relative 1.0
Summary of lammps deepmd module ...
  >>> Info of deepmd-kit:
  installed to:       /rs1/researchers/w/wjpfaend/rahul/MLP/DeePMD-kit/deepmd_cpu
  source:             v2.2.8-dirty
  source branch:      master
  source commit:      b875ea8
  source commit at:   2024-01-22 22:28:58 -0500
  support model ver.: 1.1 
  build variant:      cpu
  build with tf inc:  /rs1/researchers/w/wjpfaend/rahul/MLP/DeePMD-kit/tensorflow/lib/python3.11/site-packages/tensorflow/include;/rs1/researchers/w/wjpfaend/rahul/MLP/DeePMD-kit/tensorflow/lib/python3.11/site-packages/tensorflow/include
  build with tf lib:  /rs1/researchers/w/wjpfaend/rahul/MLP/DeePMD-kit/tensorflow/lib/python3.11/site-packages/tensorflow/libtensorflow_cc.so.2
  set tf intra_op_parallelism_threads: 0
  set tf inter_op_parallelism_threads: 0
  >>> Info of lammps module:
  use deepmd-kit at:  /rs1/researchers/w/wjpfaend/rahul/MLP/DeePMD-kit/deepmd_cpu
  source:             v2.2.8-dirty
  source branch:      master
  source commit:      b875ea8
  source commit at:   2024-01-22 22:28:58 -0500
  build float prec:   double
  build with tf inc:  /rs1/researchers/w/wjpfaend/rahul/MLP/DeePMD-kit/tensorflow/lib/python3.11/site-packages/tensorflow/include;/rs1/researchers/w/wjpfaend/rahul/MLP/DeePMD-kit/tensorflow/lib/python3.11/site-packages/tensorflow/include
  build with tf lib:  /rs1/researchers/w/wjpfaend/rahul/MLP/DeePMD-kit/tensorflow/lib/python3.11/site-packages/tensorflow/libtensorflow_cc.so.2
pair_coeff	* *

#
velocity        all create 300.0 2345678 rot no dist gaussian
fix             1 all nvt temp 300.0 300.0 0.05
fix             2 all plumed plumedfile plumed.dat outfile PLUMED.log

timestep        0.0005
thermo_style    custom step pe ke etotal v_sysdensity temp press vol
thermo          10

dump            10 all custom 100 btd.dump id type x y z
dump		101 all xyz 20 btd.xyz
dump_modify	101 element C H

fix		extra all print 20 "$(step), $(ke), $(pe), $(etotal), $(temp), $(press), $(vol)" file logfile screen no

restart	        20000 dump.restart

run             50000

CITE-CITE-CITE-CITE-CITE-CITE-CITE-CITE-CITE-CITE-CITE-CITE-CITE

Your simulation uses code contributions which should be cited:

- USER-DEEPMD package:

@article{Wang_ComputPhysCommun_2018_v228_p178,
  author = {Wang, Han and Zhang, Linfeng and Han, Jiequn and E, Weinan},
  doi = {10.1016/j.cpc.2018.03.016},
  url = {https://doi.org/10.1016/j.cpc.2018.03.016},
  year = 2018,
  month = {jul},
  publisher = {Elsevier {BV}},
  volume = 228,
  journal = {Comput. Phys. Commun.},
  title = {{DeePMD-kit: A deep learning package for many-body potential energy representation and molecular dynamics}},
  pages = {178--184}
}
@misc{Zeng_JChemPhys_2023_v159_p054801,
  title  = {{DeePMD-kit v2: A software package for deep potential models}},
  author =   {Jinzhe Zeng and Duo Zhang and Denghui Lu and Pinghui Mo and Zeyu Li
         and Yixiao Chen and Mari{\'a}n Rynik and Li'ang Huang and Ziyao Li and 
         Shaochen Shi and Yingze Wang and Haotian Ye and Ping Tuo and Jiabin
         Yang and Ye Ding and Yifan Li and Davide Tisi and Qiyu Zeng and Han 
         Bao and Yu Xia and Jiameng Huang and Koki Muraoka and Yibo Wang and 
         Junhan Chang and Fengbo Yuan and Sigbj{\o}rn L{\o}land Bore and Chun
         Cai and Yinnian Lin and Bo Wang and Jiayan Xu and Jia-Xin Zhu and 
         Chenxing Luo and Yuzhi Zhang and Rhys E A Goodall and Wenshuo Liang
         and Anurag Kumar Singh and Sikai Yao and Jingchao Zhang and Renata
         Wentzcovitch and Jiequn Han and Jie Liu and Weile Jia and Darrin M
         York and Weinan E and Roberto Car and Linfeng Zhang and Han Wang},
  journal =  {J. Chem. Phys.},
  volume =   159,
  issue =    5,  
  year =    2023,
  pages  =   054801,
  doi =      {10.1063/5.0155600},
}

CITE-CITE-CITE-CITE-CITE-CITE-CITE-CITE-CITE-CITE-CITE-CITE-CITE

Generated 0 of 1 mixed pair_coeff terms from geometric mixing rule
Neighbor list info ...
  update: every = 1 steps, delay = 0 steps, check = yes
  max neighbors/atom: 2000, page size: 100000
  master list distance cutoff = 8
  ghost atom cutoff = 8
  binsize = 4, bins = 4 4 4
  1 neighbor lists, perpetual/occasional/extra = 1 0 0
  (1) pair deepmd, perpetual
      attributes: full, newton on
      pair build: full/bin/atomonly
      stencil: full/bin/3d
      bin: standard
Per MPI rank memory allocation (min/avg/max) = 2.958 | 2.999 | 3.082 Mbytes
   Step         PotEng         KinEng         TotEng      v_sysdensity       Temp          Press          Volume    
         0  -55.762452      0.34900239    -55.413449      0.029520714    300           -1179.4117      3375         
        10  -55.389335      0.56271128    -54.826624      0.029520714    483.70266      281.38949      3375         
        20  -55.349079      0.48759243    -54.861486      0.029520714    419.13102      1163.7962      3375         
        30  -55.327256      0.4474408     -54.879815      0.029520714    384.61697     -243.79101      3375         
        40  -55.386542      0.48376656    -54.902776      0.029520714    415.84233     -644.00665      3375         
        50  -55.203308      0.3056314     -54.897676      0.029520714    262.7186       179.58996      3375         
        60  -55.284789      0.40339165    -54.881397      0.029520714    346.75263      98.232728      3375         
        70  -55.343143      0.42030609    -54.922836      0.029520714    361.29216     -253.7056       3375         
        80  -55.315083      0.3705523     -54.944531      0.029520714    318.52415     -42.234418      3375         
        90  -55.411454      0.44715186    -54.964302      0.029520714    384.3686       337.81466      3375         
       100  -55.294518      0.29051694    -55.004001      0.029520714    249.72632      562.83953      3375         
       110  -55.327431      0.32747272    -54.999959      0.029520714    281.49325     -275.31308      3375         
       120  -55.375634      0.3810943     -54.99454       0.029520714    327.58598     -897.47963      3375         
       130  -55.358857      0.3223349     -55.036522      0.029520714    277.07681     -196.60233      3375         
       140  -55.504136      0.43866866    -55.065467      0.029520714    377.07649      1064.2299      3375         
       150  -55.506314      0.40336711    -55.102946      0.029520714    346.73153      806.77402      3375         
       160  -55.332344      0.19796908    -55.134375      0.029520714    170.17283     -793.67095      3375         
       170  -55.395597      0.32295928    -55.072637      0.029520714    277.61353     -1178.4445      3375         
       180  -55.333158      0.21968294    -55.113476      0.029520714    188.83791      249.23096      3375         
       190  -55.346938      0.20746198    -55.139476      0.029520714    178.33286      968.69981      3375         
       200  -55.565385      0.3995463     -55.165839      0.029520714    343.44719      91.183362      3375         
       210  -55.412244      0.25156057    -55.160684      0.029520714    216.2397      -706.08129      3375         
       220  -55.444466      0.30677298    -55.137693      0.029520714    263.69989     -72.937497      3375         
       230  -55.487546      0.34100308    -55.146543      0.029520714    293.12385      591.95388      3375         
       240  -55.358348      0.19168848    -55.166659      0.029520714    164.77406     -30.786863      3375         
       250  -55.387887      0.20497683    -55.18291       0.029520714    176.19664     -537.03637      3375         
       260  -55.534845      0.36612066    -55.168724      0.029520714    314.71474     -187.31791      3375         
       270  -55.428738      0.26629123    -55.162446      0.029520714    228.90207      405.879        3375         
       280  -55.50679       0.35801729    -55.148772      0.029520714    307.74914      217.42542      3375         
       290  -55.359154      0.20774463    -55.151409      0.029520714    178.57582     -84.41774       3375         
       300  -55.387231      0.22682799    -55.160403      0.029520714    194.97975     -2.9208704      3375         
       310  -55.436968      0.27351345    -55.163455      0.029520714    235.11023      351.89881      3375         
       320  -55.37257       0.20933148    -55.163239      0.029520714    179.93987     -70.01892       3375         
       330  -55.519124      0.38195169    -55.137173      0.029520714    328.32298     -997.14576      3375         
       340  -55.51749       0.40524639    -55.112243      0.029520714    348.34694     -41.030549      3375         
       350  -55.359846      0.22777343    -55.132073      0.029520714    195.79243      1063.4576      3375         
       360  -55.432823      0.28888383    -55.143939      0.029520714    248.32251      605.34886      3375         
       370  -55.447469      0.30660558    -55.140863      0.029520714    263.556       -451.74901      3375         
       380  -55.337481      0.21665643    -55.120825      0.029520714    186.23634     -1141.9864      3375         
       390  -55.464101      0.38101839    -55.083082      0.029520714    327.52073     -268.29576      3375         
       400  -55.3635        0.26223505    -55.101265      0.029520714    225.4154       1130.5896      3375         
       410  -55.445313      0.32746801    -55.117845      0.029520714    281.48919      362.34494      3375         
       420  -55.456055      0.34445811    -55.111597      0.029520714    296.09376     -658.47305      3375         
       430  -55.292109      0.22004915    -55.07206       0.029520714    189.1527      -44.720965      3375         
       440  -55.352234      0.27991858    -55.072316      0.029520714    240.61604      63.655447      3375         
       450  -55.401034      0.34537735    -55.055656      0.029520714    296.88394      23.211145      3375         
       460  -55.366367      0.30698445    -55.059382      0.029520714    263.88167     -270.94775      3375         
       470  -55.5239        0.45820408    -55.065696      0.029520714    393.869       -214.64593      3375         
       480  -55.481565      0.44952309    -55.032042      0.029520714    386.40688      812.65733      3375         
       490  -55.341496      0.310393      -55.031103      0.029520714    266.81164      36.166323      3375         
       500  -55.260771      0.25056946    -55.010201      0.029520714    215.38774     -989.08077      3375         
       510  -55.278355      0.26783826    -55.010517      0.029520714    230.23189      376.89009      3375         
       520  -55.457022      0.44720183    -55.00982       0.029520714    384.41155      485.67719      3375         
       530  -55.409879      0.38128213    -55.028597      0.029520714    327.74743     -169.48716      3375         
       540  -55.267436      0.2965913     -54.970845      0.029520714    254.9478      -47.684709      3375         
       550  -55.383968      0.42080565    -54.963162      0.029520714    361.72157     -134.12229      3375         
       560  -55.289382      0.32443563    -54.964946      0.029520714    278.88259      512.93354      3375         
       570  -55.300233      0.33678788    -54.963445      0.029520714    289.50049      643.67008      3375         
       580  -55.479215      0.48844831    -54.990767      0.029520714    419.86673     -1151.3221      3375         
       590  -55.374784      0.41383329    -54.960951      0.029520714    355.72818     -995.25797      3375         
       600  -55.26926       0.36808184    -54.901178      0.029520714    316.40056      812.45419      3375         
       610  -55.337238      0.41239486    -54.924843      0.029520714    354.49172      483.74299      3375         
       620  -55.229515      0.30157764    -54.927938      0.029520714    259.23401      505.19182      3375         
       630  -55.290214      0.35638331    -54.933831      0.029520714    306.34459      73.3836        3375         
       640  -55.227618      0.28230365    -54.945314      0.029520714    242.66624     -1129.8114      3375         
       650  -55.282446      0.37371454    -54.908732      0.029520714    321.24239     -311.55558      3375         
       660  -55.405337      0.51618605    -54.889151      0.029520714    443.7099       290.5482       3375         
       670  -55.322065      0.43175596    -54.890309      0.029520714    371.13439      49.947613      3375         
       680  -55.364786      0.47412908    -54.890657      0.029520714    407.55802      914.29497      3375         
       690  -55.414529      0.51287541    -54.901654      0.029520714    440.86409      87.229151      3375         
       700  -55.147136      0.25612944    -54.891006      0.029520714    220.16707     -1121.6845      3375         
       710  -55.26205       0.41161609    -54.850434      0.029520714    353.8223      -101.94201      3375         
       720  -55.467125      0.62537391    -54.841751      0.029520714    537.56701      207.9626       3375         
       730  -55.196041      0.34151555    -54.854526      0.029520714    293.56436      430.38179      3375         
       740  -55.317958      0.45499765    -54.86296       0.029520714    391.11277      797.26596      3375         
       750  -55.346916      0.46761393    -54.879302      0.029520714    401.95764     -1029.6629      3375         
       760  -55.14303       0.30849422    -54.834536      0.029520714    265.17946     -910.78596      3375         
       770  -55.201158      0.36406438    -54.837094      0.029520714    312.94718      1331.606       3375         
       780  -55.379072      0.52463671    -54.854435      0.029520714    450.97403      457.94711      3375         
       790  -55.327968      0.46152292    -54.866445      0.029520714    396.72185     -706.57612      3375         
       800  -55.349459      0.46537573    -54.884083      0.029520714    400.03371     -211.26695      3375         
       810  -55.371525      0.49040987    -54.881115      0.029520714    421.55287      45.968482      3375         
       820  -55.275449      0.3814858     -54.893963      0.029520714    327.92251      539.05011      3375         
       830  -55.223986      0.30815515    -54.915831      0.029520714    264.888        247.73726      3375         
       840  -55.302813      0.37090593    -54.931907      0.029520714    318.82812     -832.38157      3375         
       850  -55.412637      0.45066922    -54.961968      0.029520714    387.39209     -416.57891      3375         
       860  -55.287887      0.29280966    -54.995078      0.029520714    251.69713      341.86327      3375         
       870  -55.305364      0.32459176    -54.980773      0.029520714    279.0168      -222.09572      3375         
       880  -55.332889      0.34405462    -54.988835      0.029520714    295.74693      581.21959      3375         
       890  -55.429326      0.40445164    -55.024875      0.029520714    347.66378      915.01667      3375         
       900  -55.283678      0.23810896    -55.045569      0.029520714    204.67678     -448.7863       3375         
       910  -55.428939      0.35364275    -55.075297      0.029520714    303.98882     -1114.0533      3375         
       920  -55.489195      0.41173062    -55.077464      0.029520714    353.92075     -959.79916      3375         
       930  -55.442724      0.38176057    -55.060963      0.029520714    328.1587       459.55198      3375         
       940  -55.413425      0.30784684    -55.105578      0.029520714    264.62298      1904.4967      3375         
       950  -55.448329      0.31973468    -55.128595      0.029520714    274.84168      462.26374      3375         
       960  -55.338725      0.20312863    -55.135597      0.029520714    174.60794     -1339.6726      3375         
       970  -55.355131      0.21826551    -55.136865      0.029520714    187.6195      -821.6973       3375         
       980  -55.518962      0.38107397    -55.137888      0.029520714    327.5685       168.44251      3375         
       990  -55.444167      0.29983813    -55.144329      0.029520714    257.73874      753.02138      3375         
      1000  -55.365135      0.20488035    -55.160255      0.029520714    176.11371      477.94288      3375         
      1010  -55.460704      0.29333234    -55.167372      0.029520714    252.14641     -558.56318      3375         
      1020  -55.522178      0.36216149    -55.160016      0.029520714    311.31147     -29.535552      3375         
      1030  -55.40866       0.23717529    -55.171485      0.029520714    203.87421      325.86057      3375         
      1040  -55.414522      0.25098601    -55.163536      0.029520714    215.74581     -551.99263      3375         
      1050  -55.489339      0.3350804     -55.154259      0.029520714    288.03276     -105.71962      3375         
      1060  -55.440765      0.27525671    -55.165509      0.029520714    236.60873      454.88053      3375         
      1070  -55.387006      0.21807411    -55.168932      0.029520714    187.45497      102.88342      3375         
      1080  -55.426063      0.25715942    -55.168904      0.029520714    221.05243     -157.51676      3375         
      1090  -55.37098       0.2226659     -55.148315      0.029520714    191.40204     -438.4646       3375         
      1100  -55.394814      0.25831227    -55.136502      0.029520714    222.04341      224.02557      3375         
      1110  -55.473211      0.335521      -55.13769       0.029520714    288.41149      580.541        3375         
      1120  -55.447718      0.31422955    -55.133488      0.029520714    270.10951     -567.47869      3375         
      1130  -55.424768      0.32095163    -55.103816      0.029520714    275.88776     -845.81255      3375         
      1140  -55.393882      0.32219282    -55.071689      0.029520714    276.95468      749.75621      3375         
      1150  -55.375051      0.32149778    -55.053553      0.029520714    276.35723      1124.7168      3375         
      1160  -55.392831      0.35331556    -55.039515      0.029520714    303.70757      49.315476      3375         
      1170  -55.339988      0.32120168    -55.018786      0.029520714    276.1027      -1224.5684      3375         
      1180  -55.31012       0.33653861    -54.973581      0.029520714    289.28622     -1336.2605      3375         
      1190  -55.429645      0.48729777    -54.942348      0.029520714    418.87773      610.94099      3375         
      1200  -55.289184      0.37472662    -54.914457      0.029520714    322.11236      1902.7363      3375         
      1210  -55.181518      0.29005815    -54.89146       0.029520714    249.33195      564.93407      3375         
      1220  -55.422015      0.54893404    -54.873081      0.029520714    471.85984     -738.94645      3375         
      1230  -55.268119      0.41747262    -54.850646      0.029520714    358.85653     -690.89339      3375         
      1240  -55.291504      0.45914995    -54.832355      0.029520714    394.68207     -883.61123      3375         
      1250  -55.444753      0.61818601    -54.826567      0.029520714    531.38834     -212.96317      3375         
      1260  -55.286648      0.48382136    -54.802826      0.029520714    415.88944      634.17922      3375         
      1270  -55.134571      0.332701      -54.80187       0.029520714    285.98744      948.80291      3375         
      1280  -55.289844      0.46576562    -54.824078      0.029520714    400.36885      819.31382      3375         
      1290  -55.307262      0.47441021    -54.832852      0.029520714    407.79968     -817.04904      3375         
      1300  -55.158974      0.35048052    -54.808494      0.029520714    301.27059     -1849.012       3375         
      1310  -55.238507      0.42790923    -54.810597      0.029520714    367.82776      121.71699      3375         
      1320  -55.306989      0.49119053    -54.815799      0.029520714    422.22392      1781.5115      3375         
      1330  -55.228443      0.38991201    -54.838531      0.029520714    335.16562      472.27435      3375         
      1340  -55.232923      0.35467829    -54.878245      0.029520714    304.87896     -1047.2704      3375         
      1350  -55.368844      0.54203001    -54.826814      0.029520714    465.92518     -983.8368       3375         
      1360  -55.279691      0.42848727    -54.851204      0.029520714    368.32464      521.86451      3375         
      1370  -55.279717      0.3919213     -54.887796      0.029520714    336.8928       1005.9556      3375         
      1380  -55.37654       0.48839773    -54.888143      0.029520714    419.82325     -373.59375      3375         
      1390  -55.395887      0.48810239    -54.907785      0.029520714    419.56938     -1010.6413      3375         
      1400  -55.22763       0.29344215    -54.934188      0.029520714    252.2408       565.35239      3375         
      1410  -55.270604      0.33525779    -54.935346      0.029520714    288.18524      860.86199      3375         
      1420  -55.335635      0.37782893    -54.957806      0.029520714    324.77909     -419.47994      3375         
      1430  -55.331536      0.35997066    -54.971566      0.029520714    309.42825     -406.61613      3375         
      1440  -55.346072      0.37880782    -54.967264      0.029520714    325.62053     -31.867361      3375         
      1450  -55.330235      0.33229797    -54.997937      0.029520714    285.641        115.21559      3375         
      1460  -55.444208      0.41961238    -55.024596      0.029520714    360.69585      289.98583      3375         
      1470  -55.292134      0.29982131    -54.992313      0.029520714    257.72429      46.589406      3375         
      1480  -55.399224      0.38260023    -55.016624      0.029520714    328.88047      128.86636      3375         
      1490  -55.431798      0.3941865     -55.037612      0.029520714    338.83994      615.3104       3375         
      1500  -55.391989      0.34416074    -55.047828      0.029520714    295.83815     -782.14877      3375         
      1510  -55.395496      0.33037973    -55.065117      0.029520714    283.99209     -1598.0007      3375         
      1520  -55.465939      0.41185309    -55.054086      0.029520714    354.02602      174.89855      3375         
      1530  -55.234206      0.18624733    -55.047958      0.029520714    160.0969       1748.4014      3375         
      1540  -55.291296      0.21841974    -55.072876      0.029520714    187.75207      1207.4099      3375         
      1550  -55.46274       0.37280626    -55.089934      0.029520714    320.46164     -701.36842      3375         
      1560  -55.396035      0.33327006    -55.062765      0.029520714    286.4766      -2080.5028      3375         
      1570  -55.364151      0.2988741     -55.065277      0.029520714    256.91007     -376.56766      3375         
      1580  -55.451842      0.38060535    -55.071237      0.029520714    327.16568      1421.3975      3375         
      1590  -55.471452      0.4016121     -55.06984       0.029520714    345.22293      437.82485      3375         
      1600  -55.361983      0.28629789    -55.075685      0.029520714    246.09965     -233.01994      3375         
      1610  -55.41979       0.34481624    -55.074974      0.029520714    296.40161     -42.720765      3375         
      1620  -55.395998      0.32094866    -55.07505       0.029520714    275.88521     -283.61701      3375         
      1630  -55.350395      0.26986637    -55.080529      0.029520714    231.97523     -305.94363      3375         
      1640  -55.359398      0.29450791    -55.06489       0.029520714    253.15693      147.26114      3375         
      1650  -55.464623      0.40106341    -55.06356       0.029520714    344.75129      414.01305      3375         
      1660  -55.278753      0.20582616    -55.072927      0.029520714    176.92672      602.13626      3375         
      1670  -55.338067      0.25684714    -55.08122       0.029520714    220.78399     -143.99151      3375         
      1680  -55.476031      0.41491181    -55.061119      0.029520714    356.65527     -1071.9774      3375         
      1690  -55.399479      0.3485266     -55.050952      0.029520714    299.59102     -236.3337       3375         
      1700  -55.345679      0.29737559    -55.048303      0.029520714    255.62196      1026.7491      3375         
      1710  -55.451822      0.40036069    -55.051461      0.029520714    344.14723      327.13876      3375         
      1720  -55.370976      0.3143531     -55.056623      0.029520714    270.21572     -657.69833      3375         
      1730  -55.289865      0.25015307    -55.039712      0.029520714    215.02982     -256.48454      3375         
      1740  -55.407747      0.3873725     -55.020374      0.029520714    332.98267      375.13454      3375         
      1750  -55.34856       0.32060559    -55.027954      0.029520714    275.59031      641.28532      3375         
      1760  -55.317479      0.28697384    -55.030505      0.029520714    246.68069     -248.1543       3375         
      1770  -55.361337      0.34972809    -55.011609      0.029520714    300.6238      -1339.038       3375         
      1780  -55.367068      0.36874512    -54.998323      0.029520714    316.97071     -297.29797      3375         
      1790  -55.304831      0.3164747     -54.988356      0.029520714    272.03942      1102.162       3375         
      1800  -55.404459      0.44795441    -54.956505      0.029520714    385.05846      1004.3413      3375         
      1810  -55.349461      0.4201089     -54.929352      0.029520714    361.12266      89.076928      3375         
      1820  -55.364886      0.47375447    -54.891131      0.029520714    407.23601     -920.48158      3375         
      1830  -55.30499       0.47508562    -54.829904      0.029520714    408.38026     -936.40383      3375         
      1840  -55.275269      0.49012368    -54.785145      0.029520714    421.30687     -171.97108      3375         
      1850  -55.253104      0.52494941    -54.728155      0.029520714    451.24282      331.24036      3375         
      1860  -55.160743      0.50154604    -54.659197      0.029520714    431.12545      977.52423      3375         
      1870  -55.142217      0.50137791    -54.640839      0.029520714    430.98093      897.86282      3375         
      1880  -55.109768      0.48117463    -54.628593      0.029520714    413.61433     -230.98467      3375         
      1890  -55.2894        0.7170582     -54.572342      0.029520714    616.37818     -1425.1844      3375         
      1900  -55.12671       0.57640324    -54.550307      0.029520714    495.47217     -738.8033       3375         
      1910  -55.237427      0.67824888    -54.559178      0.029520714    583.01796      578.83331      3375         
      1920  -55.215821      0.66227334    -54.553548      0.029520714    569.2855       1458.666       3375         
      1930  -55.11767       0.54128035    -54.576389      0.029520714    465.28078      260.65611      3375         
      1940  -55.251781      0.61753679    -54.634244      0.029520714    530.83028     -1285.3335      3375         
      1950  -55.253488      0.66295792    -54.590531      0.029520714    569.87397     -486.76333      3375         
      1960  -55.0542        0.41344842    -54.640752      0.029520714    355.39735      298.76419      3375         
      1970  -55.199321      0.50641034    -54.692911      0.029520714    435.30677      514.16699      3375         
      1980  -55.293715      0.59515293    -54.698562      0.029520714    511.58927      328.79568      3375         
      1990  -55.0761        0.32804557    -54.748055      0.029520714    281.98566     -718.71007      3375         
      2000  -55.22853       0.45239835    -54.776132      0.029520714    388.87844     -273.85292      3375         
      2010  -55.300676      0.52784555    -54.77283       0.029520714    453.73232      731.20137      3375         
      2020  -55.217773      0.39036537    -54.827408      0.029520714    335.55533     -464.47179      3375         
      2030  -55.349078      0.49020909    -54.858869      0.029520714    421.38028     -185.52294      3375         
      2040  -55.430331      0.55375854    -54.876573      0.029520714    476.00695      143.63519      3375         
      2050  -55.217503      0.29774707    -54.919756      0.029520714    255.94128     -414.23293      3375         
      2060  -55.346         0.41268148    -54.933318      0.029520714    354.73809      475.20202      3375         
      2070  -55.390865      0.45382511    -54.93704       0.029520714    390.10487      895.37197      3375         
      2080  -55.267155      0.29459229    -54.972563      0.029520714    253.22946     -251.39847      3375         
      2090  -55.335527      0.34061466    -54.994912      0.029520714    292.78997     -192.1704       3375         
      2100  -55.36368       0.3691027     -54.994577      0.029520714    317.27809     -711.38701      3375         
      2110  -55.307527      0.28930761    -55.01822       0.029520714    248.68678     -1021.842       3375         
      2120  -55.351586      0.33999937    -55.011587      0.029520714    292.26107      1073.9455      3375         
      2130  -55.460686      0.44164445    -55.019042      0.029520714    379.63446      1383.7031      3375         
      2140  -55.353719      0.30462903    -55.04909       0.029520714    261.85697     -71.085931      3375         
      2150  -55.454734      0.39920721    -55.055527      0.029520714    343.15571     -541.99228      3375         
      2160  -55.487726      0.44343575    -55.04429       0.029520714    381.17425     -1025.4726      3375         
      2170  -55.389047      0.32338749    -55.06566       0.029520714    277.98161     -534.45224      3375         
      2180  -55.288033      0.21889071    -55.069142      0.029520714    188.15691      1169.5844      3375         
      2190  -55.419324      0.34197164    -55.077352      0.029520714    293.95641      700.33498      3375         
      2200  -55.393854      0.29763035    -55.096223      0.029520714    255.84096     -424.47209      3375         
      2210  -55.322529      0.22717315    -55.095356      0.029520714    195.27644     -329.90708      3375         
      2220  -55.467244      0.38718407    -55.08006       0.029520714    332.8207      -683.02683      3375         
      2230  -55.404178      0.31335754    -55.090821      0.029520714    269.35994      40.522453      3375         
      2240  -55.399097      0.30525922    -55.093838      0.029520714    262.39868      1297.6355      3375         
      2250  -55.448601      0.34928627    -55.099315      0.029520714    300.24402     -50.416003      3375         
      2260  -55.418065      0.3129024     -55.105162      0.029520714    268.9687      -978.71995      3375         
      2270  -55.323593      0.22735668    -55.096237      0.029520714    195.4342      -72.383892      3375         
      2280  -55.456411      0.3671334     -55.089278      0.029520714    315.58529     -217.24052      3375         
      2290  -55.453419      0.35406362    -55.099356      0.029520714    304.3506       455.90424      3375         
      2300  -55.350938      0.24929256    -55.101645      0.029520714    214.29013      820.70741      3375         
      2310  -55.28739       0.19542788    -55.091962      0.029520714    167.98843     -597.23092      3375         
      2320  -55.433904      0.34007388    -55.09383       0.029520714    292.32511     -236.07229      3375         
      2330  -55.427211      0.33733917    -55.089871      0.029520714    289.97438      502.75704      3375         
      2340  -55.308389      0.2316013     -55.076788      0.029520714    199.08285     -249.71176      3375         
      2350  -55.468113      0.39053802    -55.077575      0.029520714    335.70373      216.74237      3375         
      2360  -55.482999      0.41326908    -55.06973       0.029520714    355.2432       125.53652      3375         
      2370  -55.31253       0.26913148    -55.043398      0.029520714    231.34352     -898.63194      3375         
      2380  -55.371705      0.33210808    -55.039597      0.029520714    285.47777     -57.255339      3375         
      2390  -55.41444       0.39067819    -55.023762      0.029520714    335.82423      588.23934      3375         
      2400  -55.268115      0.28036811    -54.987747      0.029520714    241.00245      650.31334      3375         
      2410  -55.360017      0.36991748    -54.9901        0.029520714    317.97846      508.84393      3375         
      2420  -55.361742      0.39660217    -54.96514       0.029520714    340.91643     -1196.5912      3375         
      2430  -55.231087      0.31980062    -54.911287      0.029520714    274.89836     -1477.8729      3375         
      2440  -55.231717      0.32603888    -54.905678      0.029520714    280.26073      611.63169      3375         
      2450  -55.296236      0.41718836    -54.879048      0.029520714    358.61218      1210.359       3375         
      2460  -55.352185      0.50570535    -54.84648       0.029520714    434.70076      681.85109      3375         
      2470  -55.282365      0.44812388    -54.834241      0.029520714    385.20414     -406.13017      3375         
      2480  -55.239757      0.46170549    -54.778051      0.029520714    396.87879     -1331.1543      3375         
      2490  -55.410739      0.6500147     -54.760724      0.029520714    558.74807     -253.22321      3375         
      2500  -55.237557      0.47247467    -54.765083      0.029520714    406.1359       797.17221      3375         
      2510  -55.075915      0.32064565    -54.75527       0.029520714    275.62474      454.39952      3375         
      2520  -55.359909      0.61460917    -54.7453        0.029520714    528.31371      407.61286      3375         
      2530  -55.169619      0.4102799     -54.759339      0.029520714    352.67372     -257.29748      3375         
      2540  -55.118938      0.37733419    -54.741604      0.029520714    324.35382     -989.08236      3375         
      2550  -55.393499      0.64594314    -54.747556      0.029520714    555.24818     -199.36454      3375         
      2560  -55.250388      0.47661092    -54.773777      0.029520714    409.69139      692.03902      3375         
      2570  -55.117007      0.34142178    -54.775585      0.029520714    293.48376      823.42857      3375         
      2580  -55.358973      0.56840706    -54.790566      0.029520714    488.59871      248.2078       3375         
      2590  -55.396817      0.57712792    -54.819689      0.029520714    496.0951      -1148.0979      3375         
      2600  -55.091252      0.26727131    -54.82398       0.029520714    229.74454     -616.5704       3375         
      2610  -55.408978      0.54534128    -54.863637      0.029520714    468.77153      762.56465      3375         
      2620  -55.378117      0.46770457    -54.910412      0.029520714    402.03556      234.26534      3375         
      2630  -55.149638      0.22707135    -54.922567      0.029520714    195.18893     -161.86122      3375         
      2640  -55.245578      0.31791821    -54.92766       0.029520714    273.28026     -173.55617      3375         
      2650  -55.367743      0.41429074    -54.953452      0.029520714    356.12141     -375.66143      3375         
      2660  -55.234359      0.26294857    -54.97141       0.029520714    226.02874      729.25622      3375         
      2670  -55.327852      0.33460129    -54.99325       0.029520714    287.62092      476.98759      3375         
      2680  -55.465198      0.44988796    -55.01531       0.029520714    386.72053     -777.75559      3375         
      2690  -55.352389      0.33499577    -55.017394      0.029520714    287.96        -275.54285      3375         
      2700  -55.371333      0.35328379    -55.018049      0.029520714    303.68026     -216.60308      3375         
      2710  -55.452309      0.41603082    -55.036279      0.029520714    357.61716     -135.2211       3375         
      2720  -55.397466      0.34554634    -55.051919      0.029520714    297.0292       849.87678      3375         
      2730  -55.335773      0.28268365    -55.05309       0.029520714    242.99288      394.17834      3375         
      2740  -55.375454      0.31370429    -55.06175       0.029520714    269.658       -313.97918      3375         
      2750  -55.404292      0.34128536    -55.063007      0.029520714    293.3665      -127.64661      3375         
      2760  -55.405796      0.35247764    -55.053318      0.029520714    302.9873      -685.89369      3375         
      2770  -55.290598      0.22911861    -55.061479      0.029520714    196.94874     -101.79775      3375         
      2780  -55.405647      0.33563581    -55.070011      0.029520714    288.51018      1244.1096      3375         
      2790  -55.493429      0.42772311    -55.065706      0.029520714    367.66778      254.9885       3375         
      2800  -55.405558      0.33196501    -55.073593      0.029520714    285.35479     -911.88563      3375         
      2810  -55.424491      0.36252615    -55.061965      0.029520714    311.62493     -574.31297      3375         
      2820  -55.376243      0.33223794    -55.044005      0.029520714    285.58939      69.113123      3375         
      2830  -55.331971      0.26509011    -55.066881      0.029520714    227.86959      914.99569      3375         
      2840  -55.358592      0.27711192    -55.081481      0.029520714    238.20346      485.47892      3375         
      2850  -55.415392      0.36983645    -55.045555      0.029520714    317.90881     -872.84834      3375         
      2860  -55.319144      0.26143662    -55.057707      0.029520714    224.72908     -387.10845      3375         
      2870  -55.337926      0.28630402    -55.051622      0.029520714    246.10492      340.75194      3375         
      2880  -55.39221       0.3497588     -55.042452      0.029520714    300.65021     -101.0051       3375         
      2890  -55.438799      0.37909245    -55.059707      0.029520714    325.86521      99.107971      3375         
      2900  -55.356527      0.30767713    -55.048849      0.029520714    264.4771       135.8798       3375         
      2910  -55.300785      0.28185233    -55.018933      0.029520714    242.27828     -250.44103      3375         
      2920  -55.432619      0.39664753    -55.035971      0.029520714    340.95542      68.557962      3375         
      2930  -55.401889      0.38478688    -55.017103      0.029520714    330.76009      75.764691      3375         
      2940  -55.340895      0.33029068    -55.010605      0.029520714    283.91554      30.478532      3375         
      2950  -55.387982      0.36100379    -55.026978      0.029520714    310.31632      344.31971      3375         
      2960  -55.372423      0.36463039    -55.007792      0.029520714    313.43372     -288.71762      3375         
      2970  -55.222436      0.23540361    -54.987032      0.029520714    202.35128     -576.14083      3375         
      2980  -55.351264      0.35696413    -54.9943        0.029520714    306.84385      120.37858      3375         
      2990  -55.365264      0.39444464    -54.97082       0.029520714    339.06184      941.40863      3375         
      3000  -55.336137      0.36482953    -54.971308      0.029520714    313.6049       526.81583      3375         
      3010  -55.346949      0.36475038    -54.982199      0.029520714    313.53686     -745.07822      3375         
      3020  -55.403449      0.49123914    -54.91221       0.029520714    422.26571     -1221.1691      3375         
      3030  -55.326089      0.41453242    -54.911556      0.029520714    356.32915      128.66722      3375         
      3040  -55.209346      0.30008053    -54.909265      0.029520714    257.94711      1243.5161      3375         
      3050  -55.458127      0.56954918    -54.888578      0.029520714    489.58047      553.8333       3375         
      3060  -55.37449       0.48700913    -54.887481      0.029520714    418.62962     -812.44944      3375         
      3070  -55.135646      0.28333855    -54.852307      0.029520714    243.55583     -766.00561      3375         
      3080  -55.235962      0.43775406    -54.798208      0.029520714    376.29031      274.43286      3375         
      3090  -55.368203      0.55701269    -54.81119       0.029520714    478.80419      269.51786      3375         
      3100  -55.064843      0.27296489    -54.791878      0.029520714    234.6387       68.58549       3375         
      3110  -55.278079      0.53056155    -54.747517      0.029520714    456.06697      397.63943      3375         
      3120  -55.345626      0.59606829    -54.749557      0.029520714    512.37611     -158.77966      3375         
      3130  -55.209172      0.49326273    -54.715909      0.029520714    424.00517     -881.40267      3375         
      3140  -55.195346      0.51873372    -54.676612      0.029520714    445.89986     -307.81757      3375         
      3150  -55.281283      0.59666853    -54.684614      0.029520714    512.89207      383.14091      3375         
      3160  -55.226049      0.54175976    -54.68429       0.029520714    465.69288      1038.0319      3375         
      3170  -55.063467      0.37521657    -54.68825       0.029520714    322.53352      197.51989      3375         
      3180  -55.182078      0.49221009    -54.689868      0.029520714    423.10033     -1096.8241      3375         
      3190  -55.297008      0.62114281    -54.675865      0.029520714    533.92999      17.19755       3375         
      3200  -55.158371      0.45205847    -54.706313      0.029520714    388.58628      917.97585      3375         
      3210  -55.131693      0.38896366    -54.742729      0.029520714    334.35043      109.91791      3375         
      3220  -55.293507      0.52988132    -54.763626      0.029520714    455.48225     -683.31282      3375         
      3230  -55.143289      0.36419598    -54.779093      0.029520714    313.06031     -697.30078      3375         
      3240  -55.283977      0.4724736     -54.811504      0.029520714    406.13498      29.782361      3375         
      3250  -55.486761      0.6223271     -54.864434      0.029520714    534.948        919.2109       3375         
      3260  -55.284923      0.37073559    -54.914187      0.029520714    318.68171      498.109        3375         
      3270  -55.236476      0.28651224    -54.949964      0.029520714    246.28391     -206.9441       3375         
      3280  -55.407727      0.43259308    -54.975134      0.029520714    371.85397     -315.51553      3375         
      3290  -55.398058      0.3959805     -55.002077      0.029520714    340.38205     -611.83215      3375         
      3300  -55.253246      0.23492544    -55.01832       0.029520714    201.94026     -92.213337      3375         
      3310  -55.380755      0.33814326    -55.042612      0.029520714    290.66557      529.91099      3375         
      3320  -55.408907      0.34291926    -55.065987      0.029520714    294.77098      386.11076      3375         
      3330  -55.335219      0.26602663    -55.069192      0.029520714    228.67462      42.022905      3375         
      3340  -55.408089      0.33833854    -55.06975       0.029520714    290.83343     -629.99741      3375         
      3350  -55.450103      0.38177852    -55.068325      0.029520714    328.17413     -713.25074      3375         
      3360  -55.351114      0.27795672    -55.073157      0.029520714    238.92964      569.77267      3375         
      3370  -55.402487      0.30951908    -55.092968      0.029520714    266.06043      774.76838      3375         
      3380  -55.442082      0.33593478    -55.106147      0.029520714    288.76718     -10.959551      3375         
      3390  -55.396707      0.30495121    -55.091755      0.029520714    262.13391     -268.3812       3375         
      3400  -55.456659      0.36069463    -55.095965      0.029520714    310.05056     -592.47839      3375         
      3410  -55.366478      0.27000286    -55.096475      0.029520714    232.09256     -53.897712      3375         
      3420  -55.342221      0.24137786    -55.100843      0.029520714    207.48671      677.54084      3375         
      3430  -55.45197       0.33733565    -55.114635      0.029520714    289.97135      38.910669      3375         
      3440  -55.401714      0.29799623    -55.103717      0.029520714    256.15546     -141.57393      3375         
      3450  -55.398662      0.31663743    -55.082025      0.029520714    272.17931      212.42387      3375         
      3460  -55.502617      0.41228531    -55.090332      0.029520714    354.39755     -425.29605      3375         
      3470  -55.366249      0.27787195    -55.088377      0.029520714    238.85677     -99.037839      3375         
      3480  -55.367491      0.27671082    -55.09078       0.029520714    237.85868      462.30275      3375         
      3490  -55.463656      0.35714421    -55.106512      0.029520714    306.99865     -254.56267      3375         
      3500  -55.412902      0.34374573    -55.069156      0.029520714    295.48141     -184.69078      3375         
      3510  -55.287073      0.23413346    -55.05294       0.029520714    201.25948      201.07001      3375         
      3520  -55.360909      0.30285437    -55.058055      0.029520714    260.33148     -23.451555      3375         
      3530  -55.465444      0.41237059    -55.053073      0.029520714    354.47085      480.217        3375         
      3540  -55.297197      0.24481875    -55.052379      0.029520714    210.44447      4.8957293      3375         
      3550  -55.326148      0.2878175     -55.03833       0.029520714    247.4059      -1036.747       3375         
      3560  -55.501354      0.49934594    -55.002008      0.029520714    429.23426     -200.56407      3375         
      3570  -55.342976      0.35009204    -54.992884      0.029520714    300.93665      337.70919      3375         
      3580  -55.253491      0.27000115    -54.98349       0.029520714    232.09108      407.47077      3375         
      3590  -55.518778      0.54531285    -54.973466      0.029520714    468.74709      657.71709      3375         
      3600  -55.420369      0.45925567    -54.961113      0.029520714    394.77294     -330.04258      3375         
      3610  -55.206182      0.28955946    -54.916622      0.029520714    248.90328     -601.78218      3375         
      3620  -55.35649       0.46640074    -54.890089      0.029520714    400.9148       300.69259      3375         
      3630  -55.298839      0.40857639    -54.890263      0.029520714    351.20939     -159.74875      3375         
      3640  -55.098563      0.22375794    -54.874805      0.029520714    192.34075      10.837961      3375         
      3650  -55.371186      0.51753078    -54.853655      0.029520714    444.86582      488.78905      3375         
      3660  -55.447781      0.61180313    -54.835978      0.029520714    525.90167     -313.76119      3375         
      3670  -55.156455      0.36218164    -54.794273      0.029520714    311.32879     -408.00975      3375         
      3680  -55.179965      0.41507027    -54.764894      0.029520714    356.79149      52.226267      3375         
      3690  -55.384934      0.62526671    -54.759667      0.029520714    537.47486     -44.190498      3375         
      3700  -55.240478      0.48985292    -54.750625      0.029520714    421.07413      1048.9924      3375         
      3710  -55.133259      0.37838789    -54.754872      0.029520714    325.25957      538.44382      3375         
      3720  -55.279398      0.54427593    -54.735122      0.029520714    467.85576     -1432.0846      3375         
      3730  -55.196786      0.49020905    -54.706577      0.029520714    421.38025     -488.9902       3375         
      3740  -55.010291      0.28921335    -54.721077      0.029520714    248.60576      401.3487       3375         
      3750  -55.313462      0.57535839    -54.738104      0.029520714    494.57402      203.72682      3375         
      3760  -55.306996      0.54615814    -54.760838      0.029520714    469.4737       464.70701      3375         
      3770  -55.018399      0.24875834    -54.76964       0.029520714    213.83092     -268.64868      3375         
      3780  -55.326577      0.58250727    -54.74407       0.029520714    500.71915     -539.8406       3375         
      3790  -55.477311      0.68387135    -54.79344       0.029520714    587.851        330.48147      3375         
      3800  -55.082828      0.23886273    -54.843965      0.029520714    205.32472      133.70234      3375         
      3810  -55.301995      0.41271109    -54.889284      0.029520714    354.76355     -35.298257      3375         
      3820  -55.53046       0.57893917    -54.951521      0.029520714    497.65204      163.5685       3375         
      3830  -55.241764      0.26229269    -54.979471      0.029520714    225.46495     -424.64449      3375         
      3840  -55.334887      0.33064748    -55.004239      0.029520714    284.22225     -110.4041       3375         
      3850  -55.457307      0.40796774    -55.049339      0.029520714    350.6862       488.03684      3375         
      3860  -55.319748      0.24535673    -55.074392      0.029520714    210.90692      289.8596       3375         
      3870  -55.374654      0.26928965    -55.105364      0.029520714    231.47948      51.461832      3375         
      3880  -55.489891      0.36173769    -55.128153      0.029520714    310.94717     -597.71514      3375         
      3890  -55.38472       0.28969726    -55.095023      0.029520714    249.02173     -625.9896       3375         
      3900  -55.355837      0.23813202    -55.117705      0.029520714    204.69661      632.04274      3375         
      3910  -55.463707      0.32579299    -55.137914      0.029520714    280.04936      669.27359      3375         
      3920  -55.537615      0.38831746    -55.149298      0.029520714    333.79496     -43.595132      3375         
      3930  -55.384261      0.21650468    -55.167756      0.029520714    186.1059      -391.78255      3375         
      3940  -55.354368      0.21227167    -55.142097      0.029520714    182.46724     -600.27992      3375         
      3950  -55.495318      0.37404382    -55.121274      0.029520714    321.52544      159.7618       3375         
      3960  -55.385336      0.23797613    -55.14736       0.029520714    204.5626       715.20435      3375         
      3970  -55.370475      0.21681401    -55.153661      0.029520714    186.37179      81.502256      3375         
      3980  -55.48278       0.33195642    -55.150823      0.029520714    285.34741     -340.86968      3375         
      3990  -55.436202      0.27704287    -55.159159      0.029520714    238.1441      -537.32887      3375         
      4000  -55.418816      0.30027398    -55.118542      0.029520714    258.1134      -468.84049      3375         
      4010  -55.466326      0.35086885    -55.115457      0.029520714    301.6044       610.56385      3375         
      4020  -55.376109      0.24976913    -55.12634       0.029520714    214.69979      821.02022      3375         
      4030  -55.413303      0.2855464     -55.127757      0.029520714    245.45368      42.328087      3375         
      4040  -55.428121      0.31521684    -55.112904      0.029520714    270.95818     -464.12171      3375         
      4050  -55.409177      0.31446205    -55.094715      0.029520714    270.30937     -586.7291       3375         
      4060  -55.361758      0.3000395     -55.061718      0.029520714    257.91185      245.89884      3375         
      4070  -55.319715      0.24785155    -55.071863      0.029520714    213.05145      639.05943      3375         
      4080  -55.342132      0.27335732    -55.068775      0.029520714    234.97602     -229.39389      3375         
      4090  -55.394498      0.34549966    -55.048998      0.029520714    296.98908     -434.30361      3375         
      4100  -55.407741      0.37143312    -55.036307      0.029520714    319.28129     -73.338738      3375         
      4110  -55.410414      0.40718298    -55.003231      0.029520714    350.01162     -58.706233      3375         
      4120  -55.342524      0.38065285    -54.961871      0.029520714    327.20651      465.11774      3375         
      4130  -55.323724      0.35700247    -54.966722      0.029520714    306.87681      550.82384      3375         
      4140  -55.335553      0.37495703    -54.960596      0.029520714    322.31043      18.676432      3375         
      4150  -55.316629      0.3711142     -54.945515      0.029520714    319.00715     -518.01492      3375         
      4160  -55.368648      0.43465367    -54.933995      0.029520714    373.62523     -1076.8344      3375         
      4170  -55.463498      0.58948337    -54.874014      0.029520714    506.71576     -183.76823      3375         
      4180  -55.127045      0.25326021    -54.873784      0.029520714    217.7007       1535.0778      3375         
      4190  -55.249051      0.35856725    -54.890484      0.029520714    308.22189      741.43311      3375         
      4200  -55.417641      0.52953473    -54.888106      0.029520714    455.18433     -765.36991      3375         
      4210  -55.137547      0.27735374    -54.860193      0.029520714    238.41132     -1071.991       3375         
      4220  -55.335995      0.49867171    -54.837323      0.029520714    428.65469     -732.68152      3375         
      4230  -55.464436      0.63314643    -54.83129       0.029520714    544.24822      923.87629      3375         
      4240  -55.16671       0.32124984    -54.845461      0.029520714    276.1441       1313.136       3375         
      4250  -55.280958      0.41699027    -54.863968      0.029520714    358.4419      -333.33765      3375         
      4260  -55.396852      0.53804183    -54.85881       0.029520714    462.49698     -872.30935      3375         
      4270  -55.299281      0.45099008    -54.848291      0.029520714    387.6679      -76.714002      3375         
      4280  -55.1983        0.33481039    -54.86349       0.029520714    287.80066      369.18213      3375         
      4290  -55.278559      0.40108527    -54.877474      0.029520714    344.77008      576.59088      3375         
      4300  -55.392828      0.49822602    -54.894602      0.029520714    428.27158     -177.82948      3375         
      4310  -55.284786      0.37264346    -54.912143      0.029520714    320.32169     -641.15272      3375         
      4320  -55.357248      0.43292565    -54.924322      0.029520714    372.13984     -20.230395      3375         
      4330  -55.43123       0.48544662    -54.945783      0.029520714    417.2865      -156.28801      3375         
      4340  -55.256464      0.29185954    -54.964604      0.029520714    250.88041      245.98022      3375         
      4350  -55.343569      0.33505853    -55.00851       0.029520714    288.01395      953.05702      3375         
      4360  -55.484397      0.42620083    -55.058196      0.029520714    366.35923     -270.74723      3375         
      4370  -55.336579      0.26171643    -55.074863      0.029520714    224.9696      -971.26947      3375         
      4380  -55.323273      0.22731831    -55.095954      0.029520714    195.40122     -110.44639      3375         
      4390  -55.407934      0.2843373     -55.123596      0.029520714    244.41434      536.50848      3375         
      4400  -55.441246      0.28912959    -55.152116      0.029520714    248.53377      940.36477      3375         
      4410  -55.435513      0.24587738    -55.189635      0.029520714    211.35446     -100.26684      3375         
      4420  -55.425526      0.23030721    -55.195219      0.029520714    197.97046     -1506.4032      3375         
      4430  -55.525288      0.339424      -55.185864      0.029520714    291.76648     -556.46095      3375         
      4440  -55.451125      0.24645654    -55.204669      0.029520714    211.85231      899.39122      3375         
      4450  -55.396421      0.18680665    -55.209614      0.029520714    160.57769      992.67347      3375         
      4460  -55.513385      0.29519588    -55.218189      0.029520714    253.7483       290.21197      3375         
      4470  -55.439047      0.21200608    -55.227041      0.029520714    182.23893     -654.05313      3375         
      4480  -55.41402       0.21402226    -55.199997      0.029520714    183.97203     -778.74036      3375         
      4490  -55.569312      0.36697677    -55.202335      0.029520714    315.45065     -48.575263      3375         
      4500  -55.457241      0.24869552    -55.208545      0.029520714    213.77692      434.82494      3375         
      4510  -55.360644      0.16308864    -55.197555      0.029520714    140.18985      584.05447      3375         
      4520  -55.497999      0.29636398    -55.201635      0.029520714    254.7524       65.540986      3375         
      4530  -55.468194      0.26824162    -55.199952      0.029520714    230.57861     -643.83623      3375         
      4540  -55.412515      0.24493044    -55.167585      0.029520714    210.54048     -431.30536      3375         
      4550  -55.440132      0.27039379    -55.169738      0.029520714    232.4286       273.4681       3375         
      4560  -55.48765       0.32125028    -55.1664        0.029520714    276.14448      649.10531      3375         
      4570  -55.454759      0.30442038    -55.150338      0.029520714    261.67762      602.75677      3375         
      4580  -55.411816      0.25730488    -55.154511      0.029520714    221.17746     -655.85408      3375         
      4590  -55.382101      0.25647429    -55.125627      0.029520714    220.46349     -1225.4969      3375         
      4600  -55.397676      0.30365845    -55.094017      0.029520714    261.02267      295.03129      3375         
      4610  -55.298779      0.19532091    -55.103458      0.029520714    167.89648      1096.0551      3375         
      4620  -55.414985      0.31312626    -55.101859      0.029520714    269.16113      536.75206      3375         
      4630  -55.461748      0.38262899    -55.079119      0.029520714    328.90518     -812.61529      3375         
      4640  -55.288815      0.23849265    -55.050322      0.029520714    205.00661     -1397.6012      3375         
      4650  -55.432995      0.42322829    -55.009767      0.029520714    363.80406      335.76913      3375         
      4660  -55.513522      0.50384332    -55.009679      0.029520714    433.10017      1211.5902      3375         
      4670  -55.285492      0.27984959    -55.005643      0.029520714    240.55674      247.62633      3375         
      4680  -55.27721       0.27811928    -54.999091      0.029520714    239.06938     -202.48222      3375         
      4690  -55.375316      0.3972835     -54.978033      0.029520714    341.5021      -479.21716      3375         
      4700  -55.318452      0.35045188    -54.968         0.029520714    301.24597     -603.21611      3375         
      4710  -55.246246      0.29881466    -54.947432      0.029520714    256.85898      540.61903      3375         
      4720  -55.295376      0.35260752    -54.942769      0.029520714    303.09894      714.26473      3375         
      4730  -55.401413      0.45546391    -54.945949      0.029520714    391.51358      100.3676       3375         
      4740  -55.255077      0.31032746    -54.94475       0.029520714    266.7553      -106.15948      3375         
      4750  -55.34098       0.41928452    -54.921695      0.029520714    360.41402     -1216.6074      3375         
      4760  -55.40033       0.50561607    -54.894714      0.029520714    434.62402     -756.82638      3375         
      4770  -55.184538      0.28080483    -54.903733      0.029520714    241.37785      1505.3496      3375         
      4780  -55.251874      0.33888329    -54.912991      0.029520714    291.30169      1170.4836      3375         
      4790  -55.446391      0.51769022    -54.928701      0.029520714    445.00287     -361.06703      3375         
      4800  -55.289611      0.36143133    -54.928179      0.029520714    310.68383     -1058.6621      3375         
      4810  -55.309523      0.43002271    -54.8795        0.029520714    369.64449     -977.68762      3375         
      4820  -55.36905       0.46517526    -54.903875      0.029520714    399.86138      816.98897      3375         
      4830  -55.236152      0.31378686    -54.922366      0.029520714    269.72897      1596.108       3375         
      4840  -55.304643      0.37005135    -54.934592      0.029520714    318.09353     -429.53076      3375         
      4850  -55.283579      0.33718703    -54.946392      0.029520714    289.8436      -1406.4038      3375         
      4860  -55.342899      0.40435931    -54.938539      0.029520714    347.58442     -539.43721      3375         
      4870  -55.380342      0.45951315    -54.920829      0.029520714    394.99427      443.45296      3375         
      4880  -55.274527      0.32377168    -54.950755      0.029520714    278.31185      1128.9015      3375         
      4890  -55.426082      0.44512503    -54.980957      0.029520714    382.62635      448.75656      3375         
      4900  -55.442277      0.45853329    -54.983743      0.029520714    394.15199     -724.89382      3375         
      4910  -55.242841      0.23732234    -55.005518      0.029520714    204.00061     -260.91885      3375         
      4920  -55.36863       0.34375084    -55.02488       0.029520714    295.4858      -375.15879      3375         
      4930  -55.417821      0.38965856    -55.028163      0.029520714    334.94775     -109.43331      3375         
      4940  -55.290285      0.22249584    -55.067789      0.029520714    191.25586      920.88005      3375         
      4950  -55.328735      0.22285562    -55.10588       0.029520714    191.56512      340.04048      3375         
      4960  -55.42614       0.30312628    -55.123014      0.029520714    260.56522     -818.89747      3375         
      4970  -55.385784      0.24282777    -55.142956      0.029520714    208.73304     -532.3115       3375         
      4980  -55.426691      0.26675856    -55.159932      0.029520714    229.30378      291.4384       3375         
      4990  -55.532171      0.34006756    -55.192104      0.029520714    292.31968      1015.2234      3375         
      5000  -55.526923      0.30066824    -55.226255      0.029520714    258.4523       451.04318      3375         
      5010  -55.454996      0.19888348    -55.256113      0.029520714    170.95884     -882.37005      3375         
      5020  -55.488979      0.24678352    -55.242196      0.029520714    212.13338     -874.20667      3375         
      5030  -55.533493      0.27433737    -55.259155      0.029520714    235.81848      47.661396      3375         
      5040  -55.369699      0.11436029    -55.255338      0.029520714    98.303298      744.52976      3375         
      5050  -55.406803      0.143581      -55.263222      0.029520714    123.42121      742.07501      3375         
      5060  -55.546068      0.26072589    -55.285342      0.029520714    224.11814     -410.98785      3375         
      5070  -55.505269      0.24230998    -55.262959      0.029520714    208.28795     -921.21019      3375         
      5080  -55.49262       0.24679061    -55.245829      0.029520714    212.13947     -278.92664      3375         
      5090  -55.476783      0.22450069    -55.252282      0.029520714    192.97922      306.39742      3375         
      5100  -55.463603      0.21378056    -55.249823      0.029520714    183.76426      918.51861      3375         
      5110  -55.526996      0.274169      -55.252827      0.029520714    235.67375      234.7792       3375         
      5120  -55.455221      0.19878104    -55.25644       0.029520714    170.87078     -993.11273      3375         
      5130  -55.470333      0.24574059    -55.224593      0.029520714    211.23688     -345.4359       3375         
      5140  -55.512857      0.29515785    -55.217699      0.029520714    253.71561      482.71034      3375         
      5150  -55.426863      0.20885445    -55.218008      0.029520714    179.52981      603.02081      3375         
      5160  -55.515727      0.30813398    -55.207593      0.029520714    264.8698       322.55853      3375         
      5170  -55.427104      0.22729743    -55.199807      0.029520714    195.38327     -790.84565      3375         
      5180  -55.327335      0.14142511    -55.18591       0.029520714    121.56803     -866.47848      3375         
      5190  -55.472221      0.30878541    -55.163436      0.029520714    265.42977      449.81632      3375         
      5200  -55.515501      0.36323398    -55.152267      0.029520714    312.23338      649.17896      3375         
      5210  -55.426788      0.28023075    -55.146557      0.029520714    240.88438      537.21226      3375         
      5220  -55.391629      0.25516936    -55.136459      0.029520714    219.34179      25.011765      3375         
      5230  -55.419783      0.30776518    -55.112018      0.029520714    264.55278     -1123.5052      3375         
      5240  -55.486813      0.39466175    -55.092151      0.029520714    339.24846     -474.28626      3375         
      5250  -55.334169      0.25362041    -55.080548      0.029520714    218.01032      807.01645      3375         
      5260  -55.27928       0.20338605    -55.075894      0.029520714    174.82922      671.64395      3375         
      5270  -55.445128      0.36590154    -55.079226      0.029520714    314.52639      193.09155      3375         
      5280  -55.385846      0.31072875    -55.075117      0.029520714    267.10024     -883.26364      3375         
      5290  -55.364424      0.34049382    -55.02393       0.029520714    292.68609     -1374.8087      3375         
      5300  -55.444483      0.42674666    -55.017736      0.029520714    366.82843      498.93039      3375         
      5310  -55.27507       0.25415192    -55.020918      0.029520714    218.4672       1573.3302      3375         
      5320  -55.342654      0.32948218    -55.013172      0.029520714    283.22056      589.34234      3375         
      5330  -55.491198      0.47321619    -55.017982      0.029520714    406.77331     -772.8158       3375         
      5340  -55.369491      0.38323158    -54.986259      0.029520714    329.42317     -1296.5562      3375         
      5350  -55.296329      0.33763548    -54.958693      0.029520714    290.22908     -216.35184      3375         
      5360  -55.374272      0.39697373    -54.977299      0.029520714    341.23582      918.94004      3375         
      5370  -55.380606      0.40180524    -54.978801      0.029520714    345.38896      730.08058      3375         
      5380  -55.278869      0.30997857    -54.968891      0.029520714    266.45539     -252.52326      3375         
      5390  -55.283005      0.31365934    -54.969346      0.029520714    269.61936     -696.12172      3375         
      5400  -55.401749      0.45393535    -54.947813      0.029520714    390.19964     -196.99278      3375         
      5410  -55.302932      0.35536978    -54.947562      0.029520714    305.47336      459.84743      3375         
      5420  -55.329592      0.37564723    -54.953945      0.029520714    322.90372      700.62943      3375         
      5430  -55.448987      0.48607549    -54.962912      0.029520714    417.82707      172.17515      3375         
      5440  -55.223635      0.27159784    -54.952037      0.029520714    233.46359     -645.01442      3375         
      5450  -55.330833      0.37086742    -54.959965      0.029520714    318.79502     -896.27705      3375         
      5460  -55.48623       0.56423051    -54.922         0.029520714    485.00858     -186.9867       3375         
      5470  -55.214479      0.2745011     -54.939978      0.029520714    235.95922      1097.3862      3375         
      5480  -55.338925      0.36504761    -54.973878      0.029520714    313.79236      1139.2332      3375         
      5490  -55.416479      0.44860663    -54.967872      0.029520714    385.6191      -478.60704      3375         
      5500  -55.212228      0.26471992    -54.947508      0.029520714    227.55138     -1890.7522      3375         
      5510  -55.353404      0.4078514     -54.945552      0.029520714    350.58619     -631.77472      3375         
      5520  -55.318148      0.3613476     -54.9568        0.029520714    310.61185      1655.0198      3375         
      5530  -55.310375      0.33597673    -54.974398      0.029520714    288.80323      1256.4972      3375         
      5540  -55.497402      0.48002499    -55.017377      0.029520714    412.62611     -629.97836      3375         
      5550  -55.332925      0.35194058    -54.980984      0.029520714    302.52565     -1364.569       3375         
      5560  -55.320627      0.32541175    -54.995215      0.029520714    279.72165     -311.08934      3375         
      5570  -55.479384      0.44590964    -55.033474      0.029520714    383.30079      1085.9697      3375         
      5580  -55.335866      0.28440427    -55.051462      0.029520714    244.47191      944.03299      3375         
      5590  -55.354015      0.2691827     -55.084832      0.029520714    231.38755     -577.14988      3375         
      5600  -55.441711      0.32670518    -55.115006      0.029520714    280.83347     -703.70959      3375         
      5610  -55.35334       0.25301023    -55.10033       0.029520714    217.48582     -57.344572      3375         
      5620  -55.437811      0.29640663    -55.141404      0.029520714    254.78906     -201.99351      3375         
      5630  -55.463089      0.28836801    -55.174721      0.029520714    247.87912      387.17879      3375         
      5640  -55.498865      0.31259837    -55.186266      0.029520714    268.70736      862.60694      3375         
      5650  -55.468882      0.25207433    -55.216808      0.029520714    216.68132      28.071774      3375         
      5660  -55.501649      0.26517903    -55.23647       0.029520714    227.94603     -743.7883       3375         
      5670  -55.475624      0.25265148    -55.222973      0.029520714    217.17743     -799.45875      3375         
      5680  -55.419803      0.17874195    -55.241061      0.029520714    153.64532      85.850267      3375         
      5690  -55.464853      0.20822957    -55.256623      0.029520714    178.99267      1372.9334      3375         
      5700  -55.563571      0.29441229    -55.269159      0.029520714    253.07473      558.68471      3375         
      5710  -55.485636      0.21231142    -55.273325      0.029520714    182.5014      -1342.9822      3375         
      5720  -55.477318      0.22812226    -55.249196      0.029520714    196.09229     -1006.3093      3375         
      5730  -55.470892      0.22900771    -55.241884      0.029520714    196.85342      595.699        3375         
      5740  -55.455538      0.19658667    -55.258952      0.029520714    168.98452      1107.9842      3375         
      5750  -55.51559       0.24075077    -55.27484       0.029520714    206.94767      296.93205      3375         
      5760  -55.414545      0.16773517    -55.24681       0.029520714    144.18397     -1008.7952      3375         
      5770  -55.461199      0.23840892    -55.22279       0.029520714    204.93463     -629.78878      3375         
      5780  -55.584221      0.35744056    -55.22678       0.029520714    307.25339      561.22031      3375         
      5790  -55.449713      0.23329076    -55.216422      0.029520714    200.5351       325.33873      3375         
      5800  -55.4313        0.22256469    -55.208735      0.029520714    191.31504     -26.883654      3375         
      5810  -55.546559      0.3473501     -55.199209      0.029520714    298.5797       69.175083      3375         
      5820  -55.301283      0.12562859    -55.175654      0.029520714    107.98945     -204.36584      3375         
      5830  -55.352399      0.18779385    -55.164606      0.029520714    161.42627     -201.44401      3375         
      5840  -55.503068      0.34855526    -55.154512      0.029520714    299.61565      119.04322      3375         
      5850  -55.427382      0.29393441    -55.133448      0.029520714    252.66395      401.16264      3375         
      5860  -55.42333       0.30367523    -55.119655      0.029520714    261.03709      580.48522      3375         
      5870  -55.562317      0.442133      -55.120184      0.029520714    380.05441     -524.23612      3375         
      5880  -55.424907      0.36015754    -55.064749      0.029520714    309.58888     -1334.1382      3375         
      5890  -55.240072      0.19091476    -55.049158      0.029520714    164.10899      71.09495       3375         
      5900  -55.351211      0.29139968    -55.059811      0.029520714    250.48511      1366.5746      3375         
      5910  -55.455503      0.39911261    -55.05639       0.029520714    343.07439      894.66884      3375         
      5920  -55.28836       0.23647904    -55.051881      0.029520714    203.27572     -829.84404      3375         
      5930  -55.364076      0.34269706    -55.021379      0.029520714    294.57998     -1482.76        3375         
      5940  -55.515843      0.52208029    -54.993763      0.029520714    448.77654      32.006047      3375         
      5950  -55.285499      0.27421061    -55.011288      0.029520714    235.70951      1133.0347      3375         
      5960  -55.332447      0.31225215    -55.020195      0.029520714    268.40975      368.37763      3375         
      5970  -55.454507      0.44967569    -55.004831      0.029520714    386.53806     -491.46769      3375         
      5980  -55.270995      0.27529407    -54.995701      0.029520714    236.64084     -551.42494      3375         
      5990  -55.227611      0.23462543    -54.992985      0.029520714    201.68236      44.217089      3375         
      6000  -55.448584      0.46385767    -54.984726      0.029520714    398.72879      733.31802      3375         
      6010  -55.370279      0.37739318    -54.992886      0.029520714    324.40452     -85.998958      3375         
      6020  -55.340303      0.34544035    -54.994863      0.029520714    296.93809     -258.51271      3375         
      6030  -55.380523      0.41258144    -54.967942      0.029520714    354.6521       390.81026      3375         
      6040  -55.394964      0.41507546    -54.979889      0.029520714    356.79595     -382.45193      3375         
      6050  -55.305201      0.32663063    -54.978571      0.029520714    280.76939     -677.13694      3375         
      6060  -55.309569      0.34777079    -54.961798      0.029520714    298.94132      437.19403      3375         
      6070  -55.355904      0.37783292    -54.978071      0.029520714    324.78252      706.868        3375         
      6080  -55.290785      0.29078868    -54.999997      0.029520714    249.9599       243.90777      3375         
      6090  -55.297686      0.33391841    -54.963768      0.029520714    287.03391     -854.84339      3375         
      6100  -55.397656      0.44295723    -54.954699      0.029520714    380.76292     -845.1264       3375         
      6110  -55.387829      0.41704696    -54.970782      0.029520714    358.49064      1067.7653      3375         
      6120  -55.408831      0.43226467    -54.976566      0.029520714    371.57167      1258.141       3375         
      6130  -55.411511      0.41206777    -54.999444      0.029520714    354.21055     -904.76615      3375         
      6140  -55.322432      0.33071098    -54.991721      0.029520714    284.27683     -1126.4529      3375         
      6150  -55.299919      0.33439266    -54.965527      0.029520714    287.44158     -40.369123      3375         
      6160  -55.282611      0.29387128    -54.988739      0.029520714    252.60968      432.9394       3375         
      6170  -55.337092      0.32633378    -55.010759      0.029520714    280.51422      983.5409       3375         
      6180  -55.4048        0.39833679    -55.006463      0.029520714    342.4075      -85.373516      3375         
      6190  -55.375119      0.36986921    -55.00525       0.029520714    317.93697     -763.66204      3375         
      6200  -55.432148      0.41701408    -55.015134      0.029520714    358.46237     -91.471948      3375         
      6210  -55.380541      0.36949199    -55.011049      0.029520714    317.61271     -159.38378      3375         
      6220  -55.315396      0.27961838    -55.035777      0.029520714    240.35799     -43.121846      3375         
      6230  -55.433337      0.36759641    -55.065741      0.029520714    315.98329      784.98772      3375         
      6240  -55.390202      0.32071831    -55.069483      0.029520714    275.6872       112.30081      3375         
      6250  -55.309151      0.22817585    -55.080975      0.029520714    196.13836     -706.93276      3375         
      6260  -55.409803      0.3169373     -55.092866      0.029520714    272.43707     -130.64105      3375         
      6270  -55.401243      0.29430737    -55.106935      0.029520714    252.98455      309.80807      3375         
      6280  -55.359334      0.22957956    -55.129754      0.029520714    197.34497      474.3831       3375         
      6290  -55.484589      0.31846869    -55.166121      0.029520714    273.75345      349.37491      3375         
      6300  -55.450802      0.28705254    -55.163749      0.029520714    246.74834     -791.84792      3375         
      6310  -55.454245      0.28201204    -55.172233      0.029520714    242.41556     -696.25574      3375         
      6320  -55.500183      0.30601559    -55.194167      0.029520714    263.04885      510.55596      3375         
      6330  -55.415366      0.20765179    -55.207714      0.029520714    178.49601      518.79892      3375         
      6340  -55.431829      0.19750531    -55.234324      0.029520714    169.77418      79.039268      3375         
      6350  -55.480924      0.23940545    -55.241518      0.029520714    205.79124     -105.96364      3375         
      6360  -55.465175      0.25549119    -55.209683      0.029520714    219.61843     -316.96347      3375         
[...]
     48420  -55.305186      0.2257889     -55.079397      0.029520714    194.08655      179.65792      3375         
     48430  -55.444761      0.37746937    -55.067292      0.029520714    324.47001     -544.04976      3375         
     48440  -55.38947       0.33426014    -55.05521       0.029520714    287.32766     -180.27019      3375         
     48450  -55.318917      0.26141664    -55.0575        0.029520714    224.7119       469.71276      3375         
     48460  -55.340666      0.31854707    -55.022119      0.029520714    273.82082      404.90817      3375         
     48470  -55.476277      0.45967788    -55.016599      0.029520714    395.13587     -213.10358      3375         
     48480  -55.420277      0.40894805    -55.011329      0.029520714    351.52886     -571.72962      3375         
     48490  -55.307824      0.31484335    -54.99298       0.029520714    270.63713      304.90082      3375         
     48500  -55.305691      0.30625561    -54.999436      0.029520714    263.25517      903.01727      3375         
     48510  -55.431706      0.42028363    -55.011422      0.029520714    361.27285     -530.54324      3375         
     48520  -55.297502      0.34318082    -54.954321      0.029520714    294.99582     -1284.1804      3375         
     48530  -55.311312      0.34921987    -54.962092      0.029520714    300.18694     -185.56302      3375         
     48540  -55.350955      0.38755845    -54.963396      0.029520714    333.14252      1549.8135      3375         
     48550  -55.394747      0.43275763    -54.96199       0.029520714    371.99542      1268.4159      3375         
     48560  -55.325445      0.34655989    -54.978885      0.029520714    297.90044     -1018.0589      3375         
     48570  -55.321981      0.40158671    -54.920395      0.029520714    345.20111     -1330.4754      3375         
     48580  -55.346494      0.42096162    -54.925533      0.029520714    361.85565      258.88128      3375         
     48590  -55.264352      0.32227955    -54.942073      0.029520714    277.02924      328.61582      3375         
     48600  -55.325184      0.37503743    -54.950147      0.029520714    322.37953      234.67661      3375         
     48610  -55.383178      0.43923421    -54.943944      0.029520714    377.56264      135.58407      3375         
     48620  -55.349047      0.40986176    -54.939185      0.029520714    352.31429     -240.78125      3375         
     48630  -55.299338      0.38405945    -54.915279      0.029520714    330.1348       250.43101      3375         
     48640  -55.331134      0.39515386    -54.93598       0.029520714    339.67148     -184.44842      3375         
     48650  -55.374285      0.420056      -54.954229      0.029520714    361.07719     -722.64275      3375         
     48660  -55.351202      0.40910302    -54.942099      0.029520714    351.66208      940.57098      3375         
     48670  -55.189185      0.22645856    -54.962726      0.029520714    194.66218      863.78584      3375         
     48680  -55.422814      0.45135156    -54.971463      0.029520714    387.97863     -1303.453       3375         
     48690  -55.415507      0.45600556    -54.959501      0.029520714    391.97917     -847.49851      3375         
     48700  -55.313174      0.31500787    -54.998166      0.029520714    270.77855      49.559799      3375         
     48710  -55.369039      0.33946117    -55.029578      0.029520714    291.79844      1167.4062      3375         
     48720  -55.497067      0.43432238    -55.062744      0.029520714    373.34046      776.37942      3375         
     48730  -55.338978      0.2597686     -55.079209      0.029520714    223.29526     -1200.4836      3375         
     48740  -55.381505      0.29262275    -55.088883      0.029520714    251.53646     -370.63083      3375         
     48750  -55.41628       0.28560419    -55.130675      0.029520714    245.50335      915.58483      3375         
     48760  -55.415206      0.24744494    -55.167761      0.029520714    212.70193     -50.44002       3375         
     48770  -55.455616      0.25785117    -55.197765      0.029520714    221.64705     -485.74081      3375         
     48780  -55.536146      0.34960557    -55.186541      0.029520714    300.51848     -259.86004      3375         
     48790  -55.491944      0.29576852    -55.196176      0.029520714    254.24054      109.21428      3375         
     48800  -55.381267      0.16087309    -55.220394      0.029520714    138.28538      890.91675      3375         
     48810  -55.452568      0.21502117    -55.237547      0.029520714    184.83068      94.809942      3375         
     48820  -55.548248      0.30319196    -55.245056      0.029520714    260.62168     -795.08503      3375         
     48830  -55.424404      0.18332317    -55.24108       0.029520714    157.58331      96.688835      3375         
     48840  -55.448095      0.20721827    -55.240877      0.029520714    178.12337     -96.121727      3375         
     48850  -55.523411      0.28470315    -55.238708      0.029520714    244.72882     -551.22079      3375         
     48860  -55.483301      0.23755749    -55.245743      0.029520714    204.20275      517.18537      3375         
     48870  -55.493783      0.23939977    -55.254383      0.029520714    205.78636      593.40459      3375         
     48880  -55.467424      0.21569398    -55.25173       0.029520714    185.40903      130.44006      3375         
     48890  -55.477902      0.23735675    -55.240545      0.029520714    204.03019     -224.88054      3375         
     48900  -55.450745      0.24010027    -55.210645      0.029520714    206.3885      -981.80426      3375         
     48910  -55.423871      0.21060471    -55.213267      0.029520714    181.03432     -1.5990501      3375         
     48920  -55.441323      0.2230476     -55.218276      0.029520714    191.73015      1210.2605      3375         
     48930  -55.513963      0.29664759    -55.217316      0.029520714    254.99618     -31.386725      3375         
     48940  -55.48983       0.30447208    -55.185358      0.029520714    261.72205     -745.06254      3375         
     48950  -55.490687      0.33779113    -55.152895      0.029520714    290.36288     -413.97336      3375         
     48960  -55.365892      0.23239285    -55.1335        0.029520714    199.76326      78.4152        3375         
     48970  -55.345842      0.21168434    -55.134157      0.029520714    181.96237      903.4368       3375         
     48980  -55.425826      0.28566174    -55.140164      0.029520714    245.55282      140.18146      3375         
     48990  -55.353479      0.25427901    -55.0992        0.029520714    218.57645     -743.61067      3375         
     49000  -55.385756      0.31938072    -55.066375      0.029520714    274.53742      730.55885      3375         
     49010  -55.482879      0.42521776    -55.057661      0.029520714    365.51419      128.42015      3375         
     49020  -55.352653      0.31475556    -55.037898      0.029520714    270.56166     -926.63851      3375         
     49030  -55.444475      0.413583      -55.030892      0.029520714    355.51303     -134.7745       3375         
     49040  -55.492558      0.46930899    -55.023249      0.029520714    403.4147       200.73061      3375         
     49050  -55.211443      0.21389599    -54.997547      0.029520714    183.86349      370.41809      3375         
     49060  -55.204506      0.2189613     -54.985545      0.029520714    188.2176       159.28167      3375         
     49070  -55.35795       0.38986681    -54.968083      0.029520714    335.12676     -558.63013      3375         
     49080  -55.384267      0.4155878     -54.968679      0.029520714    357.23635      331.83522      3375         
     49090  -55.351476      0.37326388    -54.978212      0.029520714    320.85501      679.04783      3375         
     49100  -55.37235       0.39562586    -54.976724      0.029520714    340.0772      -845.64089      3375         
     49110  -55.398008      0.46399039    -54.934018      0.029520714    398.84287     -587.71539      3375         
     49120  -55.323206      0.38356816    -54.939638      0.029520714    329.71249      215.06906      3375         
     49130  -55.260736      0.31350386    -54.947232      0.029520714    269.48571      418.8254       3375         
     49140  -55.411631      0.4538439     -54.957787      0.029520714    390.12102      777.84466      3375         
     49150  -55.279436      0.30209928    -54.977337      0.029520714    259.68242     -371.49158      3375         
     49160  -55.189562      0.25150123    -54.938061      0.029520714    216.18868     -813.68153      3375         
     49170  -55.425328      0.49734682    -54.927982      0.029520714    427.51582      434.59048      3375         
     49180  -55.403669      0.4612403     -54.942429      0.029520714    396.47891      21.743104      3375         
     49190  -55.243978      0.29248044    -54.951497      0.029520714    251.41413     -354.38145      3375         
     49200  -55.446404      0.48263395    -54.96377       0.029520714    414.86874      546.26308      3375         
     49210  -55.366413      0.39396215    -54.97245       0.029520714    338.64709      86.424087      3375         
     49220  -55.256223      0.29371553    -54.962508      0.029520714    252.4758      -451.10111      3375         
     49230  -55.268394      0.31176894    -54.956625      0.029520714    267.99439     -58.618467      3375         
     49240  -55.282629      0.31419406    -54.968435      0.029520714    270.07901      93.593893      3375         
     49250  -55.451963      0.4671741     -54.984789      0.029520714    401.57957      629.98742      3375         
     49260  -55.429014      0.42178961    -55.007224      0.029520714    362.56738      374.23821      3375         
     49270  -55.293524      0.30377463    -54.989749      0.029520714    261.12253     -1034.9021      3375         
     49280  -55.429277      0.438702      -54.990575      0.029520714    377.10515     -491.28365      3375         
     49290  -55.348445      0.3443697     -55.004075      0.029520714    296.01777      668.86601      3375         
     49300  -55.293035      0.26812753    -55.024907      0.029520714    230.48054      212.4182       3375         
     49310  -55.491765      0.42343963    -55.068325      0.029520714    363.98572     -122.01209      3375         
     49320  -55.318194      0.26002342    -55.058171      0.029520714    223.5143      -654.58166      3375         
     49330  -55.282167      0.25180076    -55.030366      0.029520714    216.44616      7.5663961      3375         
     49340  -55.475274      0.39923978    -55.076034      0.029520714    343.1837       1154.9441      3375         
     49350  -55.47823       0.37834878    -55.099881      0.029520714    325.22595      301.38245      3375         
     49360  -55.428138      0.29692041    -55.131217      0.029520714    255.2307      -922.19473      3375         
     49370  -55.444462      0.27675645    -55.167706      0.029520714    237.8979      -604.0104       3375         
     49380  -55.386524      0.23567822    -55.150846      0.029520714    202.58734     -7.8302515      3375         
     49390  -55.457388      0.27692112    -55.180467      0.029520714    238.03945      359.06043      3375         
     49400  -55.43263       0.22134087    -55.211289      0.029520714    190.26306      527.2751       3375         
     49410  -55.45576       0.23974062    -55.216019      0.029520714    206.07935      240.96156      3375         
     49420  -55.5302        0.28351936    -55.24668       0.029520714    243.71125     -141.13734      3375         
     49430  -55.533092      0.26246736    -55.270624      0.029520714    225.6151      -475.9156       3375         
     49440  -55.422242      0.18199297    -55.240249      0.029520714    156.43987     -478.48136      3375         
     49450  -55.481497      0.21659087    -55.264906      0.029520714    186.17999      193.86541      3375         
     49460  -55.56818       0.28624191    -55.281938      0.029520714    246.05153      737.91918      3375         
     49470  -55.483408      0.19694757    -55.28646       0.029520714    169.29475      182.4301       3375         
     49480  -55.455305      0.15075194    -55.304553      0.029520714    129.58531     -725.9677       3375         
     49490  -55.523577      0.24846619    -55.27511       0.029520714    213.57979     -325.11445      3375         
     49500  -55.490894      0.2299513     -55.260943      0.029520714    197.66452      536.32774      3375         
     49510  -55.502795      0.22147827    -55.281317      0.029520714    190.38116      444.61083      3375         
     49520  -55.552666      0.27092534    -55.281741      0.029520714    232.88552     -219.86203      3375         
     49530  -55.44894       0.18058876    -55.268351      0.029520714    155.23283     -628.87949      3375         
     49540  -55.432013      0.16295157    -55.269061      0.029520714    140.07202     -131.53335      3375         
     49550  -55.549276      0.30538141    -55.243895      0.029520714    262.50371      573.1733       3375         
     49560  -55.504662      0.26989147    -55.23477       0.029520714    231.99681      144.02547      3375         
     49570  -55.430283      0.19419152    -55.236091      0.029520714    166.92566     -412.41915      3375         
     49580  -55.469593      0.25172768    -55.217866      0.029520714    216.38335     -53.273238      3375         
     49590  -55.482879      0.27960403    -55.203275      0.029520714    240.34566      211.432        3375         
     49600  -55.497117      0.30504835    -55.192069      0.029520714    262.21742      180.75077      3375         
     49610  -55.4253        0.26833609    -55.156964      0.029520714    230.65982      106.18807      3375         
     49620  -55.364603      0.20719963    -55.157403      0.029520714    178.10734     -197.91286      3375         
     49630  -55.409981      0.2528601     -55.157121      0.029520714    217.35677     -51.307202      3375         
     49640  -55.509477      0.35957351    -55.149904      0.029520714    309.08686     -318.46144      3375         
     49650  -55.397837      0.2659548     -55.131883      0.029520714    228.61288     -653.61068      3375         
     49660  -55.401471      0.30209002    -55.099381      0.029520714    259.67446      793.38201      3375         
     49670  -55.50198       0.40248327    -55.099497      0.029520714    345.97179      1549.4384      3375         
     49680  -55.414959      0.30658219    -55.108377      0.029520714    263.53589     -235.56316      3375         
     49690  -55.296736      0.1832253     -55.11351       0.029520714    157.49918     -1515.9126      3375         
     49700  -55.423345      0.34053257    -55.082813      0.029520714    292.7194      -978.13033      3375         
     49710  -55.418498      0.34297377    -55.075524      0.029520714    294.81784      519.9072       3375         
     49720  -55.370545      0.29371879    -55.076826      0.029520714    252.47861      1446.1686      3375         
     49730  -55.387131      0.30930454    -55.077826      0.029520714    265.876        198.11023      3375         
     49740  -55.411204      0.33993584    -55.071268      0.029520714    292.20646     -970.59321      3375         
     49750  -55.399412      0.34432073    -55.055092      0.029520714    295.97568     -94.050742      3375         
     49760  -55.413713      0.36237936    -55.051334      0.029520714    311.49875      236.62063      3375         
     49770  -55.363009      0.32352723    -55.039482      0.029520714    278.10173     -221.74798      3375         
     49780  -55.337562      0.30727721    -55.030284      0.029520714    264.13333      203.01233      3375         
     49790  -55.323352      0.29040302    -55.032949      0.029520714    249.62839      138.99312      3375         
     49800  -55.372887      0.34089342    -55.031993      0.029520714    293.02958     -62.202776      3375         
     49810  -55.577039      0.55597752    -55.021061      0.029520714    477.91437     -264.86047      3375         
     49820  -55.316883      0.31937832    -54.997505      0.029520714    274.53536     -410.91703      3375         
     49830  -55.198612      0.21223771    -54.986374      0.029520714    182.43804      650.23548      3375         
     49840  -55.390786      0.39656584    -54.99422       0.029520714    340.88521      1079.214       3375         
     49850  -55.388405      0.38445683    -55.003948      0.029520714    330.47639     -926.33539      3375         
     49860  -55.233303      0.26180919    -54.971494      0.029520714    225.04934     -1305.9998      3375         
     49870  -55.352063      0.39499607    -54.957067      0.029520714    339.53584      643.68495      3375         
     49880  -55.322028      0.36473501    -54.957293      0.029520714    313.52365      1179.9546      3375         
     49890  -55.403595      0.45115836    -54.952436      0.029520714    387.81255      539.57609      3375         
     49900  -55.415143      0.45476733    -54.960375      0.029520714    390.9148      -1209.3123      3375         
     49910  -55.334416      0.4012752     -54.93314       0.029520714    344.93334     -1667.3554      3375         
     49920  -55.32156       0.4186865     -54.902873      0.029520714    359.89997      1065.4948      3375         
     49930  -55.249953      0.32632764    -54.923625      0.029520714    280.50895      1542.4932      3375         
     49940  -55.225421      0.30210042    -54.923321      0.029520714    259.68339      3.5221865      3375         
     49950  -55.318002      0.40350988    -54.914492      0.029520714    346.85426     -292.72451      3375         
     49960  -55.296113      0.37480156    -54.921311      0.029520714    322.17678     -1099.4242      3375         
     49970  -55.351424      0.45394603    -54.897478      0.029520714    390.20881     -768.10939      3375         
     49980  -55.401593      0.51329861    -54.888294      0.029520714    441.22788      565.67368      3375         
     49990  -55.262208      0.36877836    -54.89343       0.029520714    316.99929      472.40465      3375         
     50000  -55.309928      0.41791856    -54.892009      0.029520714    359.23985      1087.9393      3375         
Loop time of 82.4184 on 3 procs for 50000 steps with 10 atoms

Performance: 26.208 ns/day, 0.916 hours/ns, 606.660 timesteps/s, 6.067 katom-step/s
168.2% CPU use with 3 MPI tasks x no OpenMP threads

MPI task timing breakdown:
Section |  min time  |  avg time  |  max time  |%varavg| %total
---------------------------------------------------------------
Pair    | 26.994     | 44.368     | 78.697     | 364.4 | 53.83
Neigh   | 0.00059631 | 0.00077135 | 0.0010807  |   0.0 |  0.00
Comm    | 1.0329     | 35.279     | 52.645     | 407.7 | 42.81
Output  | 0.50055    | 0.52289    | 0.56363    |   4.0 |  0.63
Modify  | 1.92       | 2.0064     | 2.1042     |   5.3 |  2.43
Other   |            | 0.2411     |            |       |  0.29

Nlocal:        3.33333 ave          10 max           0 min
Histogram: 2 0 0 0 0 0 0 0 0 1
Nghost:        77.3333 ave          96 max          46 min
Histogram: 1 0 0 0 0 0 0 0 1 1
Neighs:              0 ave           0 max           0 min
Histogram: 3 0 0 0 0 0 0 0 0 0
FullNghs:           30 ave          90 max           0 min
Histogram: 2 0 0 0 0 0 0 0 0 1

Total # of neighbors = 90
Ave neighs/atom = 9
Neighbor list builds = 120
Dangerous builds = 0

write_data	restart.data
System init for write_data ...
Generated 0 of 1 mixed pair_coeff terms from geometric mixing rule
#
Total wall time: 0:01:24
