10
 Atoms. Timestep: 0
C 8.44164 8.63329 6.43464
C 7.55153 7.69883 6.78883
C 7.31237 7.40832 8.14497
C 6.69725 6.32832 8.61752
H 8.68464 8.86774 5.31987
H 9.12152 9.01612 7.18031
H 6.88902 7.27346 6.08143
H 7.67632 8.15658 8.84855
H 6.26624 5.45744 7.8999
H 6.46957 6.03611 9.64316
10
 Atoms. Timestep: 20
C 8.43478 8.58958 6.46536
C 7.51988 7.70835 6.77814
C 7.32204 7.43495 8.19601
C 6.72277 6.3059 8.52543
H 8.61799 8.87872 5.48459
H 8.98832 9.02876 7.28972
H 6.96966 7.28194 5.93284
H 7.81539 8.04513 8.98189
H 6.26589 5.65751 7.857
H 6.46991 6.09527 9.5533
10
 Atoms. Timestep: 40
C 8.47321 8.59052 6.50662
C 7.46768 7.73099 6.79414
C 7.34361 7.41665 8.19354
C 6.68492 6.28461 8.48634
H 8.66887 8.9631 5.5016
H 8.98101 9.18444 7.31871
H 6.9291 7.09751 6.01674
H 7.87441 8.01539 8.93753
H 6.26236 5.74208 7.63824
H 6.59169 6.08087 9.59237
10
 Atoms. Timestep: 60
C 8.45175 8.63593 6.51976
C 7.51851 7.77388 6.82164
C 7.34376 7.36214 8.15318
C 6.65549 6.31275 8.50284
H 8.78667 8.9445 5.46642
H 8.96313 9.17054 7.29615
H 6.94168 7.14165 6.20782
H 7.85054 7.99984 8.85653
H 6.17132 5.67086 7.62366
H 6.59359 5.7844 9.45388
10
 Atoms. Timestep: 80
C 8.43214 8.68784 6.52776
C 7.54262 7.74892 6.81333
C 7.36397 7.37731 8.20553
C 6.64132 6.27491 8.43866
H 8.75706 8.85679 5.512
H 9.00195 9.14565 7.32599
H 6.94333 7.27127 6.01416
H 7.87585 7.96302 8.99889
H 6.097 5.70915 7.74604
H 6.56853 5.74026 9.38025
10
 Atoms. Timestep: 100
C 8.43376 8.6872 6.54903
C 7.5355 7.74495 6.83056
C 7.35275 7.36684 8.2224
C 6.65478 6.2355 8.39406
H 8.64433 8.93695 5.54409
H 9.07011 9.16481 7.34147
H 6.99747 7.32691 5.92986
H 7.89396 7.83166 9.05385
H 6.10099 5.82592 7.57524
H 6.55645 5.92679 9.46817
10
 Atoms. Timestep: 120
C 8.45982 8.67412 6.57373
C 7.54735 7.80457 6.86052
C 7.34388 7.30402 8.1649
C 6.65881 6.25581 8.40761
H 8.55865 9.11694 5.54044
H 9.06542 9.16293 7.32447
H 6.98323 7.25175 6.15544
H 7.88975 7.78616 8.94764
H 6.14524 5.78793 7.4821
H 6.4226 5.88316 9.39836
10
 Atoms. Timestep: 140
C 8.47966 8.71023 6.5866
C 7.53207 7.79031 6.85497
C 7.42467 7.31606 8.17941
C 6.59476 6.24085 8.36836
H 8.5542 9.19391 5.56161
H 9.08961 9.14131 7.37143
H 6.87139 7.28274 6.12757
H 7.92949 7.88526 9.00113
H 6.15487 5.61904 7.58698
H 6.33746 5.7531 9.30417
10
 Atoms. Timestep: 160
C 8.41963 8.72159 6.59758
C 7.55873 7.77118 6.84172
C 7.42278 7.27597 8.22176
C 6.60618 6.25712 8.32737
H 8.61649 9.1377 5.68212
H 9.09272 9.05777 7.39797
H 6.85811 7.48341 6.02464
H 7.89452 7.83229 9.03143
H 6.20662 5.72198 7.51224
H 6.41165 5.83166 9.31001
10
 Atoms. Timestep: 180
C 8.43277 8.75773 6.62227
C 7.56276 7.78157 6.86134
C 7.38723 7.26989 8.15542
C 6.62122 6.21325 8.36091
H 8.64213 9.16835 5.58344
H 9.11711 9.03365 7.462
H 6.89474 7.48744 6.07794
H 7.87202 7.70046 9.01875
H 6.16289 5.8632 7.34551
H 6.41127 5.83223 9.40169
10
 Atoms. Timestep: 200
C 8.47419 8.73019 6.67915
C 7.53739 7.84147 6.8381
C 7.37935 7.27181 8.15554
C 6.63493 6.217 8.31442
H 8.58463 9.1967 5.67571
H 9.1073 9.129 7.42736
H 6.912 7.33875 6.09041
H 7.97497 7.70982 8.98413
H 5.9945 5.7463 7.5738
H 6.39545 5.73659 9.21437
10
 Atoms. Timestep: 220
C 8.50178 8.74211 6.66384
C 7.50615 7.8471 6.87327
C 7.394 7.28128 8.16046
C 6.57875 6.18379 8.28487
H 8.65015 9.24176 5.73009
H 9.08733 9.18059 7.5029
H 6.9828 7.38219 5.98445
H 8.03106 7.71045 8.94459
H 5.94545 5.73809 7.54876
H 6.54316 5.64121 9.28357
10
 Atoms. Timestep: 240
C 8.45358 8.74683 6.68221
C 7.5422 7.8529 6.86465
C 7.35149 7.22927 8.14164
C 6.6032 6.2172 8.30663
H 8.7431 9.18205 5.74536
H 9.02085 9.08278 7.57011
H 6.98341 7.55159 6.01778
H 7.96449 7.57742 8.94102
H 6.03328 5.89149 7.40591
H 6.67603 5.65743 9.23807
10
 Atoms. Timestep: 260
C 8.46496 8.78518 6.75038
C 7.52173 7.83568 6.81912
C 7.38966 7.26861 8.12893
C 6.60721 6.19034 8.29248
H 8.77702 9.16289 5.70428
H 9.06606 9.03875 7.60502
H 6.82081 7.54349 6.0249
H 8.00828 7.57181 9.01566
H 6.01274 5.83199 7.40722
H 6.53779 5.59219 9.18649
10
 Atoms. Timestep: 280
C 8.4808 8.77131 6.74414
C 7.51332 7.87864 6.84587
C 7.39957 7.23486 8.14548
C 6.61067 6.16762 8.23936
H 8.75032 9.31284 5.85544
H 9.10788 9.01746 7.5868
H 6.80029 7.50095 6.05688
H 8.04276 7.69614 8.89771
H 6.02231 5.75275 7.48261
H 6.37431 5.62526 9.16041
10
 Atoms. Timestep: 300
C 8.49506 8.76276 6.71759
C 7.50499 7.89796 6.90658
C 7.39066 7.19438 8.1118
C 6.60414 6.1515 8.23628
H 8.66756 9.4449 5.90177
H 9.13699 8.96961 7.62547
H 6.92296 7.61167 6.0626
H 7.95859 7.65482 8.89976
H 6.06736 5.78087 7.31662
H 6.40145 5.71852 9.24926
10
 Atoms. Timestep: 320
C 8.50343 8.76939 6.78652
C 7.51642 7.89709 6.85441
C 7.39926 7.20136 8.11902
C 6.59663 6.1633 8.22109
H 8.53507 9.41 5.85138
H 9.20678 8.94503 7.58488
H 6.84738 7.7197 6.01463
H 7.87812 7.50487 9.08996
H 6.09988 5.7651 7.29602
H 6.46233 5.68844 9.16583
10
 Atoms. Timestep: 340
C 8.4964 8.8103 6.80432
C 7.55565 7.88498 6.87076
C 7.37514 7.2111 8.13178
C 6.58689 6.15211 8.17846
H 8.62573 9.36019 5.87006
H 9.25963 8.95837 7.54155
H 6.73432 7.76439 6.09425
H 7.91826 7.53693 9.0207
H 6.05063 5.72234 7.38302
H 6.45093 5.52682 9.0675
10
 Atoms. Timestep: 360
C 8.49585 8.8156 6.76813
C 7.53937 7.90831 6.9512
C 7.35388 7.2054 8.12985
C 6.58517 6.1151 8.14874
H 8.73838 9.39244 5.90838
H 9.25912 8.97358 7.59892
H 6.82032 7.73452 6.17412
H 7.9867 7.59445 8.89256
H 5.98751 5.80866 7.25826
H 6.48639 5.44997 9.06917
10
 Atoms. Timestep: 380
C 8.52037 8.75785 6.80798
C 7.46569 7.98062 6.92176
C 7.3727 7.18205 8.16661
C 6.6223 6.12479 8.11505
H 8.67208 9.35814 5.8855
H 9.15212 8.98094 7.64997
H 6.8611 7.68532 6.08603
H 8.01016 7.46232 9.05585
H 6.02843 5.96252 7.19996
H 6.51373 5.49888 8.94333
10
 Atoms. Timestep: 400
C 8.53852 8.7816 6.82096
C 7.45184 8.00198 6.94838
C 7.40188 7.21538 8.15642
C 6.61027 6.10095 8.10008
H 8.69814 9.31275 5.82674
H 9.1334 8.96816 7.68671
H 6.81213 7.71557 6.0332
H 7.95657 7.32071 9.11131
H 6.05087 5.94884 7.18333
H 6.4578 5.35451 8.89268
10
 Atoms. Timestep: 420
C 8.49775 8.8265 6.80615
C 7.52801 7.99088 6.99801
C 7.3348 7.15298 8.15328
C 6.60115 6.10952 8.0652
H 8.81813 9.29673 5.93022
H 9.24892 8.98423 7.61996
H 6.77938 7.84634 6.24481
H 7.97709 7.44872 8.93961
H 6.05297 5.84488 7.17461
H 6.47719 5.31984 8.84398
10
 Atoms. Timestep: 440
C 8.52859 8.83107 6.8627
C 7.50235 7.95892 6.99667
C 7.35435 7.18065 8.15529
C 6.5759 6.06863 8.01124
H 8.70973 9.3847 5.89547
H 9.36504 8.97684 7.59366
H 6.72367 7.92987 6.26871
H 8.00061 7.48541 9.03688
H 6.0266 5.8079 7.05923
H 6.53124 5.39967 8.87965
10
 Atoms. Timestep: 460
C 8.55648 8.77783 6.88731
C 7.49263 8.02761 6.98259
C 7.36098 7.15753 8.13827
C 6.63155 6.09751 8.00813
H 8.44818 9.45989 6.03226
H 9.30422 8.86111 7.6029
H 6.71637 7.9369 6.14338
H 7.82709 7.28765 9.11852
H 6.12248 5.88114 7.10248
H 6.45583 5.43048 8.79158
10
 Atoms. Timestep: 480
C 8.558 8.82336 6.84145
C 7.48869 8.05696 7.02445
C 7.35853 7.14443 8.12299
C 6.61064 6.03294 8.0085
H 8.60371 9.6408 6.09892
H 9.33776 8.76977 7.66332
H 6.78637 7.96658 6.19929
H 7.81156 7.33273 9.07062
H 6.13735 5.88535 7.02193
H 6.35213 5.2786 8.85056
10
 Atoms. Timestep: 500
C 8.51528 8.83069 6.89756
C 7.4694 8.03294 7.02362
C 7.34468 7.11848 8.14834
C 6.62511 6.05702 7.93829
H 8.84496 9.54638 6.18142
H 9.38652 8.78689 7.60616
H 6.68467 8.03545 6.31761
H 7.94053 7.4919 9.01837
H 6.10657 5.77848 7.00833
H 6.43393 5.34613 8.71023
10
 Atoms. Timestep: 520
C 8.5593 8.83472 6.99059
C 7.45086 8.04777 7.00453
C 7.35645 7.17227 8.11022
C 6.61885 6.02992 7.91432
H 8.74233 9.41925 6.02181
H 9.30718 8.72012 7.71968
H 6.52565 8.11276 6.32766
H 7.95443 7.33011 9.0638
H 6.14101 5.83698 6.94753
H 6.54069 5.29275 8.69057
10
 Atoms. Timestep: 540
C 8.56497 8.8096 6.97612
C 7.45769 8.14795 7.04334
C 7.31049 7.11834 8.07599
C 6.6437 6.02827 7.92918
H 8.68501 9.4331 6.08509
H 9.24595 8.70753 7.83039
H 6.69798 8.17853 6.2471
H 7.856 7.16379 8.95074
H 6.15968 5.93025 6.97101
H 6.61825 5.18181 8.65688
10
 Atoms. Timestep: 560
C 8.57739 8.81141 6.95791
C 7.39849 8.15651 7.09625
C 7.30127 7.1184 8.08968
C 6.62561 5.97922 7.86354
H 8.8744 9.58704 6.27348
H 9.3875 8.82746 7.7871
H 6.83983 8.21352 6.20945
H 7.96875 7.26203 8.99653
H 5.97776 5.80004 6.97697
H 6.65916 5.13669 8.60114
10
 Atoms. Timestep: 580
C 8.5904 8.82773 7.04753
C 7.43602 8.16021 7.08182
C 7.28179 7.11486 8.09291
C 6.64018 5.98152 7.79915
H 8.82324 9.6147 6.30531
H 9.37642 8.70087 7.71934
H 6.63461 8.16882 6.24817
H 7.99035 7.27683 8.96467
H 5.92286 5.74953 7.03248
H 6.68615 5.20339 8.49056
10
 Atoms. Timestep: 600
C 8.57563 8.86121 7.11121
C 7.46973 8.13624 7.06153
C 7.296 7.12871 8.02434
C 6.65261 5.9949 7.80889
H 8.66223 9.58062 6.26798
H 9.34914 8.49039 7.82277
H 6.57003 8.27402 6.43615
H 7.84098 7.0861 8.90081
H 6.01388 5.93066 6.89711
H 6.72394 5.13181 8.52834
10
 Atoms. Timestep: 620
C 8.54266 8.86438 7.109
C 7.42159 8.14509 7.07273
C 7.34643 7.05086 8.02536
C 6.61179 5.99032 7.78256
H 8.78658 9.68592 6.45612
H 9.4135 8.57005 7.82523
H 6.6798 8.47623 6.40802
H 7.93293 7.12156 8.98994
H 6.14511 5.95074 6.79089
H 6.63125 5.11159 8.48086
10
 Atoms. Timestep: 640
C 8.56853 8.86092 7.11495
C 7.41471 8.18888 7.13079
C 7.37399 7.00175 8.04743
C 6.59472 5.96774 7.72405
H 8.81916 9.80448 6.61571
H 9.35609 8.69104 7.77334
H 6.6397 8.45587 6.33937
H 8.05471 7.23089 8.93511
H 6.11644 5.79853 6.77552
H 6.42628 5.12347 8.34661
10
 Atoms. Timestep: 660
C 8.58873 8.87583 7.16038
C 7.4496 8.18384 7.17654
C 7.36047 7.06405 7.98687
C 6.63648 5.96337 7.68184
H 8.61264 9.83284 6.54371
H 9.35523 8.58273 7.88168
H 6.5769 8.24908 6.50424
H 7.94864 6.99552 8.84841
H 6.06392 5.90641 6.72094
H 6.35504 5.13087 8.35621
10
 Atoms. Timestep: 680
C 8.54235 8.90651 7.20766
C 7.46737 8.17324 7.15351
C 7.34449 6.98369 8.01359
C 6.63338 6.00415 7.61291
H 8.64046 9.71933 6.53671
H 9.41634 8.59975 7.8809
H 6.61604 8.34916 6.53862
H 7.9122 6.85469 8.93996
H 6.04859 6.10131 6.71186
H 6.5649 5.19023 8.35492
10
 Atoms. Timestep: 700
C 8.54218 8.9462 7.23441
C 7.45584 8.13091 7.18648
C 7.38299 6.9727 8.04744
C 6.56585 5.97891 7.57408
H 8.77182 9.75894 6.55146
H 9.41804 8.74825 7.82606
H 6.69285 8.51057 6.44754
H 7.99065 6.93658 9.03401
H 5.96083 6.08793 6.66934
H 6.60871 5.00539 8.10611
10
 Atoms. Timestep: 720
C 8.55547 8.91 7.24567
C 7.48481 8.18255 7.24155
C 7.34915 6.97333 8.00766
C 6.60379 5.99411 7.59401
H 8.64359 9.80207 6.58437
H 9.35976 8.75505 7.92835
H 6.69982 8.30156 6.47973
H 7.99034 6.94539 8.83162
H 5.98876 6.09119 6.70242
H 6.48244 4.9648 7.82919
10
 Atoms. Timestep: 740
C 8.5783 8.90683 7.25985
C 7.44414 8.18275 7.23807
C 7.36744 6.99227 8.01872
C 6.60067 5.98614 7.51916
H 8.56346 9.81533 6.62266
H 9.36502 8.72411 8.08999
H 6.66678 8.24779 6.50387
H 8.07412 6.80313 8.83312
H 5.98964 6.2906 6.63505
H 6.5217 4.93102 7.98949
10
 Atoms. Timestep: 760
C 8.52144 8.93445 7.29602
C 7.45632 8.15174 7.23561
C 7.37746 6.92268 8.01512
C 6.60972 6.02487 7.47583
H 8.72675 9.77241 6.70676
H 9.31104 8.74493 7.99011
H 6.66474 8.43153 6.50155
H 8.10165 6.70859 8.88714
H 5.98 6.23258 6.63874
H 6.55019 5.12751 8.02919
10
 Atoms. Timestep: 780
C 8.52679 9.00055 7.35092
C 7.50138 8.1662 7.25122
C 7.4107 6.92851 7.95032
C 6.56109 5.96997 7.49853
H 8.75386 9.87657 6.65909
H 9.34448 8.68956 7.97855
H 6.66273 8.4359 6.58122
H 7.99506 6.74944 8.8212
H 5.94688 6.08952 6.58277
H 6.42126 4.98759 7.96026
10
 Atoms. Timestep: 800
C 8.54017 8.93456 7.3896
C 7.47956 8.19705 7.2371
C 7.41287 6.91889 7.89211
C 6.58321 6.01163 7.50471
H 8.54417 9.87385 6.82487
H 9.43124 8.69478 8.03477
H 6.66117 8.37573 6.58974
H 7.98856 6.79641 8.7822
H 5.99799 6.09501 6.58994
H 6.40603 5.01141 7.92642
10
 Atoms. Timestep: 820
C 8.55111 8.91786 7.39901
C 7.44435 8.15906 7.22384
C 7.41905 6.93033 7.90844
C 6.56976 5.99696 7.44366
H 8.52847 9.92045 7.04142
H 9.39528 8.6842 8.05977
H 6.65458 8.49039 6.4965
H 8.13422 6.78172 8.82183
H 5.98226 6.24802 6.55339
H 6.52354 5.06997 8.06634
10
 Atoms. Timestep: 840
C 8.52188 8.96885 7.41658
C 7.49941 8.17603 7.21119
C 7.38583 6.90222 7.91514
C 6.59362 5.97986 7.446
H 8.67526 10.0126 7.09239
H 9.26489 8.56071 8.06255
H 6.67789 8.51402 6.55132
H 8.10724 6.73223 8.67976
H 5.91465 6.20169 6.63276
H 6.47965 5.03704 7.93674
10
 Atoms. Timestep: 860
C 8.51455 8.96675 7.48191
C 7.48239 8.20422 7.19978
C 7.41988 6.93877 7.87431
C 6.58808 5.97927 7.45541
H 8.74567 9.96591 7.00914
H 9.3059 8.54985 8.13906
H 6.64986 8.43554 6.58309
H 8.08923 6.67715 8.66112
H 5.83465 6.12825 6.65392
H 6.46936 4.92929 7.77421
10
 Atoms. Timestep: 880
C 8.53177 8.92801 7.52683
C 7.42871 8.20888 7.2325
C 7.43132 6.90573 7.82228
C 6.56065 6.01029 7.42531
H 8.7034 9.82568 6.98982
H 9.33749 8.66741 8.22687
H 6.64082 8.46471 6.48417
H 8.19125 6.7298 8.68827
H 5.85265 6.24498 6.63602
H 6.68371 4.96999 7.82231
10
 Atoms. Timestep: 900
C 8.51824 8.93792 7.5154
C 7.45505 8.20441 7.29721
C 7.41177 6.89526 7.81233
C 6.56202 5.98642 7.39586
H 8.69138 9.88332 7.00647
H 9.22757 8.64367 8.2786
H 6.79346 8.55067 6.49241
H 8.21698 6.72201 8.51474
H 5.84678 6.26482 6.63438
H 6.66534 5.01145 7.83757
10
 Atoms. Timestep: 920
C 8.52861 8.97205 7.53318
C 7.46818 8.22058 7.26928
C 7.42334 6.91008 7.84282
C 6.58453 5.96733 7.3738
H 8.70536 10.0059 7.08585
H 9.22816 8.60973 8.30394
H 6.74309 8.54562 6.54559
H 8.19448 6.55695 8.46739
H 5.759 6.13201 6.63602
H 6.46596 4.94961 7.73571
10
 Atoms. Timestep: 940
C 8.51099 8.95893 7.5742
C 7.47425 8.22013 7.22564
C 7.42649 6.87438 7.82504
C 6.58568 6.0181 7.35399
H 8.67974 9.94799 7.23754
H 9.31359 8.64616 8.2346
H 6.59312 8.47629 6.5962
H 8.21325 6.52051 8.60727
H 5.81649 6.23213 6.62741
H 6.52337 4.96764 7.71271
10
 Atoms. Timestep: 960
C 8.49337 8.97119 7.59779
C 7.48915 8.14926 7.26423
C 7.46733 6.87517 7.78342
C 6.53454 6.01352 7.33324
H 8.57714 10.0184 7.29162
H 9.32999 8.53019 8.16889
H 6.63771 8.50089 6.65334
H 8.1393 6.71128 8.63429
H 5.90202 6.43517 6.5441
H 6.63151 4.96922 7.72472
10
 Atoms. Timestep: 980
C 8.48623 8.96313 7.60799
C 7.49566 8.20129 7.28742
C 7.48159 6.82886 7.78965
C 6.56761 6.02497 7.32851
H 8.46545 10.031 7.33185
H 9.31164 8.52799 8.1492
H 6.71613 8.54478 6.65657
H 8.13099 6.6652 8.57495
H 5.8962 6.3214 6.5125
H 6.41698 5.02017 7.58254
10
 Atoms. Timestep: 1000
C 8.51317 8.99044 7.62745
C 7.46673 8.20738 7.29795
C 7.4793 6.85099 7.80218
C 6.57138 5.99485 7.27372
H 8.54439 10.0619 7.358
H 9.37233 8.68428 8.23572
H 6.63946 8.55889 6.63017
H 8.24749 6.40313 8.57602
H 5.86239 6.29798 6.48031
H 6.27444 4.9519 7.60095
10
 Atoms. Timestep: 1020
C 8.47729 8.98418 7.6354
C 7.5009 8.17323 7.34948
C 7.42883 6.81972 7.77257
C 6.58183 6.04073 7.23073
H 8.61086 9.97978 7.29932
H 9.29339 8.71767 8.31018
H 6.6455 8.49849 6.73693
H 8.22423 6.4445 8.44442
H 5.92202 6.4401 6.50232
H 6.4949 5.03227 7.66677
10
 Atoms. Timestep: 1040
C 8.48859 8.98286 7.67463
C 7.49277 8.17337 7.3747
C 7.49127 6.83078 7.78549
C 6.53927 6.04076 7.2007
H 8.52114 9.98717 7.13854
H 9.24037 8.59578 8.389
H 6.68553 8.49827 6.76342
H 8.19994 6.52838 8.46876
H 5.81595 6.45411 6.44899
H 6.58971 4.98962 7.46722
10
 Atoms. Timestep: 1060
C 8.49574 8.97029 7.69864
C 7.45558 8.21149 7.37623
C 7.48282 6.81014 7.77703
C 6.58117 6.04907 7.21263
H 8.55757 9.96167 7.26167
H 9.28872 8.66302 8.34258
H 6.67829 8.54539 6.65425
H 8.22633 6.4467 8.56542
H 5.80167 6.37187 6.52796
H 6.47954 4.98542 7.14998
10
 Atoms. Timestep: 1080
C 8.48011 8.98703 7.69995
C 7.46473 8.20258 7.39603
C 7.43187 6.82846 7.78071
C 6.58755 6.00726 7.16275
H 8.63647 10.0279 7.46052
H 9.35948 8.67255 8.29968
H 6.71215 8.54664 6.65756
H 8.2309 6.39463 8.46883
H 5.86558 6.58054 6.58106
H 6.53387 4.84579 7.18474
10
 Atoms. Timestep: 1100
C 8.48841 8.96848 7.72819
C 7.47443 8.18765 7.39468
C 7.432 6.80554 7.79248
C 6.60364 6.05675 7.09774
H 8.49561 10.0762 7.51513
H 9.31441 8.47831 8.30376
H 6.66033 8.55166 6.80854
H 8.20924 6.47039 8.36488
H 5.82695 6.51509 6.46113
H 6.62655 5.0178 7.35699
10
 Atoms. Timestep: 1120
C 8.50335 8.93951 7.77858
C 7.46681 8.21788 7.40762
C 7.48087 6.84438 7.73637
C 6.58421 6.06269 7.07957
H 8.44361 9.98807 7.54746
H 9.2969 8.49002 8.30213
H 6.54412 8.62009 6.95265
H 8.24761 6.41549 8.46128
H 5.84122 6.28242 6.29123
H 6.53905 5.03713 7.32137
10
 Atoms. Timestep: 1140
C 8.50912 8.96689 7.81639
C 7.43925 8.24594 7.45072
C 7.45762 6.8188 7.61007
C 6.58979 6.00914 7.10393
H 8.61333 10.0331 7.6568
H 9.4177 8.57566 8.31522
H 6.52905 8.72879 7.0163
H 8.10187 6.41808 8.46896
H 6.01072 6.34454 6.24679
H 6.47664 4.87518 7.29826
10
 Atoms. Timestep: 1160
C 8.46587 8.91508 7.8305
C 7.42282 8.26339 7.47493
C 7.45945 6.82096 7.63212
C 6.62131 6.01335 7.04307
H 8.62518 10.024 7.7648
H 9.40282 8.46522 8.24813
H 6.62139 8.77971 7.02309
H 8.09537 6.48237 8.36405
H 6.00425 6.43761 6.26572
H 6.55827 4.95441 7.3395
10
 Atoms. Timestep: 1180
C 8.5229 8.89983 7.8735
C 7.38801 8.24454 7.45942
C 7.44933 6.86208 7.72065
C 6.65291 6.05051 6.95208
H 8.47704 10.017 7.81315
H 9.29128 8.22639 8.21398
H 6.52527 8.75582 6.95971
H 8.28142 6.4681 8.37654
H 5.81818 6.37579 6.28418
H 6.65196 5.03517 7.20751
10
 Atoms. Timestep: 1200
C 8.49609 8.90746 7.88066
C 7.4278 8.28867 7.49314
C 7.37259 6.8436 7.68978
C 6.66906 6.04873 6.95512
H 8.6521 9.93638 7.90081
H 9.30019 8.31061 8.29515
H 6.50374 8.63383 6.98581
H 8.24736 6.45083 8.29937
H 5.83204 6.41723 6.36363
H 6.79529 4.94033 6.93206
10
 Atoms. Timestep: 1220
C 8.49891 8.91993 7.90841
C 7.37146 8.25533 7.52916
C 7.40289 6.84627 7.64955
C 6.63094 6.01077 6.95005
H 8.8109 10.0243 7.87695
H 9.38963 8.42262 8.44174
H 6.57439 8.78262 7.03765
H 8.12228 6.39926 8.25922
H 5.87026 6.47824 6.33825
H 6.93134 4.91925 6.71217
10
 Atoms. Timestep: 1240
C 8.48237 8.8597 7.94754
C 7.38076 8.28801 7.58331
C 7.44794 6.80914 7.6446
C 6.65518 6.07507 6.8846
H 8.53076 9.91777 7.6923
H 9.25277 8.33479 8.42779
H 6.61175 8.88214 7.08132
H 8.24145 6.39488 8.28965
H 5.85814 6.43529 6.23221
H 6.83165 5.06361 6.80545
10
 Atoms. Timestep: 1260
C 8.49903 8.90896 7.99433
C 7.38557 8.22486 7.62436
C 7.42486 6.83786 7.63446
C 6.67667 6.08623 6.8073
H 8.49844 9.95635 7.72454
H 9.30045 8.28771 8.40889
H 6.54106 8.74342 7.10105
H 8.30414 6.37986 8.2041
H 5.87734 6.52793 6.14327
H 6.68576 4.97726 6.94443
10
 Atoms. Timestep: 1280
C 8.44522 8.91388 7.98978
C 7.39966 8.23385 7.62928
C 7.42642 6.79322 7.60659
C 6.68781 6.10332 6.79759
H 8.68145 9.98752 7.98879
H 9.42794 8.48874 8.3769
H 6.50032 8.61112 7.18713
H 8.15683 6.29174 8.17036
H 6.01827 6.59093 6.14383
H 6.58449 4.98434 6.88256
10
 Atoms. Timestep: 1300
C 8.47131 8.92353 7.99763
C 7.39659 8.22885 7.59962
C 7.49275 6.75686 7.62509
C 6.64858 6.11262 6.78586
H 8.47943 10.0593 8.14061
H 9.36909 8.41397 8.31964
H 6.46275 8.73097 7.28314
H 8.13017 6.20527 8.34271
H 6.01634 6.64834 6.05895
H 6.61093 5.03099 6.69475
10
 Atoms. Timestep: 1320
C 8.46117 8.91329 8.01038
C 7.43515 8.19085 7.60881
C 7.47253 6.76293 7.61239
C 6.66941 6.14722 6.78179
H 8.2629 9.93816 8.12646
H 9.31505 8.34114 8.26683
H 6.51011 8.73783 7.35116
H 8.11866 6.27157 8.39198
H 6.02816 6.73563 6.07934
H 6.65954 5.10992 6.59302
10
 Atoms. Timestep: 1340
C 8.45176 8.90575 8.0414
C 7.42417 8.18825 7.64669
C 7.43524 6.76786 7.6214
C 6.67235 6.1452 6.71572
H 8.3867 10.0028 8.11367
H 9.49044 8.48656 8.33266
H 6.49717 8.60687 7.30101
H 8.14464 6.27557 8.25015
H 6.03392 6.78852 6.13977
H 6.67005 5.01726 6.60045
10
 Atoms. Timestep: 1360
C 8.45883 8.90952 8.06806
C 7.38526 8.19857 7.69441
C 7.43521 6.73055 7.62285
C 6.69896 6.16948 6.68312
H 8.53994 10.0355 8.03137
H 9.43441 8.56251 8.40131
H 6.48555 8.66224 7.24895
H 8.20397 6.15325 8.1341
H 5.96091 6.68227 6.08689
H 6.62972 5.07547 6.57576
10
 Atoms. Timestep: 1380
C 8.44711 8.91238 8.06762
C 7.40138 8.18555 7.74529
C 7.46152 6.76318 7.6039
C 6.6922 6.17046 6.67463
H 8.4308 9.97126 7.92446
H 9.2687 8.37173 8.45589
H 6.56175 8.74944 7.30297
H 8.22001 6.1183 8.13038
H 5.92594 6.69898 6.02704
H 6.70353 5.12083 6.49961
10
 Atoms. Timestep: 1400
C 8.4574 8.89064 8.08106
C 7.38118 8.18026 7.73856
C 7.45518 6.7667 7.55921
C 6.67522 6.17595 6.67797
H 8.41307 9.97018 7.96324
H 9.34787 8.30395 8.53856
H 6.50149 8.67467 7.35392
H 8.18688 6.27229 8.16459
H 6.01685 6.80293 6.0932
H 6.84396 5.11469 6.4347
10
 Atoms. Timestep: 1420
C 8.44358 8.83934 8.11056
C 7.36073 8.20815 7.69327
C 7.45444 6.76964 7.58211
C 6.69292 6.18003 6.65558
H 8.55063 9.93715 8.17914
H 9.41024 8.4835 8.45471
H 6.41318 8.65096 7.37627
H 8.23208 6.277 8.16571
H 6.00505 6.77985 6.09902
H 6.8028 5.10859 6.36509
10
 Atoms. Timestep: 1440
C 8.45283 8.88967 8.15662
C 7.3804 8.20941 7.68302
C 7.43215 6.76328 7.57862
C 6.73212 6.16227 6.63131
H 8.46392 9.98019 8.36642
H 9.34917 8.31444 8.30132
H 6.44683 8.75812 7.38998
H 8.25393 6.20353 8.10096
H 5.92633 6.70334 6.05404
H 6.6988 5.11264 6.37887
10
 Atoms. Timestep: 1460
C 8.41791 8.86441 8.15548
C 7.39969 8.22403 7.72144
C 7.45359 6.78581 7.52839
C 6.72486 6.17825 6.61521
H 8.36558 9.88442 8.43329
H 9.32664 8.2136 8.27913
H 6.5304 8.75842 7.4173
H 8.18257 6.21549 8.07897
H 5.96588 6.72738 6.05273
H 6.77666 5.10563 6.50448
10
 Atoms. Timestep: 1480
C 8.46138 8.81416 8.18432
C 7.32313 8.19185 7.7182
C 7.49176 6.81882 7.47101
C 6.6884 6.19634 6.60929
H 8.44342 9.89737 8.44181
H 9.44865 8.38212 8.46557
H 6.40008 8.72385 7.44733
H 8.17788 6.28192 8.1129
H 6.00704 6.72917 5.99116
H 6.85884 5.07859 6.53325
10
 Atoms. Timestep: 1500
C 8.42947 8.80955 8.2297
C 7.38156 8.23434 7.7417
C 7.47088 6.81391 7.44361
C 6.70262 6.17318 6.60598
H 8.48849 9.8966 8.36286
H 9.33441 8.36071 8.5079
H 6.38816 8.69315 7.52964
H 8.27289 6.31051 8.0527
H 5.97862 6.66124 5.92066
H 6.75428 5.11188 6.38924
10
 Atoms. Timestep: 1520
C 8.41127 8.85194 8.26384
C 7.37413 8.19742 7.72535
C 7.47161 6.80992 7.4844
C 6.73165 6.18455 6.57183
H 8.44656 9.94401 8.36717
H 9.26565 8.12182 8.49449
H 6.4914 8.80287 7.53863
H 8.31455 6.24939 7.87171
H 5.91547 6.71165 5.99929
H 6.75838 5.12725 6.34519
10
 Atoms. Timestep: 1540
C 8.39605 8.79473 8.24489
C 7.33362 8.21574 7.73793
C 7.49596 6.7668 7.48819
C 6.72168 6.24737 6.5436
H 8.45949 9.81762 8.4836
H 9.3061 8.24966 8.56003
H 6.48298 8.76668 7.35933
H 8.34727 6.23626 7.88116
H 5.92064 6.8155 6.17563
H 6.9237 5.18649 6.34154
10
 Atoms. Timestep: 1560
C 8.42983 8.80457 8.29356
C 7.34801 8.1728 7.75167
C 7.48856 6.80109 7.44876
C 6.70515 6.23091 6.54521
H 8.43434 9.90159 8.58071
H 9.31332 8.30607 8.5781
H 6.46048 8.63275 7.24767
H 8.33703 6.29239 7.98886
H 5.85442 6.81913 6.15601
H 6.89504 5.21185 6.10246
10
 Atoms. Timestep: 1580
C 8.36537 8.80923 8.33182
C 7.42357 8.17444 7.74533
C 7.50897 6.80008 7.43206
C 6.71631 6.23407 6.54636
H 8.34398 9.88476 8.53719
H 9.28317 8.22725 8.57581
H 6.51465 8.67972 7.42257
H 8.29917 6.25559 7.94752
H 5.83849 6.74586 6.05388
H 6.75917 5.31987 6.01866
10
 Atoms. Timestep: 1600
C 8.36366 8.80491 8.37502
C 7.37702 8.18412 7.70473
C 7.55144 6.73909 7.42215
C 6.69631 6.28256 6.49419
H 8.28926 9.85388 8.55257
H 9.31901 8.2638 8.67771
H 6.48618 8.78633 7.554
H 8.35052 6.13873 7.81505
H 5.92475 6.91371 6.10292
H 6.82375 5.19946 6.21016
10
 Atoms. Timestep: 1620
C 8.36446 8.77435 8.37927
C 7.38699 8.14445 7.75361
C 7.53478 6.78502 7.37567
C 6.71927 6.30317 6.47538
H 8.28663 9.8185 8.67806
H 9.24973 8.37004 8.72372
H 6.44285 8.63573 7.44021
H 8.39203 6.16091 7.73122
H 6.00825 6.99227 6.08157
H 6.71153 5.20058 6.33065
10
 Atoms. Timestep: 1640
C 8.35322 8.79131 8.41003
C 7.40799 8.12635 7.80802
C 7.57367 6.81084 7.3377
C 6.71038 6.29431 6.47309
H 8.20787 9.86564 8.76935
H 9.29537 8.25372 8.71493
H 6.4855 8.51281 7.35521
H 8.4052 6.2639 7.81257
H 5.91727 6.90598 5.91466
H 6.54113 5.28102 6.14923
10
 Atoms. Timestep: 1660
C 8.31804 8.77669 8.45848
C 7.38163 8.13822 7.76199
C 7.63445 6.7521 7.32786
C 6.68642 6.33911 6.46893
H 8.21935 9.79248 8.76557
H 9.29332 8.23478 8.68193
H 6.47696 8.68007 7.48275
H 8.39918 6.20043 7.80888
H 5.92688 6.95479 5.99962
H 6.68514 5.32066 6.04668
10
 Atoms. Timestep: 1680
C 8.30097 8.73231 8.48837
C 7.401 8.13837 7.7222
C 7.57522 6.78396 7.33047
C 6.71246 6.33887 6.43972
H 8.2374 9.74795 8.79694
H 9.2167 8.30666 8.7155
H 6.47679 8.69415 7.57184
H 8.38833 6.09579 7.6793
H 5.98228 7.07938 6.22042
H 6.8846 5.33508 6.02047
10
 Atoms. Timestep: 1700
C 8.34192 8.72938 8.51776
C 7.41782 8.15053 7.77408
C 7.52845 6.80631 7.33327
C 6.74537 6.33308 6.39663
H 8.13983 9.81815 8.8956
H 9.28027 8.20161 8.80707
H 6.44253 8.55303 7.4278
H 8.45377 6.22357 7.61689
H 5.79817 6.93878 6.12099
H 6.80812 5.36905 5.8902
10
 Atoms. Timestep: 1720
C 8.31941 8.70768 8.49945
C 7.37491 8.12842 7.82922
C 7.59383 6.80254 7.32128
C 6.72509 6.39341 6.3815
H 8.21842 9.67385 8.94379
H 9.22986 8.16527 8.87715
H 6.52063 8.6667 7.40314
H 8.48438 6.34265 7.6331
H 5.782 6.74437 5.9748
H 6.80926 5.43487 5.86837
10
 Atoms. Timestep: 1740
C 8.31822 8.69775 8.56349
C 7.32133 8.10417 7.82515
C 7.58876 6.83526 7.25526
C 6.72443 6.36435 6.35707
H 8.30053 9.69347 8.92756
H 9.16548 8.09932 8.8304
H 6.53522 8.79843 7.53292
H 8.48847 6.27116 7.57942
H 5.87677 6.97356 6.08735
H 7.04108 5.37487 5.92556
10
 Atoms. Timestep: 1760
C 8.28106 8.61371 8.59712
C 7.35145 8.18109 7.83817
C 7.55784 6.88006 7.23005
C 6.79182 6.34416 6.35748
H 8.29822 9.69225 8.89424
H 9.1655 8.03967 8.77576
H 6.403 8.6748 7.61023
H 8.44878 6.25884 7.5071
H 5.96785 7.03007 6.09782
H 6.94767 5.41022 5.86688
10
 Atoms. Timestep: 1780
C 8.3018 8.60406 8.63145
C 7.32531 8.16749 7.79487
C 7.60714 6.8897 7.27373
C 6.78272 6.38946 6.3156
H 8.2882 9.65479 9.09923
H 9.25328 7.97625 8.77775
H 6.30818 8.60442 7.63417
H 8.50479 6.41373 7.60526
H 5.85648 6.85733 5.88202
H 6.81119 5.40924 5.79666
10
 Atoms. Timestep: 1800
C 8.28418 8.62379 8.61195
C 7.3433 8.14898 7.84128
C 7.58823 6.85618 7.21588
C 6.7663 6.42069 6.28302
H 8.26579 9.40873 9.26976
H 9.15852 8.04665 8.77384
H 6.41481 8.65865 7.63974
H 8.51727 6.47804 7.66088
H 5.89209 6.91999 5.92978
H 6.98345 5.41009 5.90217
10
 Atoms. Timestep: 1820
C 8.30162 8.60442 8.63709
C 7.3128 8.1268 7.84568
C 7.56581 6.9207 7.20031
C 6.79972 6.395 6.27951
H 8.12275 9.45448 9.36941
H 9.21143 8.00723 8.72766
H 6.44834 8.74387 7.64564
H 8.45555 6.26922 7.50108
H 5.94735 7.0326 6.01978
H 7.05888 5.43115 5.84992
10
 Atoms. Timestep: 1840
C 8.26481 8.54004 8.67467
C 7.33178 8.17941 7.87226
C 7.60696 6.90236 7.20715
C 6.81244 6.41766 6.27685
H 8.11927 9.5056 9.22713
H 9.25943 8.0419 8.7448
H 6.3644 8.69971 7.66393
H 8.44067 6.29125 7.45592
H 5.88586 6.9327 5.91118
H 6.95847 5.51206 5.70046
10
 Atoms. Timestep: 1860
C 8.25516 8.56903 8.73174
C 7.34322 8.11399 7.84094
C 7.60454 6.8797 7.19095
C 6.78081 6.4607 6.23712
H 8.25456 9.52459 9.20541
H 9.2027 8.04719 8.84098
H 6.36939 8.61516 7.71888
H 8.54563 6.44588 7.54127
H 5.85967 6.93011 5.91239
H 6.98968 5.51658 5.66553
10
 Atoms. Timestep: 1880
C 8.24436 8.57157 8.6898
C 7.33312 8.07551 7.87924
C 7.60146 6.89273 7.1818
C 6.79604 6.4824 6.22284
H 8.2056 9.50182 9.22902
H 9.10385 7.97508 8.93243
H 6.42446 8.58115 7.6898
H 8.59566 6.39837 7.44344
H 5.90713 7.05735 6.04251
H 7.03744 5.57297 5.70975
10
 Atoms. Timestep: 1900
C 8.26533 8.56624 8.68788
C 7.29777 8.09332 7.92367
C 7.64858 6.87586 7.17667
C 6.82496 6.49146 6.22953
H 8.02974 9.52431 9.24762
H 9.1284 7.90423 8.96357
H 6.36811 8.63941 7.61967
H 8.52229 6.28054 7.29697
H 5.89993 7.10328 6.05015
H 6.95571 5.60699 5.60452
10
 Atoms. Timestep: 1920
C 8.21928 8.56425 8.74063
C 7.34661 8.0605 7.89788
C 7.65039 6.86679 7.17398
C 6.80326 6.50906 6.20956
H 8.09118 9.49754 9.28282
H 9.16336 8.06687 8.92726
H 6.40913 8.62061 7.66545
H 8.55944 6.30673 7.38797
H 5.8916 7.0714 5.99318
H 6.89203 5.65322 5.50007
10
 Atoms. Timestep: 1940
C 8.19541 8.54908 8.7832
C 7.38336 8.04355 7.86045
C 7.62595 6.84436 7.14626
C 6.78257 6.5425 6.19205
H 8.07265 9.47397 9.31052
H 9.20363 8.17959 8.90093
H 6.44946 8.50594 7.70691
H 8.59342 6.36449 7.50088
H 5.91026 7.1272 6.01929
H 6.97089 5.69186 5.55864
10
 Atoms. Timestep: 1960
C 8.21995 8.5276 8.7621
C 7.35918 8.05911 7.87544
C 7.66345 6.86485 7.17129
C 6.80415 6.56117 6.19047
H 7.84884 9.42473 9.32866
H 9.24923 8.11013 8.93012
H 6.35958 8.48378 7.69396
H 8.52331 6.22178 7.34991
H 5.9077 7.22258 6.02511
H 6.95494 5.68061 5.56546
10
 Atoms. Timestep: 1980
C 8.21286 8.5568 8.74977
C 7.35544 8.03825 7.92365
C 7.67323 6.86321 7.13503
C 6.83304 6.56928 6.18998
H 7.87793 9.3567 9.41197
H 9.14134 8.06361 8.97735
H 6.34968 8.52332 7.71822
H 8.48534 6.20814 7.28785
H 5.97728 7.20648 5.97069
H 6.84501 5.69655 5.53241
10
 Atoms. Timestep: 2000
C 8.18875 8.57195 8.79673
C 7.34816 7.99469 7.92099
C 7.67218 6.86447 7.11689
C 6.79843 6.57648 6.12991
H 8.05415 9.42461 9.45809
H 9.12862 8.06012 9.00057
H 6.4178 8.48994 7.77109
H 8.62148 6.30067 7.42303
H 5.9806 7.2404 5.94565
H 6.87627 5.65865 5.50346
10
 Atoms. Timestep: 2020
C 8.17819 8.47516 8.79976
C 7.3224 8.01788 7.92153
C 7.66227 6.87488 7.13199
C 6.84369 6.61388 6.1563
H 8.03108 9.43651 9.27692
H 9.18634 8.05241 8.95272
H 6.35348 8.43924 7.74415
H 8.60313 6.36868 7.38638
H 5.96502 7.25185 5.95189
H 6.94565 5.78051 5.51951
10
 Atoms. Timestep: 2040
C 8.21109 8.45504 8.82836
C 7.30666 8.03028 7.94709
C 7.65529 6.901 7.16813
C 6.85979 6.60323 6.11978
H 7.92787 9.45503 9.25508
H 9.20241 7.97297 8.89416
H 6.26918 8.50245 7.72546
H 8.53213 6.32528 7.27008
H 5.93985 7.24142 5.98675
H 7.05561 5.7855 5.37732
10
 Atoms. Timestep: 2060
C 8.18922 8.50163 8.80165
C 7.30285 8.00263 7.98365
C 7.6104 6.88109 7.11962
C 6.86929 6.61454 6.09989
H 8.08756 9.32986 9.4927
H 9.10859 7.99349 8.93992
H 6.41506 8.58383 7.82945
H 8.5688 6.31558 7.32026
H 5.97192 7.11649 5.92752
H 7.14144 5.88139 5.35032
10
 Atoms. Timestep: 2080
C 8.21085 8.49999 8.79907
C 7.26763 7.99369 7.98139
C 7.62011 6.88824 7.14778
C 6.86985 6.63927 6.05736
H 8.10412 9.24541 9.59789
H 9.17591 7.94994 8.96151
H 6.36271 8.53121 7.86073
H 8.58587 6.37892 7.40181
H 5.88136 7.11012 5.81585
H 7.2034 5.87728 5.33758
10
 Atoms. Timestep: 2100
C 8.22494 8.40347 8.81412
C 7.26685 8.03462 8.00349
C 7.60066 6.93009 7.15701
C 6.92744 6.66257 6.06621
H 7.95493 9.24677 9.44568
H 9.21721 7.92147 8.7944
H 6.16965 8.38948 7.87209
H 8.48791 6.42317 7.33744
H 5.97238 7.18056 5.8134
H 7.20255 5.8741 5.38095
10
 Atoms. Timestep: 2120
C 8.19917 8.37979 8.86039
C 7.24337 8.00376 8.00662