ITEM: TIMESTEP
0
ITEM: NUMBER OF ATOMS
10
ITEM: BOX BOUNDS pp pp pp
0.0000000000000000e+00 1.5000000000000000e+01
0.0000000000000000e+00 1.5000000000000000e+01
0.0000000000000000e+00 1.5000000000000000e+01
ITEM: ATOMS id type x y z
6 2 9.12152 9.01612 7.18031
7 2 6.88902 7.27346 6.08143
8 2 7.67632 8.15658 8.84855
9 2 6.26624 5.45744 7.8999
1 1 8.44164 8.63329 6.43464
2 1 7.55153 7.69883 6.78883
3 1 7.31237 7.40832 8.14497
4 1 6.69725 6.32832 8.61752
5 2 8.68464 8.86774 5.31987
10 2 6.46957 6.03611 9.64316
ITEM: TIMESTEP
100
ITEM: NUMBER OF ATOMS
10
ITEM: BOX BOUNDS pp pp pp
0.0000000000000000e+00 1.5000000000000000e+01
0.0000000000000000e+00 1.5000000000000000e+01
0.0000000000000000e+00 1.5000000000000000e+01
ITEM: ATOMS id type x y z
6 2 9.07011 9.16481 7.34147
7 2 6.99747 7.32691 5.92986
8 2 7.89396 7.83166 9.05385
9 2 6.10099 5.82592 7.57524
1 1 8.43376 8.6872 6.54903
2 1 7.5355 7.74495 6.83056
3 1 7.35275 7.36684 8.2224
4 1 6.65478 6.2355 8.39406
5 2 8.64433 8.93695 5.54409
10 2 6.55645 5.92679 9.46817
ITEM: TIMESTEP
200
ITEM: NUMBER OF ATOMS
10
ITEM: BOX BOUNDS pp pp pp
0.0000000000000000e+00 1.5000000000000000e+01
0.0000000000000000e+00 1.5000000000000000e+01
0.0000000000000000e+00 1.5000000000000000e+01
ITEM: ATOMS id type x y z
6 2 9.1073 9.129 7.42736
7 2 6.912 7.33875 6.09041
8 2 7.97497 7.70982 8.98413
9 2 5.9945 5.7463 7.5738
1 1 8.47419 8.73019 6.67915
2 1 7.53739 7.84147 6.8381
3 1 7.37935 7.27181 8.15554
4 1 6.63493 6.217 8.31442
5 2 8.58463 9.1967 5.67571
10 2 6.39545 5.73659 9.21437
ITEM: TIMESTEP
300
ITEM: NUMBER OF ATOMS
10
ITEM: BOX BOUNDS pp pp pp
0.0000000000000000e+00 1.5000000000000000e+01
0.0000000000000000e+00 1.5000000000000000e+01
0.0000000000000000e+00 1.5000000000000000e+01
ITEM: ATOMS id type x y z
6 2 9.13699 8.96961 7.62547
7 2 6.92296 7.61167 6.0626
8 2 7.95859 7.65482 8.89976
9 2 6.06736 5.78087 7.31662
1 1 8.49506 8.76276 6.71759
2 1 7.50499 7.89796 6.90658
3 1 7.39066 7.19438 8.1118
4 1 6.60414 6.1515 8.23628
5 2 8.66756 9.4449 5.90177
10 2 6.40145 5.71852 9.24926
ITEM: TIMESTEP
400
ITEM: NUMBER OF ATOMS
10
ITEM: BOX BOUNDS pp pp pp
0.0000000000000000e+00 1.5000000000000000e+01
0.0000000000000000e+00 1.5000000000000000e+01
0.0000000000000000e+00 1.5000000000000000e+01
ITEM: ATOMS id type x y z
6 2 9.1334 8.96816 7.68671
7 2 6.81213 7.71557 6.0332
8 2 7.95657 7.32071 9.11131
9 2 6.05087 5.94884 7.18333
1 1 8.53852 8.7816 6.82096
2 1 7.45184 8.00198 6.94838
3 1 7.40188 7.21538 8.15642
4 1 6.61027 6.10095 8.10008
5 2 8.69814 9.31275 5.82674
10 2 6.4578 5.35451 8.89268
ITEM: TIMESTEP
500
ITEM: NUMBER OF ATOMS
10
ITEM: BOX BOUNDS pp pp pp
0.0000000000000000e+00 1.5000000000000000e+01
0.0000000000000000e+00 1.5000000000000000e+01
0.0000000000000000e+00 1.5000000000000000e+01
ITEM: ATOMS id type x y z
6 2 9.38652 8.78689 7.60616
7 2 6.68467 8.03545 6.31761
8 2 7.94053 7.4919 9.01837
9 2 6.10657 5.77848 7.00833
1 1 8.51528 8.83069 6.89756
2 1 7.4694 8.03294 7.02362
3 1 7.34468 7.11848 8.14834
4 1 6.62511 6.05702 7.93829
5 2 8.84496 9.54638 6.18142
10 2 6.43393 5.34613 8.71023
ITEM: TIMESTEP
600
ITEM: NUMBER OF ATOMS
10
ITEM: BOX BOUNDS pp pp pp
0.0000000000000000e+00 1.5000000000000000e+01
0.0000000000000000e+00 1.5000000000000000e+01
0.0000000000000000e+00 1.5000000000000000e+01
ITEM: ATOMS id type x y z
6 2 9.34914 8.49039 7.82277
7 2 6.57003 8.27402 6.43615
8 2 7.84098 7.0861 8.90081
9 2 6.01388 5.93066 6.89711
1 1 8.57563 8.86121 7.11121
2 1 7.46973 8.13624 7.06153
3 1 7.296 7.12871 8.02434
4 1 6.65261 5.9949 7.80889
5 2 8.66223 9.58062 6.26798
10 2 6.72394 5.13181 8.52834
ITEM: TIMESTEP
700
ITEM: NUMBER OF ATOMS
10
ITEM: BOX BOUNDS pp pp pp
0.0000000000000000e+00 1.5000000000000000e+01
0.0000000000000000e+00 1.5000000000000000e+01
0.0000000000000000e+00 1.5000000000000000e+01
ITEM: ATOMS id type x y z
6 2 9.41804 8.74825 7.82606
7 2 6.69285 8.51057 6.44754
8 2 7.99065 6.93658 9.03401
9 2 5.96083 6.08793 6.66934
1 1 8.54218 8.9462 7.23441
2 1 7.45584 8.13091 7.18648
3 1 7.38299 6.9727 8.04744
4 1 6.56585 5.97891 7.57408
5 2 8.77182 9.75894 6.55146
10 2 6.60871 5.00539 8.10611
ITEM: TIMESTEP
800
ITEM: NUMBER OF ATOMS
10
ITEM: BOX BOUNDS pp pp pp
0.0000000000000000e+00 1.5000000000000000e+01
0.0000000000000000e+00 1.5000000000000000e+01
0.0000000000000000e+00 1.5000000000000000e+01
ITEM: ATOMS id type x y z
6 2 9.43124 8.69478 8.03477
7 2 6.66117 8.37573 6.58974
8 2 7.98856 6.79641 8.7822
9 2 5.99799 6.09501 6.58994
1 1 8.54017 8.93456 7.3896
2 1 7.47956 8.19705 7.2371
3 1 7.41287 6.91889 7.89211
4 1 6.58321 6.01163 7.50471
5 2 8.54417 9.87385 6.82487
10 2 6.40603 5.01141 7.92642
ITEM: TIMESTEP
900
ITEM: NUMBER OF ATOMS
10
ITEM: BOX BOUNDS pp pp pp
0.0000000000000000e+00 1.5000000000000000e+01
0.0000000000000000e+00 1.5000000000000000e+01
0.0000000000000000e+00 1.5000000000000000e+01
ITEM: ATOMS id type x y z
6 2 9.22757 8.64367 8.2786
7 2 6.79346 8.55067 6.49241
8 2 8.21698 6.72201 8.51474
9 2 5.84678 6.26482 6.63438
1 1 8.51824 8.93792 7.5154
2 1 7.45505 8.20441 7.29721
3 1 7.41177 6.89526 7.81233
4 1 6.56202 5.98642 7.39586
5 2 8.69138 9.88332 7.00647
10 2 6.66534 5.01145 7.83757
ITEM: TIMESTEP
1000
ITEM: NUMBER OF ATOMS
10
ITEM: BOX BOUNDS pp pp pp
0.0000000000000000e+00 1.5000000000000000e+01
0.0000000000000000e+00 1.5000000000000000e+01
0.0000000000000000e+00 1.5000000000000000e+01
ITEM: ATOMS id type x y z
6 2 9.37233 8.68428 8.23572
7 2 6.63946 8.55889 6.63017
8 2 8.24749 6.40313 8.57602
9 2 5.86239 6.29798 6.48031
1 1 8.51317 8.99044 7.62745
2 1 7.46673 8.20738 7.29795
3 1 7.4793 6.85099 7.80218
4 1 6.57138 5.99485 7.27372
5 2 8.54439 10.0619 7.358
10 2 6.27444 4.9519 7.60095
ITEM: TIMESTEP
1100
ITEM: NUMBER OF ATOMS
10
ITEM: BOX BOUNDS pp pp pp
0.0000000000000000e+00 1.5000000000000000e+01
0.0000000000000000e+00 1.5000000000000000e+01
0.0000000000000000e+00 1.5000000000000000e+01
ITEM: ATOMS id type x y z
10 2 6.62655 5.0178 7.35699
6 2 9.31441 8.47831 8.30376
7 2 6.66033 8.55166 6.80854
8 2 8.20924 6.47039 8.36488
9 2 5.82695 6.51509 6.46113
1 1 8.48841 8.96848 7.72819
2 1 7.47443 8.18765 7.39468
3 1 7.432 6.80554 7.79248
4 1 6.60364 6.05675 7.09774
5 2 8.49561 10.0762 7.51513
ITEM: TIMESTEP
1200
ITEM: NUMBER OF ATOMS
10
ITEM: BOX BOUNDS pp pp pp
0.0000000000000000e+00 1.5000000000000000e+01
0.0000000000000000e+00 1.5000000000000000e+01
0.0000000000000000e+00 1.5000000000000000e+01
ITEM: ATOMS id type x y z
10 2 6.79529 4.94033 6.93206
6 2 9.30019 8.31061 8.29515
7 2 6.50374 8.63383 6.98581
8 2 8.24736 6.45083 8.29937
9 2 5.83204 6.41723 6.36363
1 1 8.49609 8.90746 7.88066
2 1 7.4278 8.28867 7.49314
3 1 7.37259 6.8436 7.68978
4 1 6.66906 6.04873 6.95512
5 2 8.6521 9.93638 7.90081
ITEM: TIMESTEP
1300
ITEM: NUMBER OF ATOMS
10
ITEM: BOX BOUNDS pp pp pp
0.0000000000000000e+00 1.5000000000000000e+01
0.0000000000000000e+00 1.5000000000000000e+01
0.0000000000000000e+00 1.5000000000000000e+01
ITEM: ATOMS id type x y z
10 2 6.61093 5.03099 6.69475
6 2 9.36909 8.41397 8.31964
7 2 6.46275 8.73097 7.28314
8 2 8.13017 6.20527 8.34271
9 2 6.01634 6.64834 6.05895
1 1 8.47131 8.92353 7.99763
2 1 7.39659 8.22885 7.59962
3 1 7.49275 6.75686 7.62509
4 1 6.64858 6.11262 6.78586
5 2 8.47943 10.0593 8.14061
ITEM: TIMESTEP
1400
ITEM: NUMBER OF ATOMS
10
ITEM: BOX BOUNDS pp pp pp
0.0000000000000000e+00 1.5000000000000000e+01
0.0000000000000000e+00 1.5000000000000000e+01
0.0000000000000000e+00 1.5000000000000000e+01
ITEM: ATOMS id type x y z
10 2 6.84396 5.11469 6.4347
6 2 9.34787 8.30395 8.53856
7 2 6.50149 8.67467 7.35392
8 2 8.18688 6.27229 8.16459
9 2 6.01685 6.80293 6.0932
1 1 8.4574 8.89064 8.08106
2 1 7.38118 8.18026 7.73856
3 1 7.45518 6.7667 7.55921
4 1 6.67522 6.17595 6.67797
5 2 8.41307 9.97018 7.96324
ITEM: TIMESTEP
1500
ITEM: NUMBER OF ATOMS
10
ITEM: BOX BOUNDS pp pp pp
0.0000000000000000e+00 1.5000000000000000e+01
0.0000000000000000e+00 1.5000000000000000e+01
0.0000000000000000e+00 1.5000000000000000e+01
ITEM: ATOMS id type x y z
10 2 6.75428 5.11188 6.38924
6 2 9.33441 8.36071 8.5079
7 2 6.38816 8.69315 7.52964
8 2 8.27289 6.31051 8.0527
9 2 5.97862 6.66124 5.92066
1 1 8.42947 8.80955 8.2297
2 1 7.38156 8.23434 7.7417
3 1 7.47088 6.81391 7.44361
4 1 6.70262 6.17318 6.60598
5 2 8.48849 9.8966 8.36286
ITEM: TIMESTEP
1600
ITEM: NUMBER OF ATOMS
10
ITEM: BOX BOUNDS pp pp pp
0.0000000000000000e+00 1.5000000000000000e+01
0.0000000000000000e+00 1.5000000000000000e+01
0.0000000000000000e+00 1.5000000000000000e+01
ITEM: ATOMS id type x y z
10 2 6.82375 5.19946 6.21016
6 2 9.31901 8.2638 8.67771
7 2 6.48618 8.78633 7.554
8 2 8.35052 6.13873 7.81505
9 2 5.92475 6.91371 6.10292
1 1 8.36366 8.80491 8.37502
2 1 7.37702 8.18412 7.70473
3 1 7.55144 6.73909 7.42215
4 1 6.69631 6.28256 6.49419
5 2 8.28926 9.85388 8.55257
ITEM: TIMESTEP
1700
ITEM: NUMBER OF ATOMS
10
ITEM: BOX BOUNDS pp pp pp
0.0000000000000000e+00 1.5000000000000000e+01
0.0000000000000000e+00 1.5000000000000000e+01
0.0000000000000000e+00 1.5000000000000000e+01
ITEM: ATOMS id type x y z
10 2 6.80812 5.36905 5.8902
6 2 9.28027 8.20161 8.80707
7 2 6.44253 8.55303 7.4278
8 2 8.45377 6.22357 7.61689
9 2 5.79817 6.93878 6.12099
1 1 8.34192 8.72938 8.51776
2 1 7.41782 8.15053 7.77408
3 1 7.52845 6.80631 7.33327
4 1 6.74537 6.33308 6.39663
5 2 8.13983 9.81815 8.8956
ITEM: TIMESTEP
1800
ITEM: NUMBER OF ATOMS
10
ITEM: BOX BOUNDS pp pp pp
0.0000000000000000e+00 1.5000000000000000e+01
0.0000000000000000e+00 1.5000000000000000e+01
0.0000000000000000e+00 1.5000000000000000e+01
ITEM: ATOMS id type x y z
10 2 6.98345 5.41009 5.90217
6 2 9.15852 8.04665 8.77384
7 2 6.41481 8.65865 7.63974
8 2 8.51727 6.47804 7.66088
9 2 5.89209 6.91999 5.92978
1 1 8.28418 8.62379 8.61195
2 1 7.3433 8.14898 7.84128
3 1 7.58823 6.85618 7.21588
4 1 6.7663 6.42069 6.28302
5 2 8.26579 9.40873 9.26976
ITEM: TIMESTEP
1900
ITEM: NUMBER OF ATOMS
10
ITEM: BOX BOUNDS pp pp pp
0.0000000000000000e+00 1.5000000000000000e+01
0.0000000000000000e+00 1.5000000000000000e+01
0.0000000000000000e+00 1.5000000000000000e+01
ITEM: ATOMS id type x y z
10 2 6.95571 5.60699 5.60452
6 2 9.1284 7.90423 8.96357
7 2 6.36811 8.63941 7.61967
8 2 8.52229 6.28054 7.29697
9 2 5.89993 7.10328 6.05015
1 1 8.26533 8.56624 8.68788
2 1 7.29777 8.09332 7.92367
3 1 7.64858 6.87586 7.17667
4 1 6.82496 6.49146 6.22953
5 2 8.02974 9.52431 9.24762
ITEM: TIMESTEP
2000
ITEM: NUMBER OF ATOMS
10
ITEM: BOX BOUNDS pp pp pp
0.0000000000000000e+00 1.5000000000000000e+01
0.0000000000000000e+00 1.5000000000000000e+01
0.0000000000000000e+00 1.5000000000000000e+01
ITEM: ATOMS id type x y z
10 2 6.87627 5.65865 5.50346
6 2 9.12862 8.06012 9.00057
7 2 6.4178 8.48994 7.77109
8 2 8.62148 6.30067 7.42303
9 2 5.9806 7.2404 5.94565
1 1 8.18875 8.57195 8.79673
2 1 7.34816 7.99469 7.92099
3 1 7.67218 6.86447 7.11689
4 1 6.79843 6.57648 6.12991
5 2 8.05415 9.42461 9.45809
ITEM: TIMESTEP
2100
ITEM: NUMBER OF ATOMS
10
ITEM: BOX BOUNDS pp pp pp
0.0000000000000000e+00 1.5000000000000000e+01
0.0000000000000000e+00 1.5000000000000000e+01
0.0000000000000000e+00 1.5000000000000000e+01
ITEM: ATOMS id type x y z
10 2 7.20255 5.8741 5.38095
6 2 9.21721 7.92147 8.7944
7 2 6.16965 8.38948 7.87209
8 2 8.48791 6.42317 7.33744
9 2 5.97238 7.18056 5.8134
1 1 8.22494 8.40347 8.81412
2 1 7.26685 8.03462 8.00349
3 1 7.60066 6.93009 7.15701
4 1 6.92744 6.66257 6.06621
5 2 7.95493 9.24677 9.44568
ITEM: TIMESTEP
2200
ITEM: NUMBER OF ATOMS
10
ITEM: BOX BOUNDS pp pp pp
0.0000000000000000e+00 1.5000000000000000e+01
0.0000000000000000e+00 1.5000000000000000e+01
0.0000000000000000e+00 1.5000000000000000e+01
ITEM: ATOMS id type x y z
10 2 7.38981 6.17037 5.18605
6 2 9.22335 8.09801 8.86056
7 2 6.27709 8.31151 8.15953
8 2 8.52639 6.30092 7.37292
9 2 6.0616 7.37485 5.76336
1 1 8.15014 8.37252 8.89893
2 1 7.22988 7.91402 8.03643
3 1 7.58857 6.85754 7.09728
4 1 6.96308 6.81796 5.9593
5 2 8.05575 9.19208 9.59493
ITEM: TIMESTEP
2300
ITEM: NUMBER OF ATOMS
10
ITEM: BOX BOUNDS pp pp pp
0.0000000000000000e+00 1.5000000000000000e+01
0.0000000000000000e+00 1.5000000000000000e+01
0.0000000000000000e+00 1.5000000000000000e+01
ITEM: ATOMS id type x y z
10 2 7.15237 6.37217 4.95539
6 2 9.17039 8.12266 8.95765
7 2 6.19477 8.13726 8.0448
8 2 8.44354 6.14746 7.16549
9 2 6.22938 7.68457 5.73176
1 1 8.10536 8.29829 9.0078
2 1 7.2823 7.82628 8.09778
3 1 7.65294 6.90898 7.07216
4 1 7.00467 6.91857 5.87007
5 2 7.66195 9.04311 9.74702
ITEM: TIMESTEP
2400
ITEM: NUMBER OF ATOMS
10
ITEM: BOX BOUNDS pp pp pp
0.0000000000000000e+00 1.5000000000000000e+01
0.0000000000000000e+00 1.5000000000000000e+01
0.0000000000000000e+00 1.5000000000000000e+01
ITEM: ATOMS id type x y z
10 2 7.6244 6.48515 5.11207
6 2 9.11036 7.76441 8.98737
7 2 6.16175 8.23199 8.0921
8 2 8.62444 6.53574 7.23566
9 2 6.10854 7.6285 5.72999
1 1 8.06654 8.14427 9.01241
2 1 7.15445 7.76189 8.12387
3 1 7.67768 7.00648 6.99231
4 1 7.04116 7.04854 5.85551
5 2 7.85551 8.80713 9.8272
ITEM: TIMESTEP
2500
ITEM: NUMBER OF ATOMS
10
ITEM: BOX BOUNDS pp pp pp
0.0000000000000000e+00 1.5000000000000000e+01
0.0000000000000000e+00 1.5000000000000000e+01
0.0000000000000000e+00 1.5000000000000000e+01
ITEM: ATOMS id type x y z
10 2 7.31944 6.54666 4.91344
6 2 9.0318 7.71376 9.06944
7 2 6.1721 8.11135 8.00357
8 2 8.71134 6.58871 7.00907
9 2 6.16124 7.63912 5.60322
1 1 8.01769 8.05183 9.12329
2 1 7.17661 7.7799 8.14285
3 1 7.73786 7.08819 6.95844
4 1 7.07306 7.08293 5.81966
5 2 7.69677 8.60328 10.0248
ITEM: TIMESTEP
2600
ITEM: NUMBER OF ATOMS
10
ITEM: BOX BOUNDS pp pp pp
0.0000000000000000e+00 1.5000000000000000e+01
0.0000000000000000e+00 1.5000000000000000e+01
0.0000000000000000e+00 1.5000000000000000e+01
ITEM: ATOMS id type x y z
10 2 7.46569 6.69114 4.89284
6 2 9.01216 7.64615 9.22751
7 2 6.1879 8.15908 7.98036
8 2 8.81046 6.62302 6.90782
9 2 6.10901 7.71123 5.92375
1 1 7.92256 7.98775 9.1798
2 1 7.23711 7.72763 8.08809
3 1 7.7834 7.07177 6.90822
4 1 7.05171 7.18905 5.80452
5 2 7.57008 8.53215 10.073
ITEM: TIMESTEP
2700
ITEM: NUMBER OF ATOMS
10
ITEM: BOX BOUNDS pp pp pp
0.0000000000000000e+00 1.5000000000000000e+01
0.0000000000000000e+00 1.5000000000000000e+01
0.0000000000000000e+00 1.5000000000000000e+01
ITEM: ATOMS id type x y z
10 2 7.59077 6.93994 4.85497
4 1 7.13378 7.27345 5.7828
6 2 8.99209 7.58599 9.04059
7 2 6.12619 8.06754 8.01477
8 2 8.7629 6.78321 7.07545
9 2 6.10381 7.62819 5.61508
1 1 7.97351 7.85018 9.17997
2 1 7.14213 7.74542 8.13192
3 1 7.75736 7.1273 6.93945
5 2 7.50758 8.23708 10.0833
ITEM: TIMESTEP
2800
ITEM: NUMBER OF ATOMS
10
ITEM: BOX BOUNDS pp pp pp
0.0000000000000000e+00 1.5000000000000000e+01
0.0000000000000000e+00 1.5000000000000000e+01
0.0000000000000000e+00 1.5000000000000000e+01
ITEM: ATOMS id type x y z
10 2 7.66682 7.0644 4.77667
4 1 7.19216 7.37241 5.73526
6 2 9.0072 7.68952 9.2321
7 2 6.05394 7.90795 8.06418
8 2 8.7618 6.76826 7.05325
9 2 6.20003 7.83245 5.72107
1 1 7.88938 7.74858 9.19128
2 1 7.13815 7.67704 8.15335
3 1 7.75538 7.2025 6.89011
5 2 7.58378 7.95426 10.2217
ITEM: TIMESTEP
2900
ITEM: NUMBER OF ATOMS
10
ITEM: BOX BOUNDS pp pp pp
0.0000000000000000e+00 1.5000000000000000e+01
0.0000000000000000e+00 1.5000000000000000e+01
0.0000000000000000e+00 1.5000000000000000e+01
ITEM: ATOMS id type x y z
10 2 7.66889 7.50851 4.7842
4 1 7.19933 7.55298 5.74651
6 2 8.8851 7.43928 9.21197
7 2 6.10929 7.85925 8.13738
8 2 8.89106 6.82248 6.8656
9 2 6.21708 7.96689 5.87397
1 1 7.81009 7.68058 9.26854
2 1 7.16008 7.47066 8.11772
3 1 7.85485 7.20008 6.86094
5 2 7.20647 8.19781 10.0536
ITEM: TIMESTEP
3000
ITEM: NUMBER OF ATOMS
10
ITEM: BOX BOUNDS pp pp pp
0.0000000000000000e+00 1.5000000000000000e+01
0.0000000000000000e+00 1.5000000000000000e+01
0.0000000000000000e+00 1.5000000000000000e+01
ITEM: ATOMS id type x y z
10 2 7.84068 7.48107 4.74304
4 1 7.29533 7.69414 5.72326
6 2 8.90551 7.56476 9.29701
7 2 5.97058 7.44615 8.02014
8 2 8.80576 6.86138 7.01855
9 2 6.34431 8.32262 5.60252
1 1 7.82247 7.54703 9.23533
2 1 7.04596 7.38439 8.15049
3 1 7.81385 7.33041 6.89192
5 2 7.39151 7.80818 10.2017
ITEM: TIMESTEP
3100
ITEM: NUMBER OF ATOMS
10
ITEM: BOX BOUNDS pp pp pp
0.0000000000000000e+00 1.5000000000000000e+01
0.0000000000000000e+00 1.5000000000000000e+01
0.0000000000000000e+00 1.5000000000000000e+01
ITEM: ATOMS id type x y z
10 2 7.92432 7.7508 4.87283
4 1 7.32214 7.81482 5.76121
6 2 8.83241 7.44876 9.20514
7 2 6.00717 7.45805 8.02224
8 2 8.85017 6.98171 6.93812
9 2 6.32497 8.24311 5.70987
1 1 7.7225 7.42788 9.24126
2 1 7.09493 7.37173 8.12579
3 1 7.85208 7.34301 6.86187
5 2 7.23506 7.59289 10.2001
ITEM: TIMESTEP
3200
ITEM: NUMBER OF ATOMS
10
ITEM: BOX BOUNDS pp pp pp
0.0000000000000000e+00 1.5000000000000000e+01
0.0000000000000000e+00 1.5000000000000000e+01
0.0000000000000000e+00 1.5000000000000000e+01
ITEM: ATOMS id type x y z
10 2 7.85003 8.03106 4.83487
4 1 7.32911 7.86267 5.77903
6 2 8.74822 7.27989 9.38755
7 2 6.05226 7.55801 7.91036
8 2 9.004 7.13144 6.75736
9 2 6.28548 8.11657 5.81048
1 1 7.67321 7.32935 9.29582
2 1 7.12291 7.38539 8.07517
3 1 7.89977 7.36604 6.85033
5 2 7.034 7.44233 10.1863
ITEM: TIMESTEP
3300
ITEM: NUMBER OF ATOMS
10
ITEM: BOX BOUNDS pp pp pp
0.0000000000000000e+00 1.5000000000000000e+01
0.0000000000000000e+00 1.5000000000000000e+01
0.0000000000000000e+00 1.5000000000000000e+01
ITEM: ATOMS id type x y z
10 2 8.07986 8.0493 4.88689
4 1 7.36276 7.93043 5.76132
6 2 8.76998 7.30227 9.34726
7 2 5.9497 7.48333 7.96448
8 2 8.93528 7.15329 7.06248
9 2 6.27174 8.19391 5.56405
1 1 7.66623 7.2244 9.24259
2 1 7.04945 7.40075 8.07287
3 1 7.90447 7.45659 6.89761
5 2 7.21992 6.96489 10.2174
ITEM: TIMESTEP
3400
ITEM: NUMBER OF ATOMS
10
ITEM: BOX BOUNDS pp pp pp
0.0000000000000000e+00 1.5000000000000000e+01
0.0000000000000000e+00 1.5000000000000000e+01
0.0000000000000000e+00 1.5000000000000000e+01
ITEM: ATOMS id type x y z
10 2 8.06027 8.29125 4.97597
4 1 7.43632 8.01495 5.80465
6 2 8.73301 6.99291 9.1816
7 2 6.00164 7.50115 7.84061
8 2 8.94278 7.42339 7.07904
9 2 6.37824 8.07932 5.73302
1 1 7.65033 7.1154 9.20321
2 1 7.02826 7.30467 8.06654
3 1 7.89249 7.56085 6.93293
5 2 6.9636 6.95675 10.0348
ITEM: TIMESTEP
3500
ITEM: NUMBER OF ATOMS
10
ITEM: BOX BOUNDS pp pp pp
0.0000000000000000e+00 1.5000000000000000e+01
0.0000000000000000e+00 1.5000000000000000e+01
0.0000000000000000e+00 1.5000000000000000e+01
ITEM: ATOMS id type x y z
10 2 7.87691 8.32046 4.86467
4 1 7.42136 8.13638 5.8343
6 2 8.5343 6.8218 9.48361
7 2 6.01363 7.31789 7.8744
8 2 9.15879 7.49794 7.12746
9 2 6.338 8.25078 5.88734
1 1 7.49525 6.96429 9.19784
2 1 7.11169 7.26225 7.98263
3 1 8.02534 7.68719 6.91707
5 2 6.88048 6.7104 10.0604
ITEM: TIMESTEP
3600
ITEM: NUMBER OF ATOMS
10
ITEM: BOX BOUNDS pp pp pp
0.0000000000000000e+00 1.5000000000000000e+01
0.0000000000000000e+00 1.5000000000000000e+01
0.0000000000000000e+00 1.5000000000000000e+01
ITEM: ATOMS id type x y z
10 2 8.08757 8.56209 4.97055
4 1 7.51474 8.27586 5.88817
6 2 8.62609 6.83715 9.30633
7 2 5.92322 7.15847 7.71687
8 2 8.98817 7.62237 7.22772
9 2 6.42091 8.38085 5.68631
1 1 7.54021 6.84842 9.14369
2 1 7.01008 7.20644 7.95462
3 1 7.97444 7.689 7.01974
5 2 6.8412 6.54075 9.94392
ITEM: TIMESTEP
3700
ITEM: NUMBER OF ATOMS
10
ITEM: BOX BOUNDS pp pp pp
0.0000000000000000e+00 1.5000000000000000e+01
0.0000000000000000e+00 1.5000000000000000e+01
0.0000000000000000e+00 1.5000000000000000e+01
ITEM: ATOMS id type x y z
10 2 8.33212 8.87107 5.39163
4 1 7.54045 8.3928 5.95496
6 2 8.56899 6.84627 9.27958
7 2 5.99341 7.10215 7.62183
8 2 8.98589 7.64809 7.34826
9 2 6.48515 8.34291 5.71761
1 1 7.48833 6.75356 9.07682
2 1 7.03061 7.16213 7.91292
3 1 7.91976 7.7013 6.99302
5 2 6.8835 6.3508 9.90382
ITEM: TIMESTEP
3800
ITEM: NUMBER OF ATOMS
10
ITEM: BOX BOUNDS pp pp pp
0.0000000000000000e+00 1.5000000000000000e+01
0.0000000000000000e+00 1.5000000000000000e+01
0.0000000000000000e+00 1.5000000000000000e+01
ITEM: ATOMS id type x y z
10 2 8.06163 9.0861 5.31947
4 1 7.53832 8.47204 6.01525
6 2 8.36778 6.8261 9.49927
7 2 6.06588 7.00866 7.48183
8 2 9.14901 7.628 7.13081
9 2 6.49847 8.60601 5.75173
1 1 7.39956 6.66541 9.07612
2 1 7.07796 7.12858 7.90829
3 1 8.02656 7.72731 7.00039
5 2 6.72687 6.10508 9.70561
ITEM: TIMESTEP
3900
ITEM: NUMBER OF ATOMS
10
ITEM: BOX BOUNDS pp pp pp
0.0000000000000000e+00 1.5000000000000000e+01
0.0000000000000000e+00 1.5000000000000000e+01
0.0000000000000000e+00 1.5000000000000000e+01
ITEM: ATOMS id type x y z
4 1 7.55548 8.55632 6.08105
6 2 8.42864 6.80856 9.44779
7 2 6.01544 6.83559 7.44857
8 2 9.05205 7.68715 7.19689
9 2 6.47156 8.59352 5.86658
1 1 7.39719 6.65671 9.04568
2 1 7.04212 7.02699 7.78425
3 1 8.02275 7.75034 7.0163
5 2 6.70778 6.10666 9.71376
10 2 8.34328 9.24634 5.65171
ITEM: TIMESTEP
4000
ITEM: NUMBER OF ATOMS
10
ITEM: BOX BOUNDS pp pp pp
0.0000000000000000e+00 1.5000000000000000e+01
0.0000000000000000e+00 1.5000000000000000e+01
0.0000000000000000e+00 1.5000000000000000e+01
ITEM: ATOMS id type x y z
4 1 7.60503 8.66883 6.1274
6 2 8.37964 6.79459 9.3159
7 2 6.14923 6.75325 7.2523
8 2 9.0519 7.60601 7.3909
9 2 6.56192 8.90451 5.84225
1 1 7.37277 6.58151 8.99776
2 1 7.07884 6.94425 7.77901
3 1 7.95135 7.77113 7.06934
5 2 6.65668 6.01088 9.60344
10 2 8.27676 9.35648 5.64316
ITEM: TIMESTEP
4100
ITEM: NUMBER OF ATOMS
10
ITEM: BOX BOUNDS pp pp pp
0.0000000000000000e+00 1.5000000000000000e+01
0.0000000000000000e+00 1.5000000000000000e+01
0.0000000000000000e+00 1.5000000000000000e+01
ITEM: ATOMS id type x y z
4 1 7.58313 8.74135 6.23579
6 2 8.17678 6.42087 9.51685
7 2 6.15551 6.7357 7.13273
8 2 9.13067 7.83996 7.35898
9 2 6.54872 8.76086 6.12316
1 1 7.28572 6.44701 8.89917
2 1 7.10576 6.96234 7.70125
3 1 8.07449 7.89113 7.10741
5 2 6.56801 5.85689 9.45889
10 2 8.24978 9.35474 5.63667
ITEM: TIMESTEP
4200
ITEM: NUMBER OF ATOMS
10
ITEM: BOX BOUNDS pp pp pp
0.0000000000000000e+00 1.5000000000000000e+01
0.0000000000000000e+00 1.5000000000000000e+01
0.0000000000000000e+00 1.5000000000000000e+01
ITEM: ATOMS id type x y z
4 1 7.65479 8.82905 6.34359
6 2 8.32844 6.49559 9.18844
7 2 6.12951 6.74772 7.15388
8 2 9.00455 7.96464 7.69322
9 2 6.61751 8.83092 5.80168
1 1 7.29377 6.32961 8.81758
2 1 7.04127 6.94266 7.65455
3 1 8.05185 7.88235 7.1835
5 2 6.4981 5.66214 9.174
10 2 8.29582 9.61699 5.8825
ITEM: TIMESTEP
4300
ITEM: NUMBER OF ATOMS
10
ITEM: BOX BOUNDS pp pp pp
0.0000000000000000e+00 1.5000000000000000e+01
0.0000000000000000e+00 1.5000000000000000e+01
0.0000000000000000e+00 1.5000000000000000e+01
ITEM: ATOMS id type x y z
4 1 7.69719 8.92316 6.37574
6 2 8.1666 6.33542 9.32955
7 2 6.15781 6.90911 6.93117
8 2 8.85854 7.9032 7.91988
9 2 6.78297 8.7843 5.85188
1 1 7.29406 6.23078 8.70252
2 1 7.03129 6.9632 7.63103
3 1 7.96388 7.9311 7.2363
5 2 6.81053 5.30945 9.0629
10 2 8.42906 9.68906 6.12006
ITEM: TIMESTEP
4400
ITEM: NUMBER OF ATOMS
10
ITEM: BOX BOUNDS pp pp pp
0.0000000000000000e+00 1.5000000000000000e+01
0.0000000000000000e+00 1.5000000000000000e+01
0.0000000000000000e+00 1.5000000000000000e+01
ITEM: ATOMS id type x y z
4 1 7.67009 8.88734 6.46277
6 2 8.15562 6.2709 9.19687
7 2 6.20764 6.88778 6.93231
8 2 8.96459 8.10614 7.9413
9 2 6.7717 8.8146 5.85392
1 1 7.21886 6.14823 8.61338
2 1 7.08799 6.96223 7.58247
3 1 8.06629 8.01245 7.35313
5 2 6.53044 5.30461 8.67671
10 2 8.23461 9.77445 6.21735
ITEM: TIMESTEP
4500
ITEM: NUMBER OF ATOMS
10
ITEM: BOX BOUNDS pp pp pp
0.0000000000000000e+00 1.5000000000000000e+01
0.0000000000000000e+00 1.5000000000000000e+01
0.0000000000000000e+00 1.5000000000000000e+01
ITEM: ATOMS id type x y z
4 1 7.72937 8.98194 6.51605
6 2 8.03904 6.14426 9.22574
7 2 6.28806 6.85724 6.79727
8 2 8.92139 8.10817 7.97839
9 2 6.73494 8.91432 5.93389
1 1 7.21695 6.09538 8.539
2 1 7.08294 6.90853 7.51157
3 1 7.99209 8.03337 7.39618
5 2 6.63404 5.20396 8.78084
10 2 8.37838 9.87673 6.39612
ITEM: TIMESTEP
4600
ITEM: NUMBER OF ATOMS
10
ITEM: BOX BOUNDS pp pp pp
0.0000000000000000e+00 1.5000000000000000e+01
0.0000000000000000e+00 1.5000000000000000e+01
0.0000000000000000e+00 1.5000000000000000e+01
ITEM: ATOMS id type x y z
4 1 7.7215 9.04271 6.59869
6 2 8.04973 6.30502 9.17739
7 2 6.415 6.79445 6.58344
8 2 8.78991 7.939 8.09799
9 2 6.88323 9.1842 5.99753
1 1 7.22608 6.03789 8.48732
2 1 7.12558 6.87456 7.46024
3 1 7.93667 8.02472 7.41425
5 2 6.51163 5.21193 8.66037
10 2 8.41551 9.90616 6.60927
ITEM: TIMESTEP
4700
ITEM: NUMBER OF ATOMS
10
ITEM: BOX BOUNDS pp pp pp
0.0000000000000000e+00 1.5000000000000000e+01
0.0000000000000000e+00 1.5000000000000000e+01
0.0000000000000000e+00 1.5000000000000000e+01
ITEM: ATOMS id type x y z
4 1 7.6778 9.07875 6.74173
6 2 7.75972 6.04381 9.29708
7 2 6.57505 6.74745 6.48296
8 2 8.92775 8.10562 8.15116
9 2 6.751 9.0011 6.10761
1 1 7.15906 6.00647 8.37073
2 1 7.17982 6.86202 7.35745
3 1 8.07193 8.06472 7.46047
5 2 6.33231 5.27515 8.36581
10 2 8.24651 9.97506 6.90209
ITEM: TIMESTEP
4800
ITEM: NUMBER OF ATOMS
10
ITEM: BOX BOUNDS pp pp pp
0.0000000000000000e+00 1.5000000000000000e+01
0.0000000000000000e+00 1.5000000000000000e+01
0.0000000000000000e+00 1.5000000000000000e+01
ITEM: ATOMS id type x y z
4 1 7.70125 9.18608 6.89423
6 2 7.41235 6.10471 9.25962
7 2 6.76977 6.65005 6.33045
8 2 8.93248 8.0036 8.15748
9 2 6.84114 9.30325 6.23049
1 1 7.10298 5.92822 8.25484
2 1 7.22592 6.81193 7.31497
3 1 8.05018 8.05262 7.49415
5 2 6.49361 5.05391 8.11722
10 2 8.19271 10.2313 7.04462
ITEM: TIMESTEP
4900
ITEM: NUMBER OF ATOMS
10
ITEM: BOX BOUNDS pp pp pp
0.0000000000000000e+00 1.5000000000000000e+01
0.0000000000000000e+00 1.5000000000000000e+01
0.0000000000000000e+00 1.5000000000000000e+01
ITEM: ATOMS id type x y z
4 1 7.70977 9.22751 7.02688
6 2 7.52271 6.11726 9.16821
7 2 6.74791 6.8103 6.181
8 2 8.57812 7.89553 8.43516
9 2 7.07422 9.1949 6.13402
1 1 7.11106 5.90888 8.15582
2 1 7.27995 6.85251 7.21041
3 1 7.98136 8.03607 7.54457
5 2 6.53782 4.97472 7.89154
10 2 8.17038 10.0775 7.45301
ITEM: TIMESTEP
5000
ITEM: NUMBER OF ATOMS
10
ITEM: BOX BOUNDS pp pp pp
0.0000000000000000e+00 1.5000000000000000e+01
0.0000000000000000e+00 1.5000000000000000e+01
0.0000000000000000e+00 1.5000000000000000e+01
ITEM: ATOMS id type x y z
4 1 7.73066 9.18913 7.05932
6 2 7.49875 5.78491 9.0171
7 2 6.77814 6.99289 6.26257
8 2 8.52907 8.03148 8.71218
9 2 7.15938 9.21375 6.14355
1 1 7.10644 5.85321 7.9898
2 1 7.25257 6.89128 7.18695
3 1 7.95986 8.08166 7.74115
5 2 6.64203 4.93113 7.63644
10 2 8.21943 10.1742 7.2539
ITEM: TIMESTEP
5100
ITEM: NUMBER OF ATOMS
10
ITEM: BOX BOUNDS pp pp pp
0.0000000000000000e+00 1.5000000000000000e+01
0.0000000000000000e+00 1.5000000000000000e+01
0.0000000000000000e+00 1.5000000000000000e+01
ITEM: ATOMS id type x y z
4 1 7.78767 9.22874 7.13939
6 2 7.52182 5.82188 8.86883
7 2 6.75011 7.03772 6.18886
8 2 8.28984 7.98267 8.75347
9 2 7.26317 9.2659 6.16796
1 1 7.12612 5.81042 7.88211
2 1 7.27669 6.89641 7.18445
3 1 7.85954 8.08483 7.78582
5 2 6.70126 4.85736 7.55166
10 2 8.29773 10.132 7.4076
ITEM: TIMESTEP
5200
ITEM: NUMBER OF ATOMS
10
ITEM: BOX BOUNDS pp pp pp
0.0000000000000000e+00 1.5000000000000000e+01
0.0000000000000000e+00 1.5000000000000000e+01
0.0000000000000000e+00 1.5000000000000000e+01
ITEM: ATOMS id type x y z
5 2 6.68601 4.89504 7.39559
4 1 7.81149 9.2365 7.22908
6 2 7.57961 5.84779 8.87218
7 2 6.81783 7.13212 6.1342
8 2 8.07006 7.89418 8.86892
9 2 7.46751 9.30247 6.19922
1 1 7.17125 5.78994 7.8136
2 1 7.28977 6.93542 7.10133
3 1 7.7631 8.05217 7.78624
10 2 8.28928 10.0642 7.8374
ITEM: TIMESTEP
5300
ITEM: NUMBER OF ATOMS
10
ITEM: BOX BOUNDS pp pp pp
0.0000000000000000e+00 1.5000000000000000e+01
0.0000000000000000e+00 1.5000000000000000e+01
0.0000000000000000e+00 1.5000000000000000e+01
ITEM: ATOMS id type x y z
5 2 6.86852 4.83396 7.059
4 1 7.85147 9.24104 7.31551
6 2 7.23644 5.51444 8.64418
7 2 7.02375 7.2118 6.07616
8 2 7.96256 7.87365 9.0078
9 2 7.63499 9.5334 6.27078
1 1 7.21843 5.75893 7.62229
2 1 7.2595 6.96906 7.09829
3 1 7.70053 8.05141 7.97299
10 2 8.21816 10.1301 7.77657
ITEM: TIMESTEP
5400
ITEM: NUMBER OF ATOMS
10
ITEM: BOX BOUNDS pp pp pp
0.0000000000000000e+00 1.5000000000000000e+01
0.0000000000000000e+00 1.5000000000000000e+01
0.0000000000000000e+00 1.5000000000000000e+01
ITEM: ATOMS id type x y z
5 2 6.87172 5.00169 6.84863
4 1 7.90754 9.22044 7.48514
6 2 7.27741 5.52231 8.5718
7 2 7.06345 7.18779 5.97242
8 2 7.69876 7.89952 9.0217
9 2 7.89051 9.32237 6.43566
1 1 7.25177 5.75069 7.45898
2 1 7.27005 6.9869 7.07892
3 1 7.62278 8.07483 7.95145
10 2 8.0094 10.0892 8.19184
ITEM: TIMESTEP
5500
ITEM: NUMBER OF ATOMS
10
ITEM: BOX BOUNDS pp pp pp
0.0000000000000000e+00 1.5000000000000000e+01
0.0000000000000000e+00 1.5000000000000000e+01
0.0000000000000000e+00 1.5000000000000000e+01
ITEM: ATOMS id type x y z
5 2 7.04448 4.91494 6.65521
4 1 7.9604 9.24471 7.61546
6 2 7.28001 5.52731 8.43007
7 2 7.16261 7.2843 5.99462
8 2 7.51745 7.68284 9.00417
9 2 8.06263 9.5574 6.5482
1 1 7.29162 5.74379 7.40545
2 1 7.24438 7.0156 7.00827
3 1 7.48946 8.03373 7.96036
10 2 8.14167 10.0262 8.31948
ITEM: TIMESTEP
5600
ITEM: NUMBER OF ATOMS
10
ITEM: BOX BOUNDS pp pp pp
0.0000000000000000e+00 1.5000000000000000e+01
0.0000000000000000e+00 1.5000000000000000e+01
0.0000000000000000e+00 1.5000000000000000e+01
ITEM: ATOMS id type x y z
5 2 7.19089 4.97183 6.56278
4 1 7.98706 9.19308 7.68659
6 2 7.3348 5.26847 8.32939
7 2 7.19432 7.43162 5.90523
8 2 7.23557 7.72789 9.07378
9 2 8.21465 9.43005 6.65494
1 1 7.31321 5.75686 7.28445
2 1 7.26346 7.06813 6.97185
3 1 7.39387 8.04547 8.04462
10 2 8.20824 10.009 8.43784
ITEM: TIMESTEP
5700
ITEM: NUMBER OF ATOMS
10
ITEM: BOX BOUNDS pp pp pp
0.0000000000000000e+00 1.5000000000000000e+01
0.0000000000000000e+00 1.5000000000000000e+01
0.0000000000000000e+00 1.5000000000000000e+01
ITEM: ATOMS id type x y z
5 2 7.17732 5.10325 6.32443
4 1 7.96012 9.16894 7.84047
6 2 7.37863 5.521 8.18181
7 2 7.19027 7.39752 5.93545
8 2 7.02425 7.77266 9.01538
9 2 8.37763 9.385 6.82965
1 1 7.30448 5.77725 7.18909
2 1 7.31839 7.05487 6.956
3 1 7.3898 8.02182 8.01902
10 2 8.13924 9.90333 8.57476
ITEM: TIMESTEP
5800
ITEM: NUMBER OF ATOMS
10
ITEM: BOX BOUNDS pp pp pp
0.0000000000000000e+00 1.5000000000000000e+01
0.0000000000000000e+00 1.5000000000000000e+01
0.0000000000000000e+00 1.5000000000000000e+01
ITEM: ATOMS id type x y z
5 2 7.36349 4.95167 6.43611