LAMMPS (2 Aug 2023 - Update 2)
#13 Butadiene
units           metal
boundary        p p p
atom_style      atomic

neighbor        2.0 bin
neigh_modify    delay 0 every 1 check yes

read_data       restart.lmp
Reading data file ...
  orthogonal box = (0 0 0) to (15 15 15)
  1 by 1 by 3 MPI processor grid
  reading atoms ...
  10 atoms
  reading velocities ...
  10 velocities
  read_data CPU = 0.001 seconds
mass            1 12.0
mass            2 2

variable        sysvol          equal vol
variable        sysmass         equal mass(all)/6.0221367e+23
variable        sysdensity      equal v_sysmass/v_sysvol/1.0e-24
variable	out_freq 	equal 100

pair_style      deepmd ../files/frozen_model_1_compressed.pb ../files/frozen_model_2_compressed.pb ../files/frozen_model_3_compressed.pb ../files/frozen_model_3_compressed.pb out_file md.out out_freq 10 atomic relative 1.0
Summary of lammps deepmd module ...
  >>> Info of deepmd-kit:
  installed to:       /rs1/researchers/w/wjpfaend/rahul/MLP/DeePMD-kit/deepmd_cpu
  source:             v2.2.8-dirty
  source branch:      master
  source commit:      b875ea8
  source commit at:   2024-01-22 22:28:58 -0500
  support model ver.: 1.1 
  build variant:      cpu
  build with tf inc:  /rs1/researchers/w/wjpfaend/rahul/MLP/DeePMD-kit/tensorflow/lib/python3.11/site-packages/tensorflow/include;/rs1/researchers/w/wjpfaend/rahul/MLP/DeePMD-kit/tensorflow/lib/python3.11/site-packages/tensorflow/include
  build with tf lib:  /rs1/researchers/w/wjpfaend/rahul/MLP/DeePMD-kit/tensorflow/lib/python3.11/site-packages/tensorflow/libtensorflow_cc.so.2
  set tf intra_op_parallelism_threads: 0
  set tf inter_op_parallelism_threads: 0
  >>> Info of lammps module:
  use deepmd-kit at:  /rs1/researchers/w/wjpfaend/rahul/MLP/DeePMD-kit/deepmd_cpu
  source:             v2.2.8-dirty
  source branch:      master
  source commit:      b875ea8
  source commit at:   2024-01-22 22:28:58 -0500
  build float prec:   double
  build with tf inc:  /rs1/researchers/w/wjpfaend/rahul/MLP/DeePMD-kit/tensorflow/lib/python3.11/site-packages/tensorflow/include;/rs1/researchers/w/wjpfaend/rahul/MLP/DeePMD-kit/tensorflow/lib/python3.11/site-packages/tensorflow/include
  build with tf lib:  /rs1/researchers/w/wjpfaend/rahul/MLP/DeePMD-kit/tensorflow/lib/python3.11/site-packages/tensorflow/libtensorflow_cc.so.2
pair_coeff	* *

#
velocity        all create 300.0 2345678 rot no dist gaussian
fix             1 all nvt temp 300.0 300.0 0.05
fix             2 all plumed plumedfile plumed.dat outfile PLUMED.log

timestep        0.0005
thermo_style    custom step pe ke etotal v_sysdensity temp press vol
thermo          10

dump            10 all custom 100 btd.dump id type x y z
dump		101 all xyz 20 btd.xyz
dump_modify	101 element C H

fix		extra all print 20 "$(step), $(ke), $(pe), $(etotal), $(temp), $(press), $(vol)" file logfile screen no

restart	        20000 dump.restart

run             50000

CITE-CITE-CITE-CITE-CITE-CITE-CITE-CITE-CITE-CITE-CITE-CITE-CITE

Your simulation uses code contributions which should be cited:

- USER-DEEPMD package:

@article{Wang_ComputPhysCommun_2018_v228_p178,
  author = {Wang, Han and Zhang, Linfeng and Han, Jiequn and E, Weinan},
  doi = {10.1016/j.cpc.2018.03.016},
  url = {https://doi.org/10.1016/j.cpc.2018.03.016},
  year = 2018,
  month = {jul},
  publisher = {Elsevier {BV}},
  volume = 228,
  journal = {Comput. Phys. Commun.},
  title = {{DeePMD-kit: A deep learning package for many-body potential energy representation and molecular dynamics}},
  pages = {178--184}
}
@misc{Zeng_JChemPhys_2023_v159_p054801,
  title  = {{DeePMD-kit v2: A software package for deep potential models}},
  author =   {Jinzhe Zeng and Duo Zhang and Denghui Lu and Pinghui Mo and Zeyu Li
         and Yixiao Chen and Mari{\'a}n Rynik and Li'ang Huang and Ziyao Li and 
         Shaochen Shi and Yingze Wang and Haotian Ye and Ping Tuo and Jiabin
         Yang and Ye Ding and Yifan Li and Davide Tisi and Qiyu Zeng and Han 
         Bao and Yu Xia and Jiameng Huang and Koki Muraoka and Yibo Wang and 
         Junhan Chang and Fengbo Yuan and Sigbj{\o}rn L{\o}land Bore and Chun
         Cai and Yinnian Lin and Bo Wang and Jiayan Xu and Jia-Xin Zhu and 
         Chenxing Luo and Yuzhi Zhang and Rhys E A Goodall and Wenshuo Liang
         and Anurag Kumar Singh and Sikai Yao and Jingchao Zhang and Renata
         Wentzcovitch and Jiequn Han and Jie Liu and Weile Jia and Darrin M
         York and Weinan E and Roberto Car and Linfeng Zhang and Han Wang},
  journal =  {J. Chem. Phys.},
  volume =   159,
  issue =    5,  
  year =    2023,
  pages  =   054801,
  doi =      {10.1063/5.0155600},
}

CITE-CITE-CITE-CITE-CITE-CITE-CITE-CITE-CITE-CITE-CITE-CITE-CITE

Generated 0 of 1 mixed pair_coeff terms from geometric mixing rule
Neighbor list info ...
  update: every = 1 steps, delay = 0 steps, check = yes
  max neighbors/atom: 2000, page size: 100000
  master list distance cutoff = 8
  ghost atom cutoff = 8
  binsize = 4, bins = 4 4 4
  1 neighbor lists, perpetual/occasional/extra = 1 0 0
  (1) pair deepmd, perpetual
      attributes: full, newton on
      pair build: full/bin/atomonly
      stencil: full/bin/3d
      bin: standard
Per MPI rank memory allocation (min/avg/max) = 2.957 | 2.999 | 3.082 Mbytes
   Step         PotEng         KinEng         TotEng      v_sysdensity       Temp          Press          Volume    
         0  -56.504744      0.34900239    -56.155741      0.029520714    300           -2460.4742      3375         
        10  -56.451519      0.59209272    -55.859426      0.029520714    508.95874      1244.8809      3375         
        20  -56.517801      0.64198507    -55.875816      0.029520714    551.84585      1467.6229      3375         
        30  -56.201022      0.31319649    -55.887825      0.029520714    269.2215      -1167.5617      3375         
        40  -56.49727       0.59405263    -55.903217      0.029520714    510.64346     -617.61602      3375         
        50  -56.442707      0.52081282    -55.921894      0.029520714    447.68704      2109.8455      3375         
        60  -56.343239      0.3890068     -55.954232      0.029520714    334.38751      568.02694      3375         
        70  -56.378966      0.39602185    -55.982945      0.029520714    340.41759     -2371.8551      3375         
        80  -56.546116      0.57742737    -55.968688      0.029520714    496.3525      -376.06666      3375         
        90  -56.270572      0.24836374    -56.022208      0.029520714    213.49172      1844.4743      3375         
       100  -56.517656      0.45249294    -56.065163      0.029520714    388.95975     -557.88147      3375         
       110  -56.493352      0.42745135    -56.065901      0.029520714    367.43417     -1323.3674      3375         
       120  -56.446855      0.35152351    -56.095332      0.029520714    302.16713      1594.9109      3375         
       130  -56.509069      0.37431701    -56.134752      0.029520714    321.76027      1092.3551      3375         
       140  -56.485284      0.34532011    -56.139964      0.029520714    296.83474     -1821.3824      3375         
       150  -56.446954      0.29833368    -56.14862       0.029520714    256.44553     -1224.4777      3375         
       160  -56.5164        0.34508915    -56.171311      0.029520714    296.63621      1404.3875      3375         
       170  -56.536556      0.34986871    -56.186688      0.029520714    300.74468      1009.666       3375         
       180  -56.40825       0.21197637    -56.196273      0.029520714    182.21339     -1135.4219      3375         
       190  -56.64081       0.4576292     -56.183181      0.029520714    393.37484     -42.249057      3375         
       200  -56.523648      0.32565405    -56.197994      0.029520714    279.92993      1421.2954      3375         
       210  -56.484302      0.27149092    -56.212811      0.029520714    233.37168     -607.5132       3375         
       220  -56.473347      0.26195719    -56.21139       0.029520714    225.17655     -2024.2989      3375         
       230  -56.606328      0.40967736    -56.196651      0.029520714    352.15578      570.58974      3375         
       240  -56.487025      0.27341355    -56.213612      0.029520714    235.02437      1899.1447      3375         
       250  -56.497448      0.28142052    -56.216028      0.029520714    241.9071      -725.99079      3375         
       260  -56.534064      0.33667293    -56.197391      0.029520714    289.40168     -846.52368      3375         
       270  -56.498574      0.29106125    -56.207513      0.029520714    250.1942       1107.2168      3375         
       280  -56.59011       0.37656344    -56.213547      0.029520714    323.69128      250.06493      3375         
       290  -56.483918      0.27468406    -56.209234      0.029520714    236.11649     -1710.5702      3375         
       300  -56.524825      0.33347697    -56.191348      0.029520714    286.65446     -188.37984      3375         
       310  -56.495148      0.30028837    -56.194859      0.029520714    258.12577      2259.3549      3375         
       320  -56.575279      0.37656494    -56.198715      0.029520714    323.69257      90.893633      3375         
       330  -56.409609      0.21560297    -56.194006      0.029520714    185.33079     -1955.3886      3375         
       340  -56.6033        0.42634241    -56.176958      0.029520714    366.48093      62.048449      3375         
       350  -56.466425      0.28544885    -56.180977      0.029520714    245.36982      1538.3429      3375         
       360  -56.494019      0.30449       -56.189529      0.029520714    261.73746     -862.79522      3375         
       370  -56.578306      0.43022902    -56.148077      0.029520714    369.82184     -1492.4053      3375         
       380  -56.561723      0.40497958    -56.156744      0.029520714    348.1176       1329.4696      3375         
       390  -56.354089      0.20424914    -56.14984       0.029520714    175.57112      1561.6455      3375         
       400  -56.436937      0.2815639     -56.155373      0.029520714    242.03035     -1157.1016      3375         
       410  -56.650809      0.51703866    -56.13377       0.029520714    444.44279     -1038.1195      3375         
       420  -56.425731      0.30375169    -56.121979      0.029520714    261.10282      1395.0448      3375         
       430  -56.429869      0.30342005    -56.126449      0.029520714    260.81774     -141.37006      3375         
       440  -56.459519      0.36291564    -56.096603      0.029520714    311.95973     -1834.4118      3375         
       450  -56.599148      0.5111649     -56.087983      0.029520714    439.39376      468.30016      3375         
       460  -56.348409      0.2732446     -56.075165      0.029520714    234.87914      2366.3559      3375         
       470  -56.479376      0.40040029    -56.078976      0.029520714    344.18127     -111.54482      3375         
       480  -56.438813      0.38485879    -56.053954      0.029520714    330.82191     -2053.4665      3375         
       490  -56.46163       0.44731483    -56.014316      0.029520714    384.50868     -255.70109      3375         
       500  -56.396598      0.3894363     -56.007162      0.029520714    334.75671      1068.6378      3375         
       510  -56.438847      0.44947457    -55.989373      0.029520714    386.36518     -307.53058      3375         
       520  -56.377537      0.413503      -55.964034      0.029520714    355.44427     -889.39824      3375         
       530  -56.407993      0.47350525    -55.934487      0.029520714    407.02178      1462.6069      3375         
       540  -56.39761       0.48226413    -55.915345      0.029520714    414.55086      1749.9062      3375         
       550  -56.407824      0.51113997    -55.896684      0.029520714    439.37232     -1754.0219      3375         
       560  -56.334801      0.4975353     -55.837265      0.029520714    427.67784     -1406.446       3375         
       570  -56.20972       0.37411682    -55.835604      0.029520714    321.58819      1114.7544      3375         
       580  -56.411229      0.59093163    -55.820298      0.029520714    507.96067     -100.66388      3375         
       590  -56.315529      0.53056925    -55.78496       0.029520714    456.0736      -1836.1569      3375         
       600  -56.298552      0.53049765    -55.768054      0.029520714    456.01204      793.62371      3375         
       610  -56.190894      0.43020802    -55.760686      0.029520714    369.80378      3160.9425      3375         
       620  -56.507288      0.75095633    -55.756332      0.029520714    645.51678      31.178391      3375         
       630  -56.197078      0.43787141    -55.759207      0.029520714    376.39119     -2741.7278      3375         
       640  -56.239805      0.49379593    -55.746009      0.029520714    424.4635      -915.4219       3375         
       650  -56.306183      0.53888347    -55.767299      0.029520714    463.22044      1458.855       3375         
       660  -56.404915      0.6014175     -55.803497      0.029520714    516.97425     -124.38489      3375         
       670  -56.253048      0.44770625    -55.805341      0.029520714    384.84514     -839.74659      3375         
       680  -56.420363      0.56541243    -55.854951      0.029520714    486.02454      1936.1095      3375         
       690  -56.423796      0.5212938     -55.902502      0.029520714    448.10048      1005.4485      3375         
       700  -56.334262      0.37928858    -55.954973      0.029520714    326.03379     -2370.5991      3375         
       710  -56.483042      0.50505786    -55.977984      0.029520714    434.14418     -1028.9579      3375         
       720  -56.423972      0.38362166    -56.04035       0.029520714    329.75848      1636.16        3375         
       730  -56.453969      0.38007424    -56.073895      0.029520714    326.70915      49.10786       3375         
       740  -56.419933      0.32662714    -56.093306      0.029520714    280.7664      -1159.4609      3375         
       750  -56.553867      0.43106879    -56.122798      0.029520714    370.5437       648.0092       3375         
       760  -56.417493      0.27737836    -56.140115      0.029520714    238.43249      1823.7396      3375         
       770  -56.582488      0.41620857    -56.166279      0.029520714    357.76996     -222.6154       3375         
       780  -56.513296      0.3254504     -56.187846      0.029520714    279.75487     -2211.7914      3375         
       790  -56.46223       0.31202279    -56.150207      0.029520714    268.2126      -484.2563       3375         
       800  -56.554044      0.37006564    -56.183979      0.029520714    318.10582      1465.1618      3375         
       810  -56.562832      0.36496567    -56.197867      0.029520714    313.72192     -123.63243      3375         
       820  -56.429298      0.23432248    -56.194976      0.029520714    201.42196     -529.4142       3375         
       830  -56.534526      0.33027732    -56.204249      0.029520714    283.90406      1549.2009      3375         
       840  -56.643755      0.41928859    -56.224466      0.029520714    360.41753      366.35191      3375         
       850  -56.420306      0.20901985    -56.211287      0.029520714    179.672       -2249.7452      3375         
       860  -56.565139      0.36493038    -56.200208      0.029520714    313.69158     -374.88266      3375         
       870  -56.59683       0.38044096    -56.216389      0.029520714    327.02437      1470.533       3375         
       880  -56.50719       0.28598075    -56.221209      0.029520714    245.82704     -49.873192      3375         
       890  -56.446259      0.22255999    -56.223699      0.029520714    191.311       -759.04786      3375         
       900  -56.611117      0.3943818     -56.216735      0.029520714    339.00782      968.37921      3375         
       910  -56.47904       0.25800796    -56.221032      0.029520714    221.78183      1366.0933      3375         
       920  -56.536426      0.3036703     -56.232756      0.029520714    261.03286     -1245.9285      3375         
       930  -56.516721      0.3158461     -56.200875      0.029520714    271.49908     -2134.2287      3375         
       940  -56.532916      0.32799316    -56.204923      0.029520714    281.94061      439.30964      3375         
       950  -56.577919      0.37024454    -56.207675      0.029520714    318.2596       1405.2864      3375         
       960  -56.494515      0.28804955    -56.206466      0.029520714    247.60536     -448.4218       3375         
       970  -56.474585      0.28365802    -56.190927      0.029520714    243.83043      233.76523      3375         
       980  -56.504668      0.31643262    -56.188236      0.029520714    272.00325      1986.5105      3375         
       990  -56.58343       0.39277841    -56.190651      0.029520714    337.62956     -824.10075      3375         
      1000  -56.404941      0.23156519    -56.173376      0.029520714    199.05181     -2794.3347      3375         
      1010  -56.533328      0.38456524    -56.148763      0.029520714    330.56957      189.95333      3375         
      1020  -56.512086      0.36363158    -56.148454      0.029520714    312.57515      1842.0494      3375         
      1030  -56.49599       0.35052791    -56.145462      0.029520714    301.31132     -284.83786      3375         
      1040  -56.424697      0.31361038    -56.111087      0.029520714    269.57727     -338.42563      3375         
      1050  -56.500485      0.39835972    -56.102125      0.029520714    342.42721      1043.5966      3375         
      1060  -56.479864      0.38475031    -56.095114      0.029520714    330.72866      360.1911       3375         
      1070  -56.390262      0.3120289     -56.078233      0.029520714    268.21785     -1496.5661      3375         
      1080  -56.42145       0.37522968    -56.04622       0.029520714    322.5448      -1249.3068      3375         
      1090  -56.484219      0.4547388     -56.02948       0.029520714    390.89028      1248.905       3375         
      1100  -56.481004      0.47150125    -56.009503      0.029520714    405.29915      1009.7759      3375         
      1110  -56.343248      0.35340557    -55.989843      0.029520714    303.78494     -868.58065      3375         
      1120  -56.476818      0.50658757    -55.97023       0.029520714    435.45911      548.8889       3375         
      1130  -56.443914      0.49077206    -55.953142      0.029520714    421.86421      1647.3344      3375         
      1140  -56.402897      0.43049898    -55.972398      0.029520714    370.05389     -1752.7906      3375         
      1150  -56.192957      0.28770856    -55.905248      0.029520714    247.31225     -2701.9168      3375         
      1160  -56.428352      0.53051587    -55.897836      0.029520714    456.02771      1514.7821      3375         
      1170  -56.510853      0.61193802    -55.898915      0.029520714    526.01762      1766.7488      3375         
      1180  -56.262328      0.36588126    -55.896446      0.029520714    314.50896     -725.95702      3375         
      1190  -56.322436      0.43376935    -55.888667      0.029520714    372.86508     -186.87662      3375         
      1200  -56.476567      0.58483252    -55.891734      0.029520714    502.71792      1312.635       3375         
      1210  -56.392665      0.48337627    -55.909289      0.029520714    415.50684     -269.06276      3375         
      1220  -56.164389      0.27107504    -55.893314      0.029520714    233.01419     -1944.8795      3375         
      1230  -56.505135      0.60366034    -55.901475      0.029520714    518.90218     -457.78181      3375         
      1240  -56.395078      0.46433361    -55.930745      0.029520714    399.1379       1825.6633      3375         
      1250  -56.309356      0.35543294    -55.953923      0.029520714    305.52765      318.47669      3375         
      1260  -56.433816      0.44949228    -55.984323      0.029520714    386.3804      -1260.9678      3375         
      1270  -56.524028      0.51405883    -56.009969      0.029520714    441.88136      1125.8745      3375         
      1280  -56.390845      0.33231579    -56.058529      0.029520714    285.65632      1279.912       3375         
      1290  -56.503463      0.38848206    -56.114981      0.029520714    333.93645     -2154.5823      3375         
      1300  -56.59316       0.47042647    -56.122734      0.029520714    404.37528     -1661.364       3375         
      1310  -56.422342      0.24253312    -56.179809      0.029520714    208.47976      1410.6253      3375         
      1320  -56.443097      0.23981626    -56.203281      0.029520714    206.14437      1309.8904      3375         
      1330  -56.558628      0.33785912    -56.220768      0.029520714    290.42132     -186.00585      3375         
      1340  -56.597158      0.36092617    -56.236232      0.029520714    310.2496      -101.13483      3375         
      1350  -56.492994      0.24000595    -56.252988      0.029520714    206.30742      304.52269      3375         
      1360  -56.605098      0.34237514    -56.262723      0.029520714    294.30326     -562.04463      3375         
      1370  -56.525451      0.25343709    -56.272014      0.029520714    217.85274     -1440.1076      3375         
      1380  -56.558251      0.28811476    -56.270136      0.029520714    247.66142      15.213267      3375         
      1390  -56.534833      0.25582331    -56.27901       0.029520714    219.90391      1781.9389      3375         
      1400  -56.571593      0.2839801     -56.287613      0.029520714    244.1073       127.67864      3375         
      1410  -56.546459      0.27099195    -56.275467      0.029520714    232.94277     -1055.7225      3375         
      1420  -56.574972      0.29424975    -56.280723      0.029520714    252.93501      730.98427      3375         
      1430  -56.593208      0.31197952    -56.281228      0.029520714    268.1754       745.66087      3375         
      1440  -56.599824      0.31292913    -56.286895      0.029520714    268.99168     -1528.9014      3375         
      1450  -56.489591      0.22247309    -56.267118      0.029520714    191.2363      -1071.4263      3375         
      1460  -56.545224      0.27913928    -56.266085      0.029520714    239.94616      1312.6558      3375         
      1470  -56.644472      0.38063583    -56.263836      0.029520714    327.19188      1164.6296      3375         
      1480  -56.475693      0.21527274    -56.26042       0.029520714    185.04693     -427.84652      3375         
      1490  -56.514218      0.26215768    -56.252061      0.029520714    225.3489      -668.12336      3375         
      1500  -56.549935      0.30822492    -56.24171       0.029520714    264.94798      319.45735      3375         
      1510  -56.58209       0.34056661    -56.241523      0.029520714    292.74866     -342.61451      3375         
      1520  -56.466623      0.26108662    -56.205536      0.029520714    224.42822     -1177.504       3375         
      1530  -56.584151      0.38248048    -56.20167       0.029520714    328.77753      954.52024      3375         
      1540  -56.509203      0.32206833    -56.187135      0.029520714    276.84767      1557.5996      3375         
      1550  -56.489796      0.30994201    -56.179854      0.029520714    266.42397     -857.18579      3375         
      1560  -56.498826      0.33807408    -56.160752      0.029520714    290.6061      -1139.5688      3375         
      1570  -56.461688      0.32324568    -56.138442      0.029520714    277.85971      934.02354      3375         
      1580  -56.465139      0.33761495    -56.127524      0.029520714    290.21143      899.56318      3375         
      1590  -56.552034      0.43832743    -56.113707      0.029520714    376.78318     -1161.4001      3375         
      1600  -56.454465      0.37828681    -56.076178      0.029520714    325.17268     -1129.6221      3375         
      1610  -56.382228      0.31202045    -56.070208      0.029520714    268.21058      1124.9708      3375         
      1620  -56.530058      0.4681962     -56.061861      0.029520714    402.45816      1111.0661      3375         
      1630  -56.431647      0.38619539    -56.045452      0.029520714    331.97084     -722.03801      3375         
      1640  -56.377582      0.35889423    -56.018688      0.029520714    308.50295     -601.82225      3375         
      1650  -56.351938      0.33492089    -56.017017      0.029520714    287.89564      520.88567      3375         
      1660  -56.562585      0.56129566    -56.001289      0.029520714    482.4858      -428.33076      3375         
      1670  -56.351242      0.35957274    -55.99167       0.029520714    309.0862      -928.62218      3375         
      1680  -56.383745      0.39569619    -55.988048      0.029520714    340.13766      1306.1007      3375         
      1690  -56.468418      0.48532665    -55.983091      0.029520714    417.18337      1790.2733      3375         
      1700  -56.465672      0.47257583    -55.993097      0.029520714    406.22285     -1460.447       3375         
      1710  -56.375835      0.40898649    -55.966848      0.029520714    351.56191     -1810.2279      3375         
      1720  -56.35972       0.39141823    -55.968301      0.029520714    336.46036      1014.1473      3375         
      1730  -56.444323      0.46639392    -55.977929      0.029520714    400.90893      1053.4154      3375         
      1740  -56.456763      0.45143419    -56.005329      0.029520714    388.04965     -1181.6368      3375         
      1750  -56.405891      0.43213354    -55.973757      0.029520714    371.45895     -481.69354      3375         
      1760  -56.399536      0.39699518    -56.002541      0.029520714    341.25426      1733.0783      3375         
      1770  -56.498978      0.47497079    -56.024007      0.029520714    408.28155      257.89653      3375         
      1780  -56.339952      0.30997224    -56.02998       0.029520714    266.44995     -1452.8868      3375         
      1790  -56.492878      0.43706925    -56.055809      0.029520714    375.70165     -308.54107      3375         
      1800  -56.413317      0.33025814    -56.083059      0.029520714    283.88758      952.28476      3375         
      1810  -56.470945      0.35416825    -56.116777      0.029520714    304.44053     -280.61688      3375         
      1820  -56.456546      0.30878151    -56.147765      0.029520714    265.42641     -495.90791      3375         
      1830  -56.510901      0.33353597    -56.177365      0.029520714    286.70517      1218.2161      3375         
      1840  -56.510513      0.28756103    -56.222952      0.029520714    247.18544      678.17072      3375         
      1850  -56.582705      0.30320217    -56.279503      0.029520714    260.63045     -1738.6139      3375         
      1860  -56.561906      0.29479763    -56.267108      0.029520714    253.40596     -1167.6095      3375         
      1870  -56.504237      0.20133898    -56.302898      0.029520714    173.06957      1379.2406      3375         
      1880  -56.646201      0.31667642    -56.329525      0.029520714    272.21283      962.55812      3375         
      1890  -56.619934      0.28954645    -56.330387      0.029520714    248.89209     -820.77629      3375         
      1900  -56.502506      0.16432955    -56.338176      0.029520714    141.25652     -154.22988      3375         
      1910  -56.549517      0.20271912    -56.346798      0.029520714    174.25593      965.1373       3375         
      1920  -56.752068      0.4007985     -56.351269      0.029520714    344.52357     -330.57782      3375         
      1930  -56.550426      0.19769465    -56.352731      0.029520714    169.93693     -1360.3123      3375         
      1940  -56.508309      0.16956198    -56.338747      0.029520714    145.75428      118.61279      3375         
      1950  -56.63049       0.28845626    -56.342034      0.029520714    247.95497      1245.332       3375         
      1960  -56.638852      0.2929738     -56.345879      0.029520714    251.83821     -262.82454      3375         
      1970  -56.490277      0.15515823    -56.335119      0.029520714    133.37292     -443.3383       3375         
      1980  -56.582904      0.25404872    -56.328855      0.029520714    218.37849      1176.5921      3375         
      1990  -56.663581      0.32442512    -56.339155      0.029520714    278.87355     -1.8118397      3375         
      2000  -56.477923      0.16143365    -56.316489      0.029520714    138.76723     -2110.4026      3375         
      2010  -56.57114       0.28502871    -56.286111      0.029520714    245.00867     -449.74455      3375         
      2020  -56.63116       0.34021011    -56.29095       0.029520714    292.44222      1899.695       3375         
      2030  -56.53605       0.25457359    -56.281476      0.029520714    218.82967      706.14399      3375         
      2040  -56.434871      0.16773383    -56.267138      0.029520714    144.18282     -998.49248      3375         
      2050  -56.701821      0.45280631    -56.249014      0.029520714    389.22912      300.54473      3375         
      2060  -56.578444      0.34735013    -56.231093      0.029520714    298.57973      961.88796      3375         
      2070  -56.391044      0.17102642    -56.220017      0.029520714    147.01311     -1362.0482      3375         
      2080  -56.536629      0.34263215    -56.193997      0.029520714    294.52419     -1542.7263      3375         
      2090  -56.622914      0.44798607    -56.174928      0.029520714    385.08568      962.71736      3375         
      2100  -56.459772      0.29776696    -56.162005      0.029520714    255.95838      1290.4363      3375         
      2110  -56.4321        0.27591869    -56.156182      0.029520714    237.17777     -350.39308      3375         
      2120  -56.57869       0.44986535    -56.128825      0.029520714    386.70109      28.126359      3375         
      2130  -56.419145      0.30081484    -56.11833       0.029520714    258.57832      1038.8483      3375         
      2140  -56.428361      0.31193302    -56.116428      0.029520714    268.13542     -766.51836      3375         
      2150  -56.436746      0.34918521    -56.087561      0.029520714    300.15715     -2115.3935      3375         
      2160  -56.530859      0.45291626    -56.077943      0.029520714    389.32363      91.589082      3375         
      2170  -56.372025      0.30101941    -56.071005      0.029520714    258.75417      2253.1066      3375         
      2180  -56.462995      0.39305444    -56.069941      0.029520714    337.86683      275.90986      3375         
      2190  -56.48548       0.43050378    -56.054977      0.029520714    370.05802     -1285.4819      3375         
      2200  -56.482449      0.44226284    -56.040186      0.029520714    380.16602      476.74191      3375         
      2210  -56.357146      0.31313725    -56.044009      0.029520714    269.17058      825.19647      3375         
      2220  -56.490464      0.44057693    -56.049887      0.029520714    378.71683     -1393.4653      3375         
      2230  -56.512638      0.48365424    -56.028984      0.029520714    415.74578     -1470.2637      3375         
      2240  -56.384779      0.35028222    -56.034497      0.029520714    301.10013      1048.8187      3375         
      2250  -56.422715      0.38435024    -56.038365      0.029520714    330.38476      1705.1468      3375         
      2260  -56.432856      0.39238778    -56.040468      0.029520714    337.29377      239.63165      3375         
      2270  -56.468742      0.42290369    -56.045838      0.029520714    363.52504     -547.30439      3375         
      2280  -56.401477      0.35197549    -56.049502      0.029520714    302.55565     -1.7691577      3375         
      2290  -56.460267      0.39150546    -56.068762      0.029520714    336.53534     -976.42648      3375         
      2300  -56.401375      0.35166773    -56.049707      0.029520714    302.29111     -1995.3784      3375         
      2310  -56.480436      0.42376168    -56.056674      0.029520714    364.26256      1048.4416      3375         
      2320  -56.410465      0.33664425    -56.073821      0.029520714    289.37703      3039.3382      3375         
      2330  -56.45152       0.36200612    -56.089514      0.029520714    311.17791     -169.26108      3375         
      2340  -56.440985      0.34821003    -56.092775      0.029520714    299.31889     -2057.2645      3375         
      2350  -56.626201      0.5181971     -56.108004      0.029520714    445.43858      38.533102      3375         
      2360  -56.414354      0.28208705    -56.132267      0.029520714    242.48004      740.41878      3375         
      2370  -56.457908      0.31422141    -56.143686      0.029520714    270.10251     -566.05448      3375         
      2380  -56.576433      0.41076474    -56.165668      0.029520714    353.09048     -728.74087      3375         
      2390  -56.491195      0.2960335     -56.195161      0.029520714    254.46831      327.92336      3375         
      2400  -56.493516      0.27383617    -56.21968       0.029520714    235.38765      1051.451       3375         
      2410  -56.552675      0.30253543    -56.25014       0.029520714    260.05733      428.35038      3375         
      2420  -56.599197      0.31984172    -56.279355      0.029520714    274.93369     -188.10687      3375         
      2430  -56.529347      0.22622643    -56.30312       0.029520714    194.46265      221.84119      3375         
      2440  -56.575911      0.24241545    -56.333495      0.029520714    208.37862     -1071.5919      3375         
      2450  -56.589933      0.26176411    -56.328169      0.029520714    225.01059     -1926.2851      3375         
      2460  -56.625052      0.26971077    -56.355341      0.029520714    231.84148      850.35792      3375         
      2470  -56.51691       0.15142516    -56.365485      0.029520714    130.164        2687.8249      3375         
      2480  -56.664189      0.28102029    -56.383169      0.029520714    241.56306      217.42244      3375         
      2490  -56.630356      0.24570367    -56.384652      0.029520714    211.20515     -1568.6011      3375         
      2500  -56.600459      0.22344882    -56.37701       0.029520714    192.07503     -627.0538       3375         
      2510  -56.562386      0.18244185    -56.379944      0.029520714    156.82573      241.87894      3375         
      2520  -56.635142      0.24835626    -56.386786      0.029520714    213.48529      29.129533      3375         
      2530  -56.671703      0.28744624    -56.384256      0.029520714    247.08676     -189.43787      3375         
      2540  -56.572896      0.19854496    -56.374351      0.029520714    170.66785      445.67641      3375         
      2550  -56.598673      0.22019224    -56.378481      0.029520714    189.2757       638.0801       3375         
      2560  -56.621862      0.25182848    -56.370033      0.029520714    216.46999     -356.74736      3375         
      2570  -56.542463      0.18267501    -56.359788      0.029520714    157.02615     -75.172854      3375         
      2580  -56.606162      0.24581771    -56.360344      0.029520714    211.30317      688.90322      3375         
      2590  -56.614782      0.25670556    -56.358077      0.029520714    220.66229     -1131.7615      3375         
      2600  -56.522344      0.19386017    -56.328484      0.029520714    166.64083     -1738.1599      3375         
      2610  -56.632615      0.31229634    -56.320318      0.029520714    268.44774      1259.492       3375         
      2620  -56.551712      0.23629462    -56.315417      0.029520714    203.11719      2386.7205      3375         
      2630  -56.561969      0.25103685    -56.310932      0.029520714    215.78951     -24.828268      3375         
      2640  -56.561763      0.26067256    -56.301091      0.029520714    224.0723      -1715.7075      3375         
      2650  -56.561765      0.29494293    -56.266822      0.029520714    253.53087     -772.50426      3375         
      2660  -56.540631      0.27421498    -56.266416      0.029520714    235.71327      246.19689      3375         
      2670  -56.566269      0.31665113    -56.249617      0.029520714    272.19108      188.66388      3375         
      2680  -56.60779       0.37371975    -56.23407       0.029520714    321.24687      398.31716      3375         
      2690  -56.439346      0.21205384    -56.227292      0.029520714    182.27998      799.09263      3375         
      2700  -56.53762       0.31647465    -56.221146      0.029520714    272.03938     -98.973827      3375         
      2710  -56.618855      0.41619557    -56.20266       0.029520714    357.75878     -1086.692       3375         
      2720  -56.444494      0.25163975    -56.192854      0.029520714    216.30776      97.997897      3375         
      2730  -56.464004      0.27996949    -56.184035      0.029520714    240.6598       1313.9675      3375         
      2740  -56.607339      0.42692824    -56.180411      0.029520714    366.98451     -1075.779       3375         
      2750  -56.390173      0.23093516    -56.159238      0.029520714    198.51024     -1774.7122      3375         
      2760  -56.416732      0.26312963    -56.153603      0.029520714    226.18438      1530.5559      3375         
      2770  -56.582363      0.43689598    -56.145467      0.029520714    375.55271      2073.4702      3375         
      2780  -56.570915      0.40979198    -56.161123      0.029520714    352.2543      -743.11196      3375         
      2790  -56.354958      0.23525207    -56.119706      0.029520714    202.22103     -1671.6511      3375         
      2800  -56.501415      0.38491449    -56.1165        0.029520714    330.86979     -1.1702473      3375         
      2810  -56.619644      0.50124138    -56.118402      0.029520714    430.86356      410.71479      3375         
      2820  -56.257517      0.14927214    -56.108245      0.029520714    128.31328     -124.17524      3375         
      2830  -56.511278      0.40266338    -56.108615      0.029520714    346.12661      587.55756      3375         
      2840  -56.606149      0.49965669    -56.106493      0.029520714    429.50138      1137.9288      3375         
      2850  -56.490904      0.38916389    -56.10174       0.029520714    334.52254     -948.16785      3375         
      2860  -56.385518      0.29762537    -56.087892      0.029520714    255.83668     -1682.1504      3375         
      2870  -56.515512      0.43042382    -56.085088      0.029520714    369.98929      741.60541      3375         
      2880  -56.44774       0.35794724    -56.089793      0.029520714    307.68893      1649.7215      3375         
      2890  -56.430856      0.32682386    -56.104032      0.029520714    280.93549     -1140.7109      3375         
      2900  -56.414183      0.33467015    -56.079513      0.029520714    287.68011     -1460.5094      3375         
      2910  -56.51698       0.43264909    -56.084331      0.029520714    371.90211      1709.1027      3375         
      2920  -56.478609      0.38991153    -56.088697      0.029520714    335.16521      1340.7259      3375         
      2930  -56.450937      0.35617229    -56.094765      0.029520714    306.1632      -1070.2532      3375         
      2940  -56.451569      0.36623497    -56.085335      0.029520714    314.813       -1109.2621      3375         
      2950  -56.424334      0.3310608     -56.093273      0.029520714    284.57753      349.4816       3375         
      2960  -56.591509      0.4939839     -56.097525      0.029520714    424.62508      188.29475      3375         
      2970  -56.433984      0.33713149    -56.096852      0.029520714    289.79586     -359.35947      3375         
      2980  -56.521974      0.41725523    -56.104719      0.029520714    358.66966      797.381        3375         
      2990  -56.475097      0.35903273    -56.116065      0.029520714    308.62201      1046.1756      3375         
      3000  -56.452922      0.32069398    -56.132228      0.029520714    275.66629     -1415.0245      3375         
      3010  -56.40896       0.27996224    -56.128998      0.029520714    240.65357     -1798.2064      3375         
      3020  -56.567984      0.42568841    -56.142295      0.029520714    365.91876      1215.0779      3375         
      3030  -56.569488      0.40314159    -56.166346      0.029520714    346.53768      2072.5489      3375         
      3040  -56.50124       0.30041234    -56.200827      0.029520714    258.23233     -913.02742      3375         
      3050  -56.410856      0.21158673    -56.199269      0.029520714    181.87846     -1397.0342      3375         
      3060  -56.540004      0.3137914     -56.226212      0.029520714    269.73288      832.57221      3375         
      3070  -56.588761      0.33579618    -56.252965      0.029520714    288.64804      690.17507      3375         
      3080  -56.467977      0.18869978    -56.279277      0.029520714    162.205       -1058.3817      3375         
      3090  -56.630525      0.34810972    -56.282415      0.029520714    299.23267     -393.16849      3375         
      3100  -56.64685       0.33431432    -56.312535      0.029520714    287.37424      1136.7862      3375         
      3110  -56.573266      0.23730266    -56.335964      0.029520714    203.98369     -25.101051      3375         
      3120  -56.497218      0.15690626    -56.340311      0.029520714    134.87552     -743.81971      3375         
      3130  -56.674106      0.32094691    -56.353159      0.029520714    275.88371      766.45418      3375         
      3140  -56.618698      0.24648931    -56.372208      0.029520714    211.88048      632.5502       3375         
      3150  -56.562164      0.1836147     -56.37855       0.029520714    157.8339      -1551.8247      3375         
      3160  -56.62571       0.26280883    -56.362901      0.029520714    225.90862     -1035.6253      3375         
      3170  -56.641411      0.26378774    -56.377623      0.029520714    226.75009      1336.8691      3375         
      3180  -56.541254      0.16018131    -56.381073      0.029520714    137.69072      1467.5855      3375         
      3190  -56.604606      0.21535422    -56.389252      0.029520714    185.11697     -453.56998      3375         
      3200  -56.64413       0.26296658    -56.381164      0.029520714    226.04422     -1006.1833      3375         
      3210  -56.560123      0.19012745    -56.369996      0.029520714    163.43221      245.69795      3375         
      3220  -56.650148      0.27650033    -56.373648      0.029520714    237.67774     -65.148796      3375         
      3230  -56.583512      0.22492332    -56.358589      0.029520714    193.34251     -880.21222      3375         
      3240  -56.558007      0.20574381    -56.352263      0.029520714    176.85593      460.91636      3375         
      3250  -56.561762      0.21456388    -56.347198      0.029520714    184.43761      1408.5012      3375         
      3260  -56.689256      0.34706062    -56.342195      0.029520714    298.33087     -577.03378      3375         
      3270  -56.585269      0.28065192    -56.304617      0.029520714    241.24641     -928.43908      3375         
      3280  -56.54912       0.25419584    -56.294924      0.029520714    218.50495      1082.3851      3375         
      3290  -56.578928      0.29397414    -56.284954      0.029520714    252.6981       498.00521      3375         
      3300  -56.538936      0.27498818    -56.263947      0.029520714    236.3779      -1760.9108      3375         
      3310  -56.500944      0.26089047    -56.240054      0.029520714    224.25961     -1121.6136      3375         
      3320  -56.512649      0.29267468    -56.219975      0.029520714    251.5811       1800.5557      3375         
      3330  -56.552036      0.34590953    -56.206127      0.029520714    297.3414       1863.129       3375         
      3340  -56.515545      0.31273823    -56.202807      0.029520714    268.82758     -831.24136      3375         
      3350  -56.52866       0.36730439    -56.161355      0.029520714    315.73227     -1312.0299      3375         
      3360  -56.452247      0.29707784    -56.155169      0.029520714    255.36602      127.7488       3375         
      3370  -56.472684      0.31614896    -56.156535      0.029520714    271.75942     -672.10709      3375         
      3380  -56.408026      0.28017263    -56.127853      0.029520714    240.83442     -722.18854      3375         
      3390  -56.599252      0.47150242    -56.127749      0.029520714    405.30016      1990.6713      3375         
      3400  -56.495452      0.37043907    -56.125013      0.029520714    318.42682      1637.2898      3375         
      3410  -56.399827      0.27879588    -56.121031      0.029520714    239.65097     -1719.6692      3375         
      3420  -56.567998      0.46672176    -56.101276      0.029520714    401.19074     -1033.5099      3375         
      3430  -56.479228      0.37321728    -56.106011      0.029520714    320.81495      1228.7512      3375         
      3440  -56.424243      0.31167448    -56.112568      0.029520714    267.91319      43.288386      3375         
      3450  -56.523238      0.41534884    -56.107889      0.029520714    357.03094     -1644.5976      3375         
      3460  -56.550605      0.46488514    -56.08572       0.029520714    399.612       -451.59639      3375         
      3470  -56.363066      0.26576935    -56.097297      0.029520714    228.45346      1692.0999      3375         
      3480  -56.404681      0.30550263    -56.099179      0.029520714    262.60791      1345.1713      3375         
      3490  -56.555949      0.44976917    -56.10618       0.029520714    386.61841     -530.11508      3375         
      3500  -56.472413      0.37328461    -56.099128      0.029520714    320.87283     -745.18542      3375         
      3510  -56.293781      0.18825606    -56.105525      0.029520714    161.82358     -143.99505      3375         
      3520  -56.613176      0.51427938    -56.098897      0.029520714    442.07094     -1387.2152      3375         
      3530  -56.535259      0.45326101    -56.081998      0.029520714    389.61997     -594.93652      3375         
      3540  -56.342076      0.23911192    -56.102964      0.029520714    205.53892      2383.312       3375         
      3550  -56.420541      0.31938921    -56.101152      0.029520714    274.54472      1624.4307      3375         
      3560  -56.522154      0.40570479    -56.116449      0.029520714    348.74099     -1541.4314      3375         
      3570  -56.518267      0.42005678    -56.09821       0.029520714    361.07785     -1193.9333      3375         
      3580  -56.41704       0.31899948    -56.098041      0.029520714    274.20971      652.90601      3375         
      3590  -56.538508      0.42941225    -56.109096      0.029520714    369.11975     -56.837936      3375         
      3600  -56.540581      0.43022023    -56.110361      0.029520714    369.81428     -952.42946      3375         
      3610  -56.451662      0.33594232    -56.115719      0.029520714    288.77366      8.4986907      3375         
      3620  -56.385411      0.2620601     -56.123351      0.029520714    225.26502      1412.5929      3375         
      3630  -56.516885      0.38039265    -56.136493      0.029520714    326.98285      836.57108      3375         
      3640  -56.520239      0.37881839    -56.14142       0.029520714    325.62962     -636.07204      3375         
      3650  -56.482073      0.34049405    -56.141579      0.029520714    292.68629     -217.05161      3375         
      3660  -56.470873      0.31354274    -56.15733       0.029520714    269.51913     -204.25187      3375         
      3670  -56.481375      0.31302547    -56.16835       0.029520714    269.07449     -1766.8349      3375         
      3680  -56.492144      0.324378      -56.167766      0.029520714    278.83305     -454.08942      3375         
      3690  -56.435214      0.24578401    -56.18943       0.029520714    211.27421      2770.296       3375         
      3700  -56.597527      0.38783059    -56.209696      0.029520714    333.37645      1176.2373      3375         
      3710  -56.537111      0.31080145    -56.22631       0.029520714    267.16274     -1647.9186      3375         
      3720  -56.512943      0.28779329    -56.22515       0.029520714    247.38509     -666.98807      3375         
      3730  -56.484275      0.23187785    -56.252398      0.029520714    199.32057      378.14114      3375         
      3740  -56.583803      0.31202184    -56.271781      0.029520714    268.21178     -491.14856      3375         
      3750  -56.545499      0.26699321    -56.278506      0.029520714    229.50549     -364.30381      3375         
      3760  -56.613148      0.31454798    -56.2986        0.029520714    270.38323      805.90677      3375         
      3770  -56.571341      0.25680591    -56.314535      0.029520714    220.74855      998.20842      3375         
      3780  -56.563343      0.234335      -56.329008      0.029520714    201.43272     -131.06581      3375         
      3790  -56.598028      0.25351194    -56.344517      0.029520714    217.91708     -875.66046      3375         
      3800  -56.562041      0.21043563    -56.351605      0.029520714    180.88899     -0.38984976     3375         
      3810  -56.537132      0.17612397    -56.361008      0.029520714    151.39493      125.0371       3375         
      3820  -56.619993      0.25447279    -56.36552       0.029520714    218.74302     -1214.1033      3375         
      3830  -56.658838      0.29929298    -56.359545      0.029520714    257.27014      190.83968      3375         
      3840  -56.546988      0.16975297    -56.377235      0.029520714    145.91846      2008.9435      3375         
      3850  -56.625487      0.24565374    -56.379833      0.029520714    211.16223      242.15747      3375         
      3860  -56.614881      0.22885462    -56.386026      0.029520714    196.72182     -1372.2449      3375         
      3870  -56.550682      0.17741189    -56.37327       0.029520714    152.50201     -211.79702      3375         
      3880  -56.607089      0.22880882    -56.37828       0.029520714    196.68245      322.23418      3375         
      3890  -56.719431      0.350975      -56.368456      0.029520714    301.69564     -485.5641       3375         
      3900  -56.53806       0.17685883    -56.361201      0.029520714    152.0266      -229.32692      3375         
      3910  -56.559604      0.20201681    -56.357587      0.029520714    173.65223      870.6377       3375         
      3920  -56.650258      0.30144275    -56.348815      0.029520714    259.11807      1000.7734      3375         
      3930  -56.574474      0.23566211    -56.338812      0.029520714    202.57349     -651.12192      3375         
      3940  -56.533403      0.22093607    -56.312466      0.029520714    189.91509     -1164.4157      3375         
      3950  -56.623064      0.33760569    -56.285458      0.029520714    290.20347      538.2296       3375         
      3960  -56.535424      0.2701697     -56.265254      0.029520714    232.23597      262.95195      3375         
      3970  -56.479657      0.23792283    -56.241734      0.029520714    204.51679     -1185.4601      3375         
      3980  -56.561752      0.35203672    -56.209715      0.029520714    302.60828      395.58625      3375         
      3990  -56.458586      0.27526341    -56.183322      0.029520714    236.61449      2032.4403      3375         
      4000  -56.504597      0.33400987    -56.170587      0.029520714    287.11254     -193.37641      3375         
      4010  -56.55063       0.42105057    -56.12958       0.029520714    361.93211     -1569.9615      3375         
      4020  -56.489439      0.38205527    -56.107384      0.029520714    328.41202     -108.57154      3375         
      4030  -56.423275      0.32240729    -56.100868      0.029520714    277.13904      266.91751      3375         
      4040  -56.490717      0.39948408    -56.091232      0.029520714    343.3937      -563.88727      3375         
      4050  -56.429951      0.35162436    -56.078327      0.029520714    302.25382      23.952123      3375         
      4060  -56.480962      0.40893441    -56.072028      0.029520714    351.51714      1307.4211      3375         
      4070  -56.530798      0.46186012    -56.068937      0.029520714    397.01171      887.26147      3375         
      4080  -56.425271      0.35891584    -56.066355      0.029520714    308.52153     -1040.4295      3375         
      4090  -56.404597      0.34453879    -56.060059      0.029520714    296.16312     -1420.3873      3375         
      4100  -56.492656      0.43562473    -56.057031      0.029520714    374.45996      669.69913      3375         
      4110  -56.425145      0.36235739    -56.062787      0.029520714    311.47987      719.74773      3375         
      4120  -56.403132      0.33921426    -56.063918      0.029520714    291.58619     -916.12008      3375         
      4130  -56.472772      0.42308592    -56.049686      0.029520714    363.68168      326.12334      3375         
      4140  -56.496842      0.43718487    -56.059657      0.029520714    375.80104      1046.6143      3375         
      4150  -56.45914       0.38910726    -56.070032      0.029520714    334.47387     -653.43338      3375         
      4160  -56.385913      0.32042674    -56.065487      0.029520714    275.43657     -1128.6615      3375         
      4170  -56.430263      0.36437723    -56.065885      0.029520714    313.2161       609.67394      3375         
      4180  -56.576944      0.49784325    -56.079101      0.029520714    427.94255      1023.3526      3375         
      4190  -56.480211      0.39634534    -56.083866      0.029520714    340.69567     -624.93228      3375         
      4200  -56.414812      0.33175301    -56.083059      0.029520714    285.17256     -513.29453      3375         
      4210  -56.527015      0.42822946    -56.098785      0.029520714    368.10303      763.98008      3375         
      4220  -56.54511       0.43115472    -56.113955      0.029520714    370.61756      320.36376      3375         
      4230  -56.341899      0.21560254    -56.126296      0.029520714    185.33043     -942.32353      3375         
      4240  -56.549276      0.4233537     -56.125922      0.029520714    363.91186     -659.73074      3375         
      4250  -56.581593      0.44733523    -56.134258      0.029520714    384.52621      1100.1796      3375         
      4260  -56.398508      0.24367289    -56.154835      0.029520714    209.4595       427.28299      3375         
      4270  -56.473093      0.30618909    -56.166904      0.029520714    263.19799     -917.15768      3375         
      4280  -56.671498      0.49681399    -56.174684      0.029520714    427.05781      211.73772      3375         
      4290  -56.41635       0.2196038     -56.196746      0.029520714    188.76988      714.00882      3375         
      4300  -56.415801      0.20096459    -56.214837      0.029520714    172.74774     -905.56149      3375         
      4310  -56.640612      0.44333211    -56.19728       0.029520714    381.08516     -576.12844      3375         
      4320  -56.583361      0.35621483    -56.227146      0.029520714    306.19976      1040.014       3375         
      4330  -56.469085      0.22227792    -56.246808      0.029520714    191.06854      654.62219      3375         
      4340  -56.570279      0.31622875    -56.25405       0.029520714    271.828       -663.86211      3375         
      4350  -56.576663      0.31119436    -56.265469      0.029520714    267.50049     -455.71996      3375         
      4360  -56.525299      0.24572274    -56.279576      0.029520714    211.22154      360.195        3375         
      4370  -56.612024      0.32865486    -56.283369      0.029520714    282.5094       71.485202      3375         
      4380  -56.541248      0.24456784    -56.29668       0.029520714    210.2288      -627.71063      3375         
      4390  -56.551753      0.24648042    -56.305273      0.029520714    211.87283     -147.77447      3375         
      4400  -56.609774      0.29434961    -56.315424      0.029520714    253.02085      929.87007      3375         
      4410  -56.573102      0.24404732    -56.329055      0.029520714    209.78136      403.09929      3375         
      4420  -56.536411      0.1965737     -56.339838      0.029520714    168.97337     -583.08332      3375         
      4430  -56.616779      0.28662881    -56.33015       0.029520714    246.38411     -109.2919       3375         
      4440  -56.576844      0.23196393    -56.34488       0.029520714    199.39456      4.1420545      3375         
      4450  -56.576793      0.22824965    -56.348544      0.029520714    196.20179     -674.58286      3375         
      4460  -56.591991      0.24257061    -56.349421      0.029520714    208.51199      85.306584      3375         
      4470  -56.596843      0.23871704    -56.358126      0.029520714    205.19949      1138.3539      3375         
      4480  -56.570537      0.2027826     -56.367754      0.029520714    174.31049      410.94111      3375         
      4490  -56.605054      0.24529324    -56.359761      0.029520714    210.85234     -908.83047      3375         
      4500  -56.622108      0.26689904    -56.355209      0.029520714    229.42454     -657.22667      3375         
      4510  -56.601317      0.24858802    -56.352729      0.029520714    213.68451      299.35609      3375         
      4520  -56.579734      0.22555961    -56.354175      0.029520714    193.88946      240.9464       3375         
      4530  -56.605002      0.25016178    -56.35484       0.029520714    215.03731     -303.7219       3375         
      4540  -56.549523      0.21467323    -56.33485       0.029520714    184.5316       200.54988      3375         
      4550  -56.583779      0.2575154     -56.326264      0.029520714    221.35843      908.86275      3375         
      4560  -56.604357      0.28884649    -56.315511      0.029520714    248.29041      48.542758      3375         
      4570  -56.547498      0.25770332    -56.289795      0.029520714    221.51996     -714.08504      3375         
      4580  -56.537021      0.26680524    -56.270216      0.029520714    229.34391     -224.1153       3375         
      4590  -56.550191      0.28965639    -56.260535      0.029520714    248.98659     -346.83374      3375         
      4600  -56.500039      0.28148725    -56.218552      0.029520714    241.96446     -873.13042      3375         
      4610  -56.507902      0.31891911    -56.188983      0.029520714    274.14063      744.99525      3375         
      4620  -56.519489      0.34658631    -56.172903      0.029520714    297.92316      1994.64        3375         
      4630  -56.487681      0.33732056    -56.15036       0.029520714    289.95838      395.53215      3375         
      4640  -56.521328      0.38936411    -56.131964      0.029520714    334.69465     -1702.5237      3375         
      4650  -56.467878      0.36218563    -56.105692      0.029520714    311.33222     -1230.4556      3375         
      4660  -56.435793      0.35516444    -56.080629      0.029520714    305.29685      359.95942      3375         
      4670  -56.480951      0.41203267    -56.068919      0.029520714    354.18039      678.82008      3375         
      4680  -56.521793      0.46581231    -56.05598       0.029520714    400.40899      174.91978      3375         
      4690  -56.35125       0.30766173    -56.043588      0.029520714    264.46385      281.10062      3375         
      4700  -56.502372      0.46483103    -56.037541      0.029520714    399.56548      307.16843      3375         
      4710  -56.493776      0.45963617    -56.03414       0.029520714    395.10002     -507.69434      3375         
      4720  -56.326462      0.30611743    -56.020344      0.029520714    263.13639     -504.58669      3375         
      4730  -56.402633      0.39077212    -56.011861      0.029520714    335.90497      625.79232      3375         
      4740  -56.564859      0.55037923    -56.01448       0.029520714    473.10211      8.376118       3375         
      4750  -56.320455      0.31115625    -56.009299      0.029520714    267.46772     -1453.0073      3375         
      4760  -56.415449      0.40555899    -56.00989       0.029520714    348.61565     -84.046415      3375         
      4770  -56.517551      0.50724357    -56.010307      0.029520714    436.023        2436.4114      3375         
      4780  -56.418874      0.39334126    -56.025533      0.029520714    338.11338      996.09185      3375         
      4790  -56.331729      0.30247125    -56.029258      0.029520714    260.00216     -1870.3601      3375         
      4800  -56.466023      0.45898732    -56.007035      0.029520714    394.54227     -1295.7836      3375         
      4810  -56.523568      0.49779418    -56.025774      0.029520714    427.90038     -33.362137      3375         
      4820  -56.372016      0.33069014    -56.041325      0.029520714    284.25891      298.94354      3375         
      4830  -56.424583      0.37477906    -56.049804      0.029520714    322.15744      559.90669      3375         
      4840  -56.478623      0.41521515    -56.063407      0.029520714    356.91602      1042.8594      3375         
      4850  -56.464157      0.38311657    -56.081041      0.029520714    329.32431      434.77568      3375         
      4860  -56.517744      0.41998112    -56.097763      0.029520714    361.01281     -1413.275       3375         
      4870  -56.434802      0.33625917    -56.098543      0.029520714    289.04601     -1365.1494      3375         
      4880  -56.363834      0.23933375    -56.124501      0.029520714    205.72961      912.24128      3375         
      4890  -56.612306      0.47156271    -56.140744      0.029520714    405.35199      1053.4302      3375         
      4900  -56.511635      0.34130301    -56.170332      0.029520714    293.38166     -768.60664      3375         
      4910  -56.415179      0.24207721    -56.173102      0.029520714    208.08787     -74.476995      3375         
      4920  -56.537175      0.34133547    -56.195839      0.029520714    293.40957      1377.301       3375         
      4930  -56.594212      0.37569927    -56.218512      0.029520714    322.94845      48.717168      3375         
      4940  -56.511372      0.2719035     -56.239468      0.029520714    233.72633     -1383.3472      3375         
      4950  -56.563679      0.31095842    -56.25272       0.029520714    267.29767     -850.80067      3375         
      4960  -56.559521      0.29582883    -56.263692      0.029520714    254.29238      272.56042      3375         
      4970  -56.530325      0.25020339    -56.280121      0.029520714    215.07308      509.61347      3375         
      4980  -56.547203      0.25687328    -56.290329      0.029520714    220.80647      537.7718       3375         
      4990  -56.602376      0.30053749    -56.301838      0.029520714    258.33991      993.88104      3375         
      5000  -56.59768       0.28193871    -56.315741      0.029520714    242.35253      173.40047      3375         
      5010  -56.549449      0.21321305    -56.336236      0.029520714    183.27644     -1816.0567      3375         
      5020  -56.550925      0.23813256    -56.312792      0.029520714    204.69707     -1277.2799      3375         
      5030  -56.574855      0.25127947    -56.323575      0.029520714    215.99806      1434.0501      3375         
      5040  -56.648195      0.3134331     -56.334762      0.029520714    269.42489      979.29173      3375         
      5050  -56.50052       0.16953235    -56.330987      0.029520714    145.72881     -735.07636      3375         
      5060  -56.52005       0.1897154     -56.330334      0.029520714    163.07803      120.07956      3375         
      5070  -56.668997      0.33747832    -56.331519      0.029520714    290.09399      861.75175      3375         
      5080  -56.626993      0.29188894    -56.335104      0.029520714    250.90568     -604.66365      3375         
      5090  -56.460543      0.13876713    -56.321776      0.029520714    119.28325     -1105.1467      3375         
      5100  -56.616536      0.31421482    -56.302321      0.029520714    270.09685      58.519838      3375         
      5110  -56.606368      0.30439789    -56.30197       0.029520714    261.65828      523.77382      3375         
      5120  -56.503919      0.20923472    -56.294684      0.029520714    179.85669      65.888266      3375         
      5130  -56.565474      0.28509253    -56.280382      0.029520714    245.06353      412.53379      3375         
      5140  -56.623993      0.36143938    -56.262554      0.029520714    310.69075      1227.8033      3375         
      5150  -56.48546       0.22212875    -56.263331      0.029520714    190.94031     -217.11505      3375         
      5160  -56.482512      0.2763276     -56.206185      0.029520714    237.52926     -2455.4157      3375         
      5170  -56.604049      0.44907916    -56.15497       0.029520714    386.02528     -677.86321      3375         
      5180  -56.417794      0.284374      -56.13342       0.029520714    244.44589      1731.3973      3375         
      5190  -56.444638      0.34642665    -56.098211      0.029520714    297.78591      658.782        3375         
      5200  -56.495999      0.43471415    -56.061285      0.029520714    373.67723     -595.0976       3375         
      5210  -56.428813      0.41304593    -56.015768      0.029520714    355.05138      623.15498      3375         
      5220  -56.374125      0.3836981     -55.990427      0.029520714    329.82419      533.15993      3375         
      5230  -56.452899      0.47842064    -55.974478      0.029520714    411.24701     -1147.57        3375         
      5240  -56.301923      0.34401256    -55.95791       0.029520714    295.71078     -1040.7705      3375         
      5250  -56.477809      0.52582954    -55.951979      0.029520714    451.99937      605.00121      3375         
      5260  -56.522746      0.56247296    -55.960273      0.029520714    483.4978       855.24631      3375         
      5270  -56.320945      0.36518396    -55.955761      0.029520714    313.90956     -492.26657      3375         
      5280  -56.359234      0.42012197    -55.939112      0.029520714    361.13389      224.94257      3375         
      5290  -56.502711      0.54454553    -55.958165      0.029520714    468.08751      1326.2158      3375         
      5300  -56.412146      0.43820118    -55.973945      0.029520714    376.67465     -552.81622      3375         
      5310  -56.307681      0.33266999    -55.975011      0.029520714    285.96078     -2586.4093      3375         
      5320  -56.521224      0.54733168    -55.973892      0.029520714    470.48246     -134.31449      3375         
      5330  -56.395424      0.40519928    -55.990225      0.029520714    348.30645      2358.8092      3375         
      5340  -56.379956      0.37096764    -56.008988      0.029520714    318.88117      328.09983      3375         
      5350  -56.525507      0.50266741    -56.02284       0.029520714    432.08937     -718.12698      3375         
      5360  -56.413315      0.37826226    -56.035052      0.029520714    325.15158      458.27727      3375         
      5370  -56.35916       0.30146756    -56.057693      0.029520714    259.13939      41.348418      3375         
      5380  -56.538563      0.45123753    -56.087326      0.029520714    387.88061     -1351.1661      3375         
      5390  -56.530828      0.46351365    -56.067314      0.029520714    398.43307     -415.96663      3375         
      5400  -56.340619      0.23845785    -56.102162      0.029520714    204.97669      1412.3946      3375         
      5410  -56.4611        0.33740747    -56.123692      0.029520714    290.03309      361.57128      3375         
      5420  -56.538403      0.40645314    -56.13195       0.029520714    349.38426     -1017.4715      3375         
      5430  -56.575724      0.42230505    -56.153419      0.029520714    363.01045      56.853684      3375         
      5440  -56.444577      0.26578186    -56.178796      0.029520714    228.46422      1188.8256      3375         
      5450  -56.484691      0.29162185    -56.193069      0.029520714    250.67609     -626.15237      3375         
      5460  -56.512869      0.32582463    -56.187044      0.029520714    280.07656     -1540.9825      3375         
      5470  -56.562288      0.35904685    -56.203241      0.029520714    308.63415      815.84702      3375         
      5480  -56.485189      0.26252096    -56.222668      0.029520714    225.66117      1414.6933      3375         
      5490  -56.545897      0.30985945    -56.236037      0.029520714    266.353       -289.62253      3375         
      5500  -56.553003      0.3094532     -56.24355       0.029520714    266.0038      -555.5121       3375         
      5510  -56.500763      0.25249132    -56.248272      0.029520714    217.03976      93.242976      3375         
      5520  -56.61525       0.35695696    -56.258293      0.029520714    306.83769     -354.81055      3375         
      5530  -56.547912      0.29602919    -56.251882      0.029520714    254.46461     -650.54043      3375         
      5540  -56.502138      0.23539134    -56.266747      0.029520714    202.34074      121.13603      3375         
      5550  -56.541326      0.26969346    -56.271632      0.029520714    231.8266       1202.5238      3375         
      5560  -56.622894      0.34442212    -56.278471      0.029520714    296.06283      357.02133      3375         
      5570  -56.544208      0.26393629    -56.280271      0.029520714    226.87778     -1105.1578      3375         
      5580  -56.57407       0.30363325    -56.270437      0.029520714    261.00101      61.404183      3375         
      5590  -56.498565      0.22163759    -56.276927      0.029520714    190.51812      995.84482      3375         
      5600  -56.580039      0.29989347    -56.280146      0.029520714    257.78632     -822.48697      3375         
      5610  -56.63689       0.36164205    -56.275247      0.029520714    310.86496     -1411.8052      3375         
      5620  -56.554702      0.28891154    -56.265791      0.029520714    248.34632      955.08644      3375         
      5630  -56.424861      0.15557141    -56.269289      0.029520714    133.72809      1481.304       3375         
      5640  -56.56653       0.30311398    -56.263416      0.029520714    260.55465     -317.31494      3375         
      5650  -56.614324      0.37037683    -56.243947      0.029520714    318.37332     -612.0054       3375         
      5660  -56.461303      0.22548474    -56.235818      0.029520714    193.8251      -48.798303      3375         
      5670  -56.542614      0.31742827    -56.225186      0.029520714    272.85911     -421.4144       3375         
      5680  -56.57847       0.37502299    -56.203447      0.029520714    322.36712     -757.36821      3375         
      5690  -56.439804      0.2612051     -56.178599      0.029520714    224.53007      679.56805      3375         
      5700  -56.490104      0.33589566    -56.154208      0.029520714    288.73355      1936.1053      3375         
      5710  -56.608511      0.47834926    -56.130162      0.029520714    411.18566     -418.7047       3375         
      5720  -56.360419      0.26750469    -56.092914      0.029520714    229.94515     -2107.689       3375         
      5730  -56.408532      0.35098918    -56.057542      0.029520714    301.70783      269.3579       3375         
      5740  -56.507454      0.47040958    -56.037044      0.029520714    404.36076      1594.1054      3375         
      5750  -56.446435      0.42864466    -56.017791      0.029520714    368.45994     -583.18925      3375         
      5760  -56.366849      0.39935673    -55.967492      0.029520714    343.28424     -1030.466       3375         
      5770  -56.418562      0.4626379     -55.955925      0.029520714    397.68028      648.82496      3375         
      5780  -56.417739      0.47293705    -55.944802      0.029520714    406.53336      604.87487      3375         
      5790  -56.358558      0.42674862    -55.931809      0.029520714    366.83011     -504.19219      3375         
      5800  -56.442347      0.51453564    -55.927811      0.029520714    442.29121     -756.86534      3375         
      5810  -56.239339      0.32450966    -55.91483       0.029520714    278.94622      761.50285      3375         
      5820  -56.412715      0.4925147     -55.920201      0.029520714    423.36217      658.66356      3375         
      5830  -56.512446      0.59775502    -55.914691      0.029520714    513.82601     -1204.7157      3375         
      5840  -56.346996      0.42542354    -55.921572      0.029520714    365.69108      230.01823      3375         
      5850  -56.258329      0.33248272    -55.925847      0.029520714    285.79981      2082.9361      3375         
      5860  -56.603132      0.63846543    -55.964667      0.029520714    548.82039     -738.74691      3375         
      5870  -56.338901      0.38563038    -55.95327       0.029520714    331.48516     -2820.8707      3375         
      5880  -56.34801       0.40166715    -55.946343      0.029520714    345.27026      404.44191      3375         
      5890  -56.4466        0.46738496    -55.979215      0.029520714    401.76082      2053.8667      3375         
      5900  -56.396251      0.39731797    -55.998933      0.029520714    341.53173     -271.86029      3375         
      5910  -56.377237      0.36658914    -56.010648      0.029520714    315.11744     -783.89537      3375         
      5920  -56.549133      0.5217627     -56.02737       0.029520714    448.50354      902.76175      3375         
      5930  -56.430474      0.37497806    -56.055496      0.029520714    322.32851      548.06603      3375         
      5940  -56.319543      0.24741943    -56.072124      0.029520714    212.68        -1431.7046      3375         
      5950  -56.568577      0.51788659    -56.050691      0.029520714    445.17167     -887.82484      3375         
      5960  -56.472602      0.38204666    -56.090556      0.029520714    328.40462      1233.8418      3375         
      5970  -56.433045      0.32402443    -56.109021      0.029520714    278.52912      528.62884      3375         
      5980  -56.436402      0.32123104    -56.115171      0.029520714    276.12794     -984.6989       3375         
      5990  -56.501128      0.38023015    -56.120898      0.029520714    326.84316      711.05972      3375         
      6000  -56.486715      0.3451784     -56.141537      0.029520714    296.71292      1420.6618      3375         
      6010  -56.58259       0.43833308    -56.144257      0.029520714    376.78803     -1524.5483      3375         
      6020  -56.448551      0.30398121    -56.14457       0.029520714    261.30011     -1822.4917      3375         
      6030  -56.431631      0.27536261    -56.156268      0.029520714    236.69976      695.35247      3375         
      6040  -56.544258      0.37935967    -56.164898      0.029520714    326.0949       1458.6805      3375         
      6050  -56.561076      0.37988577    -56.18119       0.029520714    326.54714      88.316263      3375         
      6060  -56.453364      0.2800723     -56.173292      0.029520714    240.74818     -195.92364      3375         
      6070  -56.465358      0.29363729    -56.171721      0.029520714    252.40855      570.31119      3375         
      6080  -56.566099      0.37664987    -56.189449      0.029520714    323.76558     -300.97017      3375         
      6090  -56.473633      0.29052896    -56.183104      0.029520714    249.73665     -1596.5531      3375         
      6100  -56.544572      0.3681823     -56.17639       0.029520714    316.48692     -429.14132      3375         
      6110  -56.548435      0.35797582    -56.190459      0.029520714    307.71349      1556.2852      3375         
      6120  -56.4469        0.25841277    -56.188487      0.029520714    222.1298       336.32426      3375         
      6130  -56.456824      0.27764252    -56.179182      0.029520714    238.65955     -649.7317       3375         
      6140  -56.654813      0.46961477    -56.185198      0.029520714    403.67755      833.88283      3375         
      6150  -56.518564      0.33147286    -56.187091      0.029520714    284.93174      460.80508      3375         
      6160  -56.389452      0.19282285    -56.196629      0.029520714    165.74916     -1740.8459      3375         
      6170  -56.557837      0.37863925    -56.179197      0.029520714    325.47564     -1068.441       3375         
      6180  -56.618873      0.45112624    -56.167747      0.029520714    387.78494      1395.8967      3375         
      6190  -56.471305      0.2936229     -56.177682      0.029520714    252.39618      1140.7053      3375         
      6200  -56.439304      0.25970774    -56.179596      0.029520714    223.24295     -328.31171      3375         
      6210  -56.560015      0.38935143    -56.170664      0.029520714    334.68375     -154.25069      3375         
      6220  -56.500134      0.32405874    -56.176075      0.029520714    278.55861      406.53042      3375         
      6230  -56.478479      0.29074109    -56.187738      0.029520714    249.91899     -948.21102      3375         
      6240  -56.511991      0.37039031    -56.141601      0.029520714    318.3849      -1463.3979      3375         
      6250  -56.53904       0.38735001    -56.15169       0.029520714    332.96335      663.84497      3375         
      6260  -56.390446      0.23790745    -56.152538      0.029520714    204.50357      1493.8805      3375         
      6270  -56.478058      0.32740136    -56.150657      0.029520714    281.4319      -34.873131      3375         
      6280  -56.593788      0.44561407    -56.148174      0.029520714    383.04672     -203.89316      3375         
      6290  -56.445887      0.30665943    -56.139227      0.029520714    263.60229      907.53402      3375         
      6300  -56.43676       0.29559619    -56.141164      0.029520714    254.09241     -516.37047      3375         
      6310  -56.523832      0.39442215    -56.12941       0.029520714    339.0425      -2010.931       3375         
      6320  -56.504063      0.40641056    -56.097652      0.029520714    349.34765     -221.93104      3375         
      6330  -56.430609      0.32179676    -56.108812      0.029520714    276.61423      1484.5935      3375         
      6340  -56.502252      0.39737142    -56.10488       0.029520714    341.57768      818.5899       3375         
      6350  -56.436748      0.3538687     -56.082879      0.029520714    304.18304     -155.54794      3375         
      6360  -56.506972      0.4476755     -56.059297      0.029520714    384.81871     -84.764087      3375         
[...]
     48420  -56.218774      0.55035878    -55.668415      0.029520714    473.08454     -54.437962      3375         
     48430  -56.080324      0.37987393    -55.70045       0.029520714    326.53695      235.42352      3375         
     48440  -56.186865      0.45696574    -55.7299        0.029520714    392.80453      148.15113      3375         
     48450  -56.100899      0.35093313    -55.749966      0.029520714    301.65965     -323.72214      3375         
     48460  -56.208294      0.42305959    -55.785234      0.029520714    363.65904      526.98951      3375         
     48470  -56.379587      0.57290438    -55.806682      0.029520714    492.46457      1134.9884      3375         
     48480  -56.294909      0.44984314    -55.845066      0.029520714    386.682       -712.03159      3375         
     48490  -56.219753      0.34826404    -55.871489      0.029520714    299.36531     -1423.6199      3375         
     48500  -56.360944      0.46622721    -55.894717      0.029520714    400.76563     -234.13667      3375         
     48510  -56.319506      0.40146915    -55.918037      0.029520714    345.10006      515.06815      3375         
     48520  -56.216753      0.29026948    -55.926484      0.029520714    249.5136       698.24542      3375         
     48530  -56.302604      0.38218947    -55.920414      0.029520714    328.52738      264.8418       3375         
     48540  -56.316912      0.37596249    -55.940949      0.029520714    323.17471      73.252575      3375         
     48550  -56.338458      0.39128332    -55.947175      0.029520714    336.34439      217.87124      3375         
     48560  -56.498595      0.53883998    -55.959755      0.029520714    463.18305     -784.09526      3375         
     48570  -56.299843      0.33588007    -55.963963      0.029520714    288.72015     -919.6188       3375         
     48580  -56.248442      0.26879103    -55.979651      0.029520714    231.05088      577.21232      3375         
     48590  -56.357312      0.38636392    -55.970948      0.029520714    332.11571      1131.0235      3375         
     48600  -56.369438      0.3856612     -55.983777      0.029520714    331.51166     -486.66203      3375         
     48610  -56.289398      0.30041448    -55.988984      0.029520714    258.23418     -1139.5186      3375         
     48620  -56.442058      0.4489729     -55.993085      0.029520714    385.93394     -61.06992       3375         
     48630  -56.331006      0.3190654     -56.01194       0.029520714    274.26637      1038.9149      3375         
     48640  -56.34022       0.3422294     -55.99799       0.029520714    294.17799      505.56122      3375         
     48650  -56.429361      0.41997503    -56.009386      0.029520714    361.00758     -138.25186      3375         
     48660  -56.35886       0.33766729    -56.021193      0.029520714    290.25642      99.090051      3375         
     48670  -56.280224      0.26266776    -56.017556      0.029520714    225.78736     -53.573943      3375         
     48680  -56.379361      0.35038822    -56.028973      0.029520714    301.19125     -894.62683      3375         
     48690  -56.33557       0.30119367    -56.034376      0.029520714    258.90396     -831.20461      3375         
     48700  -56.413039      0.37638765    -56.036651      0.029520714    323.54017      284.94223      3375         
     48710  -56.553287      0.50742118    -56.045866      0.029520714    436.17568      1095.343       3375         
     48720  -56.322002      0.27389325    -56.048108      0.029520714    235.43671      314.77437      3375         
     48730  -56.283344      0.22365107    -56.059693      0.029520714    192.24889     -577.61002      3375         
     48740  -56.464729      0.40416582    -56.060564      0.029520714    347.4181       167.16374      3375         
     48750  -56.426412      0.36040056    -56.066011      0.029520714    309.79779      440.91139      3375         
     48760  -56.334166      0.26013681    -56.074029      0.029520714    223.61177     -513.57997      3375         
     48770  -56.481595      0.40368175    -56.077913      0.029520714    347.002       -685.42354      3375         
     48780  -56.446381      0.36269582    -56.083685      0.029520714    311.77077      50.894653      3375         
     48790  -56.39625       0.30615861    -56.090091      0.029520714    263.17179      533.50323      3375         
     48800  -56.438851      0.34002992    -56.098822      0.029520714    292.28733      270.63579      3375         
     48810  -56.401643      0.29965936    -56.101983      0.029520714    257.58508     -6.7125441      3375         
     48820  -56.428052      0.31889636    -56.109156      0.029520714    274.12107      158.35551      3375         
     48830  -56.400578      0.2854477     -56.115131      0.029520714    245.36884     -209.83494      3375         
     48840  -56.428185      0.3082927     -56.119892      0.029520714    265.00623     -955.35772      3375         
     48850  -56.448747      0.32265246    -56.126094      0.029520714    277.34978     -105.222        3375         
     48860  -56.437584      0.30681852    -56.130765      0.029520714    263.73904      1123.0576      3375         
     48870  -56.431494      0.2983172     -56.133177      0.029520714    256.43137      555.77299      3375         
     48880  -56.520518      0.3783087     -56.14221       0.029520714    325.1915      -559.92306      3375         
     48890  -56.442461      0.29437747    -56.148083      0.029520714    253.0448      -752.50274      3375         
     48900  -56.385295      0.23240106    -56.152894      0.029520714    199.77032     -268.9492       3375         
     48910  -56.47967       0.32365375    -56.156017      0.029520714    278.21049      409.75788      3375         
     48920  -56.45979       0.2967444     -56.163045      0.029520714    255.07939      557.79266      3375         
     48930  -56.483825      0.31494502    -56.16888       0.029520714    270.72453      235.57427      3375         
     48940  -56.578564      0.40294267    -56.175622      0.029520714    346.36669      52.469345      3375         
     48950  -56.599578      0.41217486    -56.187403      0.029520714    354.30261     -705.32538      3375         
     48960  -56.479427      0.28516558    -56.194262      0.029520714    245.12632     -767.1967       3375         
     48970  -56.566814      0.35865076    -56.208163      0.029520714    308.29367      444.36401      3375         
     48980  -56.578229      0.35630767    -56.221921      0.029520714    306.27957      590.60583      3375         
     48990  -56.481672      0.25062314    -56.231049      0.029520714    215.43389     -134.80487      3375         
     49000  -56.535883      0.29408134    -56.241802      0.029520714    252.79025      137.61692      3375         
     49010  -56.694133      0.43624609    -56.257887      0.029520714    374.99407      368.47578      3375         
     49020  -56.601182      0.32782545    -56.273357      0.029520714    281.79645      130.97343      3375         
     49030  -56.565374      0.27182739    -56.293547      0.029520714    233.66091     -299.93572      3375         
     49040  -56.638506      0.33252485    -56.305981      0.029520714    285.83602     -714.43615      3375         
     49050  -56.653561      0.3475984     -56.305963      0.029520714    298.79314     -193.3673       3375         
     49060  -56.649069      0.31880875    -56.330261      0.029520714    274.04576      260.82638      3375         
     49070  -56.596823      0.25330444    -56.343519      0.029520714    217.73871      224.45625      3375         
     49080  -56.568971      0.21670265    -56.352268      0.029520714    186.27607      701.33348      3375         
     49090  -56.629548      0.26273869    -56.366809      0.029520714    225.84833      459.0664       3375         
     49100  -56.666047      0.28871434    -56.377332      0.029520714    248.17681     -839.72777      3375         
     49110  -56.632406      0.26300209    -56.369404      0.029520714    226.07474     -703.853        3375         
     49120  -56.669789      0.28740531    -56.382383      0.029520714    247.05158      234.9082       3375         
     49130  -56.680303      0.29312864    -56.387175      0.029520714    251.97132      270.81625      3375         
     49140  -56.658232      0.26474344    -56.393488      0.029520714    227.5716       71.450533      3375         
     49150  -56.646759      0.24704816    -56.39971       0.029520714    212.36086      172.44904      3375         
     49160  -56.613394      0.21632518    -56.397069      0.029520714    185.95161      299.62899      3375         
     49170  -56.57793       0.17873005    -56.3992        0.029520714    153.6351       161.76144      3375         
     49180  -56.661106      0.26145412    -56.399652      0.029520714    224.74412     -528.23604      3375         
     49190  -56.669509      0.28103028    -56.388479      0.029520714    241.57165     -603.47212      3375         
     49200  -56.605173      0.21912111    -56.386052      0.029520714    188.35497      54.246099      3375         
     49210  -56.584569      0.20465843    -56.37991       0.029520714    175.92295      89.033075      3375         
     49220  -56.541811      0.17010986    -56.371701      0.029520714    146.22524      203.38729      3375         
     49230  -56.51067       0.15013719    -56.360533      0.029520714    129.05687      992.22537      3375         
     49240  -56.6184        0.2754942     -56.342906      0.029520714    236.81288      322.45135      3375         
     49250  -56.531983      0.21099494    -56.320988      0.029520714    181.36976     -1161.4275      3375         
     49260  -56.425794      0.12185446    -56.303939      0.029520714    104.74523     -960.67258      3375         
     49270  -56.564312      0.28614068    -56.278172      0.029520714    245.96451      105.04516      3375         
     49280  -56.610469      0.3615061     -56.248963      0.029520714    310.7481       582.59594      3375         
     49290  -56.464551      0.24267868    -56.221873      0.029520714    208.60488      525.0707       3375         
     49300  -56.478317      0.28064263    -56.197674      0.029520714    241.23843      176.81764      3375         
     49310  -56.490632      0.30801361    -56.182619      0.029520714    264.76633      46.364997      3375         
     49320  -56.399382      0.2270904     -56.172291      0.029520714    195.20531     -386.55377      3375         
     49330  -56.485434      0.33665658    -56.148778      0.029520714    289.38763     -703.26256      3375         
     49340  -56.506594      0.36490356    -56.141691      0.029520714    313.66854      34.905052      3375         
     49350  -56.432823      0.30031637    -56.132506      0.029520714    258.14984      488.20111      3375         
     49360  -56.47069       0.35640299    -56.114287      0.029520714    306.3615      -181.95123      3375         
     49370  -56.625735      0.51680882    -56.108926      0.029520714    444.24522     -26.957781      3375         
     49380  -56.518371      0.41899202    -56.099379      0.029520714    360.16259      947.53776      3375         
     49390  -56.487347      0.39098715    -56.09636       0.029520714    336.0898       155.67121      3375         
     49400  -56.423205      0.31961568    -56.103589      0.029520714    274.73939     -1147.2         3375         
     49410  -56.33021       0.2444464     -56.085763      0.029520714    210.12441     -592.3715       3375         
     49420  -56.409886      0.32860365    -56.081282      0.029520714    282.46538      585.12136      3375         
     49430  -56.602345      0.51785445    -56.08449       0.029520714    445.14404      489.2995       3375         
     49440  -56.487147      0.40928694    -56.07786       0.029520714    351.82017      54.316165      3375         
     49450  -56.515194      0.4379374     -56.077257      0.029520714    376.44791      135.30641      3375         
     49460  -56.620316      0.52861529    -56.091701      0.029520714    454.39398      240.96395      3375         
     49470  -56.520644      0.43355426    -56.08709       0.029520714    372.68019     -489.17018      3375         
     49480  -56.394012      0.30615753    -56.087854      0.029520714    263.17086     -572.89019      3375         
     49490  -56.491791      0.39004603    -56.101745      0.029520714    335.28082      250.89428      3375         
     49500  -56.450426      0.34621916    -56.104207      0.029520714    297.60756      398.8875       3375         
     49510  -56.449124      0.33135271    -56.117771      0.029520714    284.82846     -395.98854      3375         
     49520  -56.54833       0.42003621    -56.128294      0.029520714    361.06017     -201.01467      3375         
     49530  -56.526831      0.39760785    -56.129223      0.029520714    341.78091      1039.6507      3375         
     49540  -56.573094      0.42050049    -56.152593      0.029520714    361.45926      538.85014      3375         
     49550  -56.571878      0.39915289    -56.172725      0.029520714    343.10902     -1138.0283      3375         
     49560  -56.534304      0.36540945    -56.168894      0.029520714    314.10339     -721.93367      3375         
     49570  -56.492966      0.29728185    -56.195684      0.029520714    255.54138      527.04862      3375         
     49580  -56.564462      0.35033165    -56.21413       0.029520714    301.14262      352.15078      3375         
     49590  -56.469077      0.24727789    -56.221799      0.029520714    212.55833      102.45896      3375         
     49600  -56.576906      0.33760031    -56.239305      0.029520714    290.19885      130.51093      3375         
     49610  -56.577888      0.32808225    -56.249806      0.029520714    282.0172       108.43929      3375         
     49620  -56.577925      0.31740715    -56.260517      0.029520714    272.84096     -517.96102      3375         
     49630  -56.581667      0.30507269    -56.276594      0.029520714    262.23833     -523.21866      3375         
     49640  -56.608426      0.32176878    -56.286658      0.029520714    276.59018      488.56356      3375         
     49650  -56.459017      0.16293648    -56.296081      0.029520714    140.05905      538.82982      3375         
     49660  -56.490712      0.18654689    -56.304165      0.029520714    160.35439     -557.64896      3375         
     49670  -56.564329      0.26196434    -56.302365      0.029520714    225.1827      -316.3703       3375         
     49680  -56.528047      0.219062      -56.308985      0.029520714    188.30416      497.98446      3375         
     49690  -56.583199      0.27232249    -56.310877      0.029520714    234.0865       235.4759       3375         
     49700  -56.598658      0.28566751    -56.31299       0.029520714    245.55778     -420.23765      3375         
     49710  -56.564553      0.25418368    -56.310369      0.029520714    218.4945      -298.88304      3375         
     49720  -56.560495      0.2496479     -56.310847      0.029520714    214.59558      448.95422      3375         
     49730  -56.614964      0.31092891    -56.304035      0.029520714    267.2723       300.2431       3375         
     49740  -56.465846      0.16399507    -56.301851      0.029520714    140.96901     -372.14099      3375         
     49750  -56.551889      0.25585022    -56.296038      0.029520714    219.92705     -246.65344      3375         
     49760  -56.630696      0.34958746    -56.281109      0.029520714    300.50292      162.2468       3375         
     49770  -56.63859       0.37019579    -56.268394      0.029520714    318.2177      -344.59516      3375         
     49780  -56.537382      0.29595135    -56.241431      0.029520714    254.39769     -208.60965      3375         
     49790  -56.58879       0.3712056     -56.217585      0.029520714    319.08572      833.56804      3375         
     49800  -56.508216      0.31392886    -56.194288      0.029520714    269.85104      756.49488      3375         
     49810  -56.543803      0.37444794    -56.169355      0.029520714    321.87282     -675.75615      3375         
     49820  -56.504533      0.37991707    -56.124616      0.029520714    326.57404     -727.37271      3375         
     49830  -56.42531       0.32810573    -56.097204      0.029520714    282.03738      444.1096       3375         
     49840  -56.366159      0.2922834     -56.073876      0.029520714    251.24476      355.82693      3375         
     49850  -56.45789       0.41574446    -56.042145      0.029520714    357.37101     -582.3994       3375         
     49860  -56.518005      0.51423742    -56.003767      0.029520714    442.03487     -194.98935      3375         
     49870  -56.583381      0.6034746     -55.979906      0.029520714    518.74252      580.45764      3375         
     49880  -56.476946      0.51404121    -55.962904      0.029520714    441.86621      131.76634      3375         
     49890  -56.329084      0.37399778    -55.955087      0.029520714    321.48586     -369.86775      3375         
     49900  -56.465828      0.52177258    -55.944056      0.029520714    448.51204      176.78941      3375         
     49910  -56.373041      0.42867486    -55.944366      0.029520714    368.48589      388.28066      3375         
     49920  -56.354555      0.41041349    -55.944142      0.029520714    352.78855     -766.45831      3375         
     49930  -56.424944      0.48174177    -55.943202      0.029520714    414.10184     -518.36583      3375         
     49940  -56.482438      0.53205282    -55.950385      0.029520714    457.34886      916.4731       3375         
     49950  -56.436562      0.47466202    -55.9619        0.029520714    408.01613      880.83907      3375         
     49960  -56.654028      0.67253261    -55.981495      0.029520714    578.1043      -425.15486      3375         
     49970  -56.443614      0.45225366    -55.99136       0.029520714    388.75406     -420.73024      3375         
     49980  -56.342203      0.32996668    -56.012237      0.029520714    283.63704      335.86892      3375         
     49990  -56.451315      0.41897707    -56.032338      0.029520714    360.14974     -194.39242      3375         
     50000  -56.48108       0.43284278    -56.048237      0.029520714    372.0686      -1135.1709      3375         
Loop time of 87.2075 on 3 procs for 50000 steps with 10 atoms

Performance: 24.769 ns/day, 0.969 hours/ns, 573.345 timesteps/s, 5.733 katom-step/s
170.1% CPU use with 3 MPI tasks x no OpenMP threads

MPI task timing breakdown:
Section |  min time  |  avg time  |  max time  |%varavg| %total
---------------------------------------------------------------
Pair    | 38.125     | 52.887     | 82.025     | 283.3 | 60.65
Neigh   | 0.00084112 | 0.0010435  | 0.001437   |   0.9 |  0.00
Comm    | 2.47       | 31.537     | 46.25      | 366.0 | 36.16
Output  | 0.50401    | 0.51047    | 0.52003    |   1.0 |  0.59
Modify  | 1.9783     | 2.0551     | 2.1263     |   4.2 |  2.36
Other   |            | 0.2168     |            |       |  0.25

Nlocal:        3.33333 ave          10 max           0 min
Histogram: 2 0 0 0 0 0 0 0 0 1
Nghost:        71.3333 ave          88 max          40 min
Histogram: 1 0 0 0 0 0 0 0 0 2
Neighs:              0 ave           0 max           0 min
Histogram: 3 0 0 0 0 0 0 0 0 0
FullNghs:           30 ave          90 max           0 min
Histogram: 2 0 0 0 0 0 0 0 0 1

Total # of neighbors = 90
Ave neighs/atom = 9
Neighbor list builds = 156
Dangerous builds = 0

write_data	restart.data
System init for write_data ...
Generated 0 of 1 mixed pair_coeff terms from geometric mixing rule
#
Total wall time: 0:01:29
