ITEM: TIMESTEP
0
ITEM: NUMBER OF ATOMS
10
ITEM: BOX BOUNDS pp pp pp
0.0000000000000000e+00 1.5000000000000000e+01
0.0000000000000000e+00 1.5000000000000000e+01
0.0000000000000000e+00 1.5000000000000000e+01
ITEM: ATOMS id type x y z
5 2 7.712 7.605 4.721
1 1 8.091 7.628 5.785
2 1 7.203 7.507 6.833
3 1 7.805 7.473 8.149
4 1 6.926 7.436 9.211
6 2 9.134 7.636 6.039
7 2 6.097 7.494 6.663
8 2 8.914 7.484 8.351
9 2 5.821 7.39 9.018
10 2 7.296 7.347 10.229
ITEM: TIMESTEP
100
ITEM: NUMBER OF ATOMS
10
ITEM: BOX BOUNDS pp pp pp
0.0000000000000000e+00 1.5000000000000000e+01
0.0000000000000000e+00 1.5000000000000000e+01
0.0000000000000000e+00 1.5000000000000000e+01
ITEM: ATOMS id type x y z
5 2 7.70441 7.7886 4.76758
1 1 8.10417 7.50341 5.69974
2 1 7.364 7.68466 6.77557
3 1 7.67047 7.36907 8.23986
4 1 6.87585 7.49391 9.26026
6 2 9.10645 7.0384 5.71333
7 2 6.3555 8.12582 6.68393
8 2 8.71977 7.00155 8.41345
9 2 5.83072 7.75125 9.22811
10 2 7.32018 7.20811 10.2299
ITEM: TIMESTEP
200
ITEM: NUMBER OF ATOMS
10
ITEM: BOX BOUNDS pp pp pp
0.0000000000000000e+00 1.5000000000000000e+01
0.0000000000000000e+00 1.5000000000000000e+01
0.0000000000000000e+00 1.5000000000000000e+01
ITEM: ATOMS id type x y z
5 2 7.88468 7.75762 4.70374
1 1 8.11012 7.42383 5.75206
2 1 7.40794 7.80174 6.85464
3 1 7.62995 7.27321 8.12739
4 1 6.8895 7.56067 9.25124
6 2 8.95813 6.76457 5.81362
7 2 6.53125 8.47709 6.8057
8 2 8.41274 6.55344 8.20021
9 2 6.00867 8.19542 9.2631
10 2 7.10348 7.11518 10.1906
ITEM: TIMESTEP
300
ITEM: NUMBER OF ATOMS
10
ITEM: BOX BOUNDS pp pp pp
0.0000000000000000e+00 1.5000000000000000e+01
0.0000000000000000e+00 1.5000000000000000e+01
0.0000000000000000e+00 1.5000000000000000e+01
ITEM: ATOMS id type x y z
5 2 8.0731 7.97111 4.84572
1 1 8.08898 7.42967 5.76581
2 1 7.4344 7.82219 6.87683
3 1 7.56426 7.15611 8.11909
4 1 6.92541 7.6231 9.2074
6 2 8.71722 6.52291 5.87268
7 2 6.81378 8.69881 6.77434
8 2 8.16896 6.20016 8.26265
9 2 6.24692 8.49492 9.09484
10 2 7.02567 7.14564 10.224
ITEM: TIMESTEP
400
ITEM: NUMBER OF ATOMS
10
ITEM: BOX BOUNDS pp pp pp
0.0000000000000000e+00 1.5000000000000000e+01
0.0000000000000000e+00 1.5000000000000000e+01
0.0000000000000000e+00 1.5000000000000000e+01
ITEM: ATOMS id type x y z
5 2 8.16887 8.01951 4.83098
1 1 8.12064 7.35089 5.7214
2 1 7.54843 7.83709 6.80756
3 1 7.43778 7.16857 8.17607
4 1 6.92272 7.66593 9.2891
6 2 8.59295 6.39996 5.57677
7 2 7.07702 8.85157 6.8137
8 2 7.75495 6.14512 8.16154
9 2 6.49087 8.64399 9.40901
10 2 6.86193 7.025 10.1323
ITEM: TIMESTEP
500
ITEM: NUMBER OF ATOMS
10
ITEM: BOX BOUNDS pp pp pp
0.0000000000000000e+00 1.5000000000000000e+01
0.0000000000000000e+00 1.5000000000000000e+01
0.0000000000000000e+00 1.5000000000000000e+01
ITEM: ATOMS id type x y z
5 2 8.35151 7.87559 4.87872
1 1 8.07838 7.29877 5.73723
2 1 7.66947 7.91578 6.92108
3 1 7.34888 7.11954 8.07519
4 1 6.94386 7.70733 9.26222
6 2 8.14423 6.18037 5.72832
7 2 7.57526 8.99698 7.00456
8 2 7.40887 6.03421 7.84025
9 2 6.81472 8.78421 9.32899
10 2 6.58596 7.10009 10.1338
ITEM: TIMESTEP
600
ITEM: NUMBER OF ATOMS
10
ITEM: BOX BOUNDS pp pp pp
0.0000000000000000e+00 1.5000000000000000e+01
0.0000000000000000e+00 1.5000000000000000e+01
0.0000000000000000e+00 1.5000000000000000e+01
ITEM: ATOMS id type x y z
5 2 8.60753 7.82316 4.9406
1 1 8.04451 7.30061 5.76489
2 1 7.83014 7.86662 6.96533
3 1 7.1782 7.14116 8.04096
4 1 6.96622 7.70261 9.23904
6 2 7.6875 6.30648 5.53172
7 2 8.25978 8.873 7.08737
8 2 6.85046 6.08216 7.95911
9 2 7.19298 8.81118 9.22459
10 2 6.41129 7.25799 10.0844
ITEM: TIMESTEP
700
ITEM: NUMBER OF ATOMS
10
ITEM: BOX BOUNDS pp pp pp
0.0000000000000000e+00 1.5000000000000000e+01
0.0000000000000000e+00 1.5000000000000000e+01
0.0000000000000000e+00 1.5000000000000000e+01
ITEM: ATOMS id type x y z
5 2 8.65595 7.73749 4.97429
1 1 8.06059 7.2639 5.71532
2 1 7.95765 7.69899 6.93246
3 1 7.07174 7.29487 8.05355
4 1 6.95908 7.74914 9.29568
6 2 7.48832 6.40682 5.33397
7 2 8.63844 8.51846 7.20426
8 2 6.44053 6.50324 7.69558
9 2 7.40204 8.60483 9.70533
10 2 6.20438 7.40779 9.99356
ITEM: TIMESTEP
800
ITEM: NUMBER OF ATOMS
10
ITEM: BOX BOUNDS pp pp pp
0.0000000000000000e+00 1.5000000000000000e+01
0.0000000000000000e+00 1.5000000000000000e+01
0.0000000000000000e+00 1.5000000000000000e+01
ITEM: ATOMS id type x y z
1 1 8.04098 7.20657 5.75061
2 1 8.04944 7.68253 7.07222
3 1 6.94117 7.40128 7.92219
4 1 6.98999 7.73186 9.25461
6 2 7.20909 6.60866 5.39622
7 2 8.87174 8.22407 7.55374
8 2 6.03306 6.88677 7.46902
9 2 7.86908 8.37908 9.52153
10 2 6.17303 7.5553 9.95201
5 2 8.8385 7.43269 4.99865
ITEM: TIMESTEP
900
ITEM: NUMBER OF ATOMS
10
ITEM: BOX BOUNDS pp pp pp
0.0000000000000000e+00 1.5000000000000000e+01
0.0000000000000000e+00 1.5000000000000000e+01
0.0000000000000000e+00 1.5000000000000000e+01
ITEM: ATOMS id type x y z
1 1 8.05895 7.21379 5.73022
2 1 8.09916 7.53506 7.03919
3 1 6.87371 7.51469 7.93925
4 1 6.98585 7.75693 9.25614
6 2 7.07621 6.95025 5.31625
7 2 9.10015 7.76706 7.45325
8 2 5.88469 7.36032 7.51423
9 2 7.89845 8.06409 9.76322
10 2 6.06347 7.78348 9.87335
5 2 8.99499 7.17196 5.17994
ITEM: TIMESTEP
1000
ITEM: NUMBER OF ATOMS
10
ITEM: BOX BOUNDS pp pp pp
0.0000000000000000e+00 1.5000000000000000e+01
0.0000000000000000e+00 1.5000000000000000e+01
0.0000000000000000e+00 1.5000000000000000e+01
ITEM: ATOMS id type x y z
1 1 8.03616 7.23671 5.72316
2 1 8.07989 7.36035 7.04065
3 1 6.97135 7.59731 7.96294
4 1 6.93989 7.80524 9.27745
6 2 7.16062 7.24653 5.09233
7 2 9.01785 7.35081 7.61976
8 2 6.04592 7.77494 7.39606
9 2 7.82137 7.77363 9.90399
10 2 6.00954 8.08431 9.72409
5 2 8.9049 6.99212 5.12752
ITEM: TIMESTEP
1100
ITEM: NUMBER OF ATOMS
10
ITEM: BOX BOUNDS pp pp pp
0.0000000000000000e+00 1.5000000000000000e+01
0.0000000000000000e+00 1.5000000000000000e+01
0.0000000000000000e+00 1.5000000000000000e+01
ITEM: ATOMS id type x y z
1 1 8.07644 7.2377 5.80058
2 1 8.0105 7.22661 7.16816
3 1 6.94301 7.75818 7.80723
4 1 6.98365 7.80461 9.19426
6 2 7.23478 7.72884 5.29894
7 2 8.84706 6.77374 7.72559
8 2 6.07478 8.25168 7.21398
9 2 7.8822 7.46234 9.74138
10 2 6.20044 8.18122 9.88363
5 2 8.80317 6.65955 5.20415
ITEM: TIMESTEP
1200
ITEM: NUMBER OF ATOMS
10
ITEM: BOX BOUNDS pp pp pp
0.0000000000000000e+00 1.5000000000000000e+01
0.0000000000000000e+00 1.5000000000000000e+01
0.0000000000000000e+00 1.5000000000000000e+01
ITEM: ATOMS id type x y z
1 1 8.11331 7.20889 5.75939
2 1 7.91317 7.05186 7.06766
3 1 7.04798 7.92456 7.92911
4 1 6.91102 7.8382 9.24354
6 2 7.60573 7.92222 5.08438
7 2 8.51244 6.24536 7.53271
8 2 6.57274 8.73593 7.49907
9 2 7.45374 7.09368 9.78078
10 2 6.29197 8.6018 9.69493
5 2 8.77449 6.47989 5.29887
ITEM: TIMESTEP
1300
ITEM: NUMBER OF ATOMS
10
ITEM: BOX BOUNDS pp pp pp
0.0000000000000000e+00 1.5000000000000000e+01
0.0000000000000000e+00 1.5000000000000000e+01
0.0000000000000000e+00 1.5000000000000000e+01
ITEM: ATOMS id type x y z
1 1 8.1016 7.1514 5.75087
2 1 7.80056 6.98451 7.05332
3 1 7.27747 8.05296 7.95784
4 1 6.83801 7.84909 9.22039
6 2 7.91606 8.05262 5.20741
7 2 7.92033 6.02032 7.56311
8 2 7.25472 9.02354 7.34541
9 2 6.94923 6.92596 9.83131
10 2 6.36919 8.65464 9.79663
5 2 8.60855 6.31515 5.25061
ITEM: TIMESTEP
1400
ITEM: NUMBER OF ATOMS
10
ITEM: BOX BOUNDS pp pp pp
0.0000000000000000e+00 1.5000000000000000e+01
0.0000000000000000e+00 1.5000000000000000e+01
0.0000000000000000e+00 1.5000000000000000e+01
ITEM: ATOMS id type x y z
1 1 8.12339 7.10832 5.81624
2 1 7.65877 6.94225 7.10416
3 1 7.4118 8.08277 7.92076
4 1 6.82629 7.90088 9.16034
6 2 8.31933 8.14777 5.44636
7 2 7.39012 5.93697 7.48365
8 2 7.58454 9.10435 7.52989
9 2 6.71352 6.82234 9.39948
10 2 6.59755 8.70479 9.8739
5 2 8.39741 6.29842 5.14669
ITEM: TIMESTEP
1500
ITEM: NUMBER OF ATOMS
10
ITEM: BOX BOUNDS pp pp pp
0.0000000000000000e+00 1.5000000000000000e+01
0.0000000000000000e+00 1.5000000000000000e+01
0.0000000000000000e+00 1.5000000000000000e+01
ITEM: ATOMS id type x y z
1 1 8.19387 7.0584 5.81282
2 1 7.56754 6.96706 6.95715
3 1 7.41916 8.02985 8.00784
4 1 6.82081 7.97347 9.19709
6 2 8.71744 7.94515 5.5342
7 2 7.06716 6.01307 7.09326
8 2 7.84503 8.97497 7.77935
9 2 6.29852 7.12806 9.60133
10 2 6.90189 8.7706 9.93333
5 2 8.28569 6.21547 5.09814
ITEM: TIMESTEP
1600
ITEM: NUMBER OF ATOMS
10
ITEM: BOX BOUNDS pp pp pp
0.0000000000000000e+00 1.5000000000000000e+01
0.0000000000000000e+00 1.5000000000000000e+01
0.0000000000000000e+00 1.5000000000000000e+01
ITEM: ATOMS id type x y z
1 1 8.22666 6.98385 5.83309
2 1 7.44216 7.03255 6.95792
3 1 7.53005 8.00689 8.03612
4 1 6.81152 8.00211 9.15917
6 2 9.06386 7.69808 5.67807
7 2 6.62076 6.34382 7.16911
8 2 8.32803 8.80184 7.81838
9 2 6.02519 7.21611 9.28203
10 2 6.91762 8.71329 9.9992
5 2 8.10621 6.29444 5.02444
ITEM: TIMESTEP
1700
ITEM: NUMBER OF ATOMS
10
ITEM: BOX BOUNDS pp pp pp
0.0000000000000000e+00 1.5000000000000000e+01
0.0000000000000000e+00 1.5000000000000000e+01
0.0000000000000000e+00 1.5000000000000000e+01
ITEM: ATOMS id type x y z
1 1 8.22413 6.92338 5.90396
2 1 7.30604 7.1087 6.93398
3 1 7.72274 7.92925 8.06354
4 1 6.78436 8.06647 9.09745
6 2 9.17929 7.42969 6.05226
7 2 6.28939 6.59849 6.86288
8 2 8.70671 8.36192 8.1176
9 2 5.82049 7.61183 8.93102
10 2 6.95847 8.66096 9.99722
5 2 7.94605 6.39031 4.93442
ITEM: TIMESTEP
1800
ITEM: NUMBER OF ATOMS
10
ITEM: BOX BOUNDS pp pp pp
0.0000000000000000e+00 1.5000000000000000e+01
0.0000000000000000e+00 1.5000000000000000e+01
0.0000000000000000e+00 1.5000000000000000e+01
ITEM: ATOMS id type x y z
5 2 7.89762 6.49438 4.9606
1 1 8.23543 6.83967 5.89059
2 1 7.36194 7.20615 6.77953
3 1 7.61246 7.75062 8.20013
4 1 6.79105 8.20861 9.12011
6 2 9.31821 6.9647 5.96731
7 2 6.30802 7.05123 6.56157
8 2 8.68174 7.70772 8.48764
9 2 5.71458 8.30685 8.94023
10 2 7.19852 8.66484 10.0295
ITEM: TIMESTEP
1900
ITEM: NUMBER OF ATOMS
10
ITEM: BOX BOUNDS pp pp pp
0.0000000000000000e+00 1.5000000000000000e+01
0.0000000000000000e+00 1.5000000000000000e+01
0.0000000000000000e+00 1.5000000000000000e+01
ITEM: ATOMS id type x y z
5 2 7.96194 6.54997 4.88022
1 1 8.19209 6.76463 5.96299
2 1 7.35826 7.38452 6.82737
3 1 7.64743 7.60181 8.18227
4 1 6.81725 8.2553 9.03605
6 2 9.1847 6.47226 6.23069
7 2 6.34594 7.71328 6.52105
8 2 8.64675 7.20388 8.48774
9 2 5.82466 8.60569 8.68615
10 2 7.06979 8.63743 10.0311
ITEM: TIMESTEP
2000
ITEM: NUMBER OF ATOMS
10
ITEM: BOX BOUNDS pp pp pp
0.0000000000000000e+00 1.5000000000000000e+01
0.0000000000000000e+00 1.5000000000000000e+01
0.0000000000000000e+00 1.5000000000000000e+01
ITEM: ATOMS id type x y z
5 2 7.95746 6.61531 4.92153
1 1 8.14 6.67454 5.97342
2 1 7.40136 7.50324 6.79137
3 1 7.64229 7.56662 8.18719
4 1 6.83135 8.28845 9.02565
6 2 8.95784 6.08198 6.45804
7 2 6.6123 8.07198 6.29393
8 2 8.44831 7.02397 8.66495
9 2 6.06711 8.8903 8.59005
10 2 6.99095 8.33933 10.0947
ITEM: TIMESTEP
2100
ITEM: NUMBER OF ATOMS
10
ITEM: BOX BOUNDS pp pp pp
0.0000000000000000e+00 1.5000000000000000e+01
0.0000000000000000e+00 1.5000000000000000e+01
0.0000000000000000e+00 1.5000000000000000e+01
ITEM: ATOMS id type x y z
5 2 8.05772 6.75699 4.86605
1 1 8.12499 6.60693 5.96962
2 1 7.51061 7.48064 6.73135
3 1 7.50756 7.55542 8.26102
4 1 6.85796 8.37823 9.03164
6 2 8.67151 5.73883 6.25998
7 2 6.95286 8.32964 6.28729
8 2 8.22625 6.81166 8.71697
9 2 6.24531 9.25717 8.6998
10 2 6.96365 8.19838 10.0972
ITEM: TIMESTEP
2200
ITEM: NUMBER OF ATOMS
10
ITEM: BOX BOUNDS pp pp pp
0.0000000000000000e+00 1.5000000000000000e+01
0.0000000000000000e+00 1.5000000000000000e+01
0.0000000000000000e+00 1.5000000000000000e+01
ITEM: ATOMS id type x y z
5 2 8.16278 6.7645 4.95188
1 1 8.07734 6.59837 6.00298
2 1 7.55404 7.57417 6.81011
3 1 7.42031 7.37026 8.20368
4 1 6.95236 8.46323 8.953
6 2 8.3303 5.61991 6.48177
7 2 7.27742 8.58428 6.48265
8 2 7.77857 6.43094 8.5953
9 2 6.81306 9.44299 8.52959
10 2 6.73755 8.34117 10.0293
ITEM: TIMESTEP
2300
ITEM: NUMBER OF ATOMS
10
ITEM: BOX BOUNDS pp pp pp
0.0000000000000000e+00 1.5000000000000000e+01
0.0000000000000000e+00 1.5000000000000000e+01
0.0000000000000000e+00 1.5000000000000000e+01
ITEM: ATOMS id type x y z
5 2 8.3596 6.64278 4.95676
1 1 8.01908 6.54511 6.0227
2 1 7.70676 7.59795 6.81391
3 1 7.20936 7.44072 8.13627
4 1 7.03809 8.46087 9.00838
6 2 7.88584 5.52178 6.35705
7 2 7.93829 8.57076 6.37474
8 2 7.06113 6.4945 8.64476
9 2 7.33024 9.4644 8.65703
10 2 6.70911 8.25787 10.011
ITEM: TIMESTEP
2400
ITEM: NUMBER OF ATOMS
10
ITEM: BOX BOUNDS pp pp pp
0.0000000000000000e+00 1.5000000000000000e+01
0.0000000000000000e+00 1.5000000000000000e+01
0.0000000000000000e+00 1.5000000000000000e+01
ITEM: ATOMS id type x y z
1 1 7.94737 6.49445 5.98522
2 1 7.87401 7.46654 6.85248
3 1 7.10017 7.57189 8.11156
4 1 7.07435 8.51032 9.00208
6 2 7.43943 5.53768 6.1739
7 2 8.46723 8.36112 6.62582
8 2 6.55959 6.59599 8.30732
9 2 7.61433 9.4565 9.01132
5 2 8.44152 6.61081 5.03562
10 2 6.62658 8.39868 10.0269
ITEM: TIMESTEP
2500
ITEM: NUMBER OF ATOMS
10
ITEM: BOX BOUNDS pp pp pp
0.0000000000000000e+00 1.5000000000000000e+01
0.0000000000000000e+00 1.5000000000000000e+01
0.0000000000000000e+00 1.5000000000000000e+01
ITEM: ATOMS id type x y z
1 1 7.83173 6.50659 5.98253
2 1 8.03495 7.43971 7.0063
3 1 7.02703 7.52692 8.03089
4 1 7.10965 8.56405 8.97687
6 2 7.00787 5.7899 6.00473
7 2 8.83043 8.19526 7.07242
8 2 6.2594 6.79348 8.02849
9 2 8.01618 9.1691 8.86698
5 2 8.50855 6.42048 5.10965
10 2 6.48141 8.62819 9.82714
ITEM: TIMESTEP
2600
ITEM: NUMBER OF ATOMS
10
ITEM: BOX BOUNDS pp pp pp
0.0000000000000000e+00 1.5000000000000000e+01
0.0000000000000000e+00 1.5000000000000000e+01
0.0000000000000000e+00 1.5000000000000000e+01
ITEM: ATOMS id type x y z
1 1 7.82561 6.50438 5.94297
2 1 8.04854 7.28597 7.00412
3 1 6.98544 7.67363 8.01667
4 1 7.16244 8.58174 9.00214
6 2 6.81617 6.13907 5.76185
7 2 9.07936 7.64336 7.06353
8 2 5.95966 7.17304 7.92487
9 2 8.12995 9.01579 9.25438
5 2 8.69021 6.18301 5.35655
10 2 6.31653 8.79145 9.73237
ITEM: TIMESTEP
2700
ITEM: NUMBER OF ATOMS
10
ITEM: BOX BOUNDS pp pp pp
0.0000000000000000e+00 1.5000000000000000e+01
0.0000000000000000e+00 1.5000000000000000e+01
0.0000000000000000e+00 1.5000000000000000e+01
ITEM: ATOMS id type x y z
1 1 7.79296 6.4771 5.97787
2 1 8.00283 7.20576 7.06166
3 1 7.0122 7.83215 7.9272
4 1 7.19564 8.54053 9.01684
6 2 6.83864 6.262 5.50146
7 2 9.03703 7.43743 7.41637
8 2 6.01123 7.69079 7.56206
9 2 8.20718 8.53966 9.47874
5 2 8.57622 5.94639 5.4632
10 2 6.43193 9.01049 9.5658
ITEM: TIMESTEP
2800
ITEM: NUMBER OF ATOMS
10
ITEM: BOX BOUNDS pp pp pp
0.0000000000000000e+00 1.5000000000000000e+01
0.0000000000000000e+00 1.5000000000000000e+01
0.0000000000000000e+00 1.5000000000000000e+01
ITEM: ATOMS id type x y z
1 1 7.75433 6.48139 6.00964
2 1 7.95805 7.10086 7.24546
3 1 7.03767 7.98068 7.72563
4 1 7.2648 8.48735 8.99686
6 2 6.83022 6.77037 5.49896
7 2 8.87987 6.82364 7.78971
8 2 6.20965 8.25197 7.05819
9 2 8.03486 8.08292 9.57172
5 2 8.4547 5.74448 5.54928
10 2 6.62557 9.2449 9.55557
ITEM: TIMESTEP
2900
ITEM: NUMBER OF ATOMS
10
ITEM: BOX BOUNDS pp pp pp
0.0000000000000000e+00 1.5000000000000000e+01
0.0000000000000000e+00 1.5000000000000000e+01
0.0000000000000000e+00 1.5000000000000000e+01
ITEM: ATOMS id type x y z
1 1 7.72675 6.47506 5.95314
2 1 7.8183 6.85134 7.22993
3 1 7.26637 8.14197 7.78185
4 1 7.23453 8.57506 9.03004
6 2 7.22691 7.04332 5.14208
7 2 8.28973 6.1443 7.92548
8 2 6.66817 8.83146 7.08558
9 2 7.77197 7.96726 9.83512
5 2 8.24792 5.55397 5.69396
10 2 6.64365 9.4191 9.23701
ITEM: TIMESTEP
3000
ITEM: NUMBER OF ATOMS
10
ITEM: BOX BOUNDS pp pp pp
0.0000000000000000e+00 1.5000000000000000e+01
0.0000000000000000e+00 1.5000000000000000e+01
0.0000000000000000e+00 1.5000000000000000e+01
ITEM: ATOMS id type x y z
1 1 7.74994 6.46383 5.97793
2 1 7.5954 6.81021 7.25311
3 1 7.37558 8.21546 7.7117
4 1 7.28867 8.52639 9.02989
6 2 7.56349 7.15702 5.19561
7 2 7.6706 6.11493 8.1116
8 2 7.20441 8.87157 6.89237
9 2 7.46261 7.90526 9.8581
5 2 8.16494 5.49122 5.69638
10 2 7.00041 9.58466 9.29918
ITEM: TIMESTEP
3100
ITEM: NUMBER OF ATOMS
10
ITEM: BOX BOUNDS pp pp pp
0.0000000000000000e+00 1.5000000000000000e+01
0.0000000000000000e+00 1.5000000000000000e+01
0.0000000000000000e+00 1.5000000000000000e+01
ITEM: ATOMS id type x y z
1 1 7.75021 6.43546 6.00081
2 1 7.48407 6.83544 7.30893
3 1 7.49019 8.18229 7.68635
4 1 7.29353 8.565 8.98523
6 2 7.98132 7.25711 5.26618
7 2 7.22266 6.11451 8.08274
8 2 7.61253 9.02723 6.95215
9 2 7.11228 7.73094 9.74681
5 2 7.76776 5.41164 5.63578
10 2 7.31942 9.56943 9.31745
ITEM: TIMESTEP
3200
ITEM: NUMBER OF ATOMS
10
ITEM: BOX BOUNDS pp pp pp
0.0000000000000000e+00 1.5000000000000000e+01
0.0000000000000000e+00 1.5000000000000000e+01
0.0000000000000000e+00 1.5000000000000000e+01
ITEM: ATOMS id type x y z
1 1 7.72207 6.39783 6.00533
2 1 7.43261 6.8329 7.2073
3 1 7.61453 8.18605 7.79826
4 1 7.26381 8.59369 8.98238
6 2 8.25343 7.00283 5.29922
7 2 6.90934 6.06611 7.79983
8 2 8.11246 8.95919 7.18364
9 2 6.72877 8.07328 9.72508
5 2 7.37085 5.41704 5.6019
10 2 7.55099 9.63875 9.31968
ITEM: TIMESTEP
3300
ITEM: NUMBER OF ATOMS
10
ITEM: BOX BOUNDS pp pp pp
0.0000000000000000e+00 1.5000000000000000e+01
0.0000000000000000e+00 1.5000000000000000e+01
0.0000000000000000e+00 1.5000000000000000e+01
ITEM: ATOMS id type x y z
1 1 7.7255 6.39234 6.03929
2 1 7.24769 6.89592 7.20779
3 1 7.77559 8.11348 7.78616
4 1 7.27661 8.62838 8.9465
6 2 8.54992 6.86463 5.46825
7 2 6.47809 6.50482 7.84725
8 2 8.64323 8.45016 7.29097
9 2 6.32618 8.21973 9.35621
5 2 7.2303 5.58072 5.59633
10 2 7.74394 9.41924 9.45155
ITEM: TIMESTEP
3400
ITEM: NUMBER OF ATOMS
10
ITEM: BOX BOUNDS pp pp pp
0.0000000000000000e+00 1.5000000000000000e+01
0.0000000000000000e+00 1.5000000000000000e+01
0.0000000000000000e+00 1.5000000000000000e+01
ITEM: ATOMS id type x y z
1 1 7.71731 6.34929 6.11699
2 1 7.08797 7.06109 7.1031
3 1 7.89678 7.92488 7.90107
4 1 7.30345 8.68555 8.89326
6 2 8.78654 6.46388 5.91821
7 2 5.96571 6.93987 7.20229
8 2 9.04137 7.95294 7.68106
9 2 6.2385 8.57275 9.12379
5 2 7.05185 5.71805 5.43699
10 2 8.00691 9.44765 9.44013
ITEM: TIMESTEP
3500
ITEM: NUMBER OF ATOMS
10
ITEM: BOX BOUNDS pp pp pp
0.0000000000000000e+00 1.5000000000000000e+01
0.0000000000000000e+00 1.5000000000000000e+01
0.0000000000000000e+00 1.5000000000000000e+01
ITEM: ATOMS id type x y z
1 1 7.63059 6.25904 6.12718
2 1 7.14987 7.17103 6.92111
3 1 7.84955 7.86745 8.04555
4 1 7.39468 8.74678 8.89049
6 2 8.68994 5.96572 6.06646
7 2 6.10553 7.37707 6.7482
8 2 8.87724 7.61202 8.18482
9 2 6.33088 9.00842 8.92529
5 2 6.94378 5.76154 5.49228
10 2 8.02849 9.22947 9.56596
ITEM: TIMESTEP
3600
ITEM: NUMBER OF ATOMS
10
ITEM: BOX BOUNDS pp pp pp
0.0000000000000000e+00 1.5000000000000000e+01
0.0000000000000000e+00 1.5000000000000000e+01
0.0000000000000000e+00 1.5000000000000000e+01
ITEM: ATOMS id type x y z
1 1 7.58469 6.23261 6.17475
2 1 7.18122 7.31116 6.91701
3 1 7.85813 7.72628 8.07406
4 1 7.41616 8.77427 8.82216
6 2 8.49544 5.70755 6.35157
7 2 6.27401 7.90283 6.67477
8 2 8.76238 7.12712 8.2308
9 2 6.45691 9.20718 8.62452
5 2 6.98394 5.79917 5.34989
10 2 7.91005 9.2102 9.72959
ITEM: TIMESTEP
3700
ITEM: NUMBER OF ATOMS
10
ITEM: BOX BOUNDS pp pp pp
0.0000000000000000e+00 1.5000000000000000e+01
0.0000000000000000e+00 1.5000000000000000e+01
0.0000000000000000e+00 1.5000000000000000e+01
ITEM: ATOMS id type x y z
1 1 7.52389 6.20026 6.16118
2 1 7.18527 7.32302 6.86056
3 1 7.78545 7.67347 8.14608
4 1 7.51909 8.83284 8.8234
6 2 8.18977 5.41687 6.64233
7 2 6.52828 8.03603 6.3499
8 2 8.54387 6.95051 8.6099
9 2 6.74602 9.55955 8.369
5 2 7.15825 6.07811 5.14869
10 2 7.87562 9.00144 9.82187
ITEM: TIMESTEP
3800
ITEM: NUMBER OF ATOMS
10
ITEM: BOX BOUNDS pp pp pp
0.0000000000000000e+00 1.5000000000000000e+01
0.0000000000000000e+00 1.5000000000000000e+01
0.0000000000000000e+00 1.5000000000000000e+01
ITEM: ATOMS id type x y z
1 1 7.44102 6.1743 6.18021
2 1 7.28465 7.33233 6.77629
3 1 7.68884 7.65861 8.23354
4 1 7.62105 8.86187 8.7904
6 2 7.77848 5.29862 6.65037
7 2 6.88254 8.17006 6.19195
8 2 7.9716 6.87484 8.88816
9 2 7.33194 9.72225 8.29423
5 2 7.24673 6.08028 5.08492
10 2 7.69931 8.9113 9.89668
ITEM: TIMESTEP
3900
ITEM: NUMBER OF ATOMS
10
ITEM: BOX BOUNDS pp pp pp
0.0000000000000000e+00 1.5000000000000000e+01
0.0000000000000000e+00 1.5000000000000000e+01
0.0000000000000000e+00 1.5000000000000000e+01
ITEM: ATOMS id type x y z
1 1 7.31759 6.19609 6.21847
2 1 7.47693 7.43441 6.80475
3 1 7.52606 7.58117 8.18589
4 1 7.70862 8.81118 8.74968
6 2 7.2067 5.37467 7.001
7 2 7.59889 8.41526 6.31366
8 2 7.2973 6.6144 8.73355
9 2 7.78927 9.74393 8.08896
5 2 7.38485 5.9018 5.20178
10 2 7.67184 9.03291 9.79734
ITEM: TIMESTEP
4000
ITEM: NUMBER OF ATOMS
10
ITEM: BOX BOUNDS pp pp pp
0.0000000000000000e+00 1.5000000000000000e+01
0.0000000000000000e+00 1.5000000000000000e+01
0.0000000000000000e+00 1.5000000000000000e+01
ITEM: ATOMS id type x y z
1 1 7.19539 6.18913 6.20553
2 1 7.65311 7.3218 6.80072
3 1 7.39624 7.68623 8.18292
4 1 7.78851 8.82994 8.78764
6 2 6.73082 5.41391 6.77307
7 2 8.20831 8.05943 6.18474
8 2 6.78681 7.04855 8.8436
9 2 8.20367 9.64757 8.23305
5 2 7.37969 5.93804 5.09623
10 2 7.61525 8.94992 9.89752
ITEM: TIMESTEP
4100
ITEM: NUMBER OF ATOMS
10
ITEM: BOX BOUNDS pp pp pp
0.0000000000000000e+00 1.5000000000000000e+01
0.0000000000000000e+00 1.5000000000000000e+01
0.0000000000000000e+00 1.5000000000000000e+01
ITEM: ATOMS id type x y z
1 1 7.15923 6.22929 6.16954
2 1 7.71413 7.22249 6.83735
3 1 7.29858 7.75007 8.19963
4 1 7.85521 8.80911 8.78522
6 2 6.42277 5.58088 6.71436
7 2 8.49161 7.76965 6.31345
8 2 6.46945 7.25399 8.67296
9 2 8.54002 9.48734 8.26763
5 2 7.43519 5.99608 5.18736
10 2 7.60206 9.06627 9.78286
ITEM: TIMESTEP
4200
ITEM: NUMBER OF ATOMS
10
ITEM: BOX BOUNDS pp pp pp
0.0000000000000000e+00 1.5000000000000000e+01
0.0000000000000000e+00 1.5000000000000000e+01
0.0000000000000000e+00 1.5000000000000000e+01
ITEM: ATOMS id type x y z
1 1 7.08529 6.24873 6.22382
2 1 7.78387 7.23766 6.8816
3 1 7.24853 7.78361 8.08597
4 1 7.9128 8.75502 8.80317
6 2 6.17413 5.85409 6.60276
7 2 8.76018 7.70074 6.62258
8 2 6.21005 7.3823 8.34428
9 2 8.83109 9.15847 8.33974
5 2 7.43581 5.71529 5.27215
10 2 7.5298 9.25896 9.74015
ITEM: TIMESTEP
4300
ITEM: NUMBER OF ATOMS
10
ITEM: BOX BOUNDS pp pp pp
0.0000000000000000e+00 1.5000000000000000e+01
0.0000000000000000e+00 1.5000000000000000e+01
0.0000000000000000e+00 1.5000000000000000e+01
ITEM: ATOMS id type x y z
1 1 7.06706 6.23967 6.16015
2 1 7.74694 7.13174 6.89833
3 1 7.24353 7.92168 8.05639
4 1 7.96362 8.73199 8.87361
6 2 5.94876 6.13546 6.32834
7 2 8.78636 7.10097 6.61073
8 2 6.19703 7.90467 8.23764
9 2 9.02578 8.91068 8.76285
5 2 7.55427 5.59697 5.49336
10 2 7.48487 9.42079 9.5252
ITEM: TIMESTEP
4400
ITEM: NUMBER OF ATOMS
10
ITEM: BOX BOUNDS pp pp pp
0.0000000000000000e+00 1.5000000000000000e+01
0.0000000000000000e+00 1.5000000000000000e+01
0.0000000000000000e+00 1.5000000000000000e+01
ITEM: ATOMS id type x y z
1 1 7.00381 6.33967 6.17865
2 1 7.76781 7.00327 7.02454
3 1 7.25503 8.01791 7.96975
4 1 7.97567 8.66542 8.83822
6 2 5.98972 6.53954 5.97413
7 2 8.82568 6.72677 7.17648
8 2 6.1806 8.28899 7.89691
9 2 9.04699 8.4449 8.85468
5 2 7.42502 5.47755 5.56057
10 2 7.64209 9.58459 9.35932
ITEM: TIMESTEP
4500
ITEM: NUMBER OF ATOMS
10
ITEM: BOX BOUNDS pp pp pp
0.0000000000000000e+00 1.5000000000000000e+01
0.0000000000000000e+00 1.5000000000000000e+01
0.0000000000000000e+00 1.5000000000000000e+01
ITEM: ATOMS id type x y z
1 1 6.98394 6.38806 6.14091
2 1 7.69146 6.89325 7.20987
3 1 7.29372 8.09747 7.79517
4 1 8.03528 8.6262 8.85981
6 2 6.07535 6.98547 5.79835
7 2 8.54116 6.37131 7.67314
8 2 6.38146 8.50308 7.30574
9 2 9.0317 8.20448 9.17218
5 2 7.26145 5.51442 5.62836
10 2 7.80643 9.61133 9.27676
ITEM: TIMESTEP
4600
ITEM: NUMBER OF ATOMS
10
ITEM: BOX BOUNDS pp pp pp
0.0000000000000000e+00 1.5000000000000000e+01
0.0000000000000000e+00 1.5000000000000000e+01
0.0000000000000000e+00 1.5000000000000000e+01
ITEM: ATOMS id type x y z
1 1 6.949 6.38449 6.09945
2 1 7.51029 6.81389 7.22152
3 1 7.4855 8.20528 7.76891
4 1 8.05338 8.63637 8.89898
6 2 6.3112 6.91772 5.43986
7 2 8.06117 6.06805 7.79974
8 2 6.95299 8.99063 7.29564
9 2 8.77001 8.03468 9.39678
5 2 7.22062 5.31715 5.81372
10 2 7.81892 9.65158 9.21013
ITEM: TIMESTEP
4700
ITEM: NUMBER OF ATOMS
10
ITEM: BOX BOUNDS pp pp pp
0.0000000000000000e+00 1.5000000000000000e+01
0.0000000000000000e+00 1.5000000000000000e+01
0.0000000000000000e+00 1.5000000000000000e+01
ITEM: ATOMS id type x y z
1 1 6.95224 6.40855 6.13066
2 1 7.40596 6.81778 7.32231
3 1 7.59657 8.21341 7.67504
4 1 8.04155 8.58419 8.86316
6 2 6.56604 7.18413 5.41343
7 2 7.7559 6.0576 8.03738
8 2 7.38296 8.95043 6.8309
9 2 8.42681 7.86528 9.63703
5 2 6.92026 5.39179 5.83547
10 2 8.09413 9.62719 9.18776
ITEM: TIMESTEP
4800
ITEM: NUMBER OF ATOMS
10
ITEM: BOX BOUNDS pp pp pp
0.0000000000000000e+00 1.5000000000000000e+01
0.0000000000000000e+00 1.5000000000000000e+01
0.0000000000000000e+00 1.5000000000000000e+01
ITEM: ATOMS id type x y z
1 1 6.92873 6.43826 6.08323
2 1 7.32827 6.82651 7.36237
3 1 7.6809 8.16459 7.64597
4 1 8.07046 8.59969 8.89536
6 2 6.94443 7.13236 5.26548
7 2 7.4333 6.15351 8.22787
8 2 7.76495 8.81525 6.79823
9 2 8.01916 7.90047 9.72549
5 2 6.50341 5.41438 5.87378
10 2 8.40859 9.62971 9.0766
ITEM: TIMESTEP
4900
ITEM: NUMBER OF ATOMS
10
ITEM: BOX BOUNDS pp pp pp
0.0000000000000000e+00 1.5000000000000000e+01
0.0000000000000000e+00 1.5000000000000000e+01
0.0000000000000000e+00 1.5000000000000000e+01
ITEM: ATOMS id type x y z
1 1 6.9171 6.38953 6.09909
2 1 7.18623 6.84405 7.29892
3 1 7.80272 8.18903 7.67919
4 1 8.10199 8.59996 8.91189
6 2 7.22953 6.94244 5.19524
7 2 6.9224 6.12832 8.06567
8 2 8.1199 8.88513 6.87777
9 2 7.86229 8.06884 9.8308
5 2 6.31513 5.51667 5.93324
10 2 8.62644 9.54319 9.05177
ITEM: TIMESTEP
5000
ITEM: NUMBER OF ATOMS
10
ITEM: BOX BOUNDS pp pp pp
0.0000000000000000e+00 1.5000000000000000e+01
0.0000000000000000e+00 1.5000000000000000e+01
0.0000000000000000e+00 1.5000000000000000e+01
ITEM: ATOMS id type x y z
1 1 6.93163 6.42588 6.11992
2 1 7.03398 6.95312 7.36845
3 1 7.90338 8.0891 7.62914
4 1 8.12191 8.57347 8.86739
6 2 7.56365 6.87946 5.35167
7 2 6.55881 6.57482 8.30241
8 2 8.42694 8.49747 6.72415
9 2 7.51192 8.07063 9.65015
5 2 6.28621 5.59291 5.78619
10 2 8.83109 9.35526 9.16504
ITEM: TIMESTEP
5100
ITEM: NUMBER OF ATOMS
10
ITEM: BOX BOUNDS pp pp pp
0.0000000000000000e+00 1.5000000000000000e+01
0.0000000000000000e+00 1.5000000000000000e+01
0.0000000000000000e+00 1.5000000000000000e+01
ITEM: ATOMS id type x y z
1 1 6.87217 6.39799 6.09228
2 1 6.94058 7.11834 7.29849
3 1 8.09484 7.91176 7.69326
4 1 8.10899 8.60826 8.89484
6 2 7.69855 6.53188 5.3698
7 2 6.10471 7.08905 8.01719
8 2 8.82663 7.97834 6.93874
9 2 7.37969 8.43668 9.66302
5 2 6.12628 5.66245 5.80718
10 2 8.88864 9.3035 9.21984
ITEM: TIMESTEP
5200
ITEM: NUMBER OF ATOMS
10
ITEM: BOX BOUNDS pp pp pp
0.0000000000000000e+00 1.5000000000000000e+01
0.0000000000000000e+00 1.5000000000000000e+01
0.0000000000000000e+00 1.5000000000000000e+01
ITEM: ATOMS id type x y z
1 1 6.8238 6.42654 6.0996
2 1 6.88788 7.19891 7.15927
3 1 8.12696 7.78133 7.86641
4 1 8.18222 8.61977 8.86494
6 2 7.7274 6.15354 5.55368
7 2 5.90224 7.47953 7.55287
8 2 9.1554 7.60486 7.42278
9 2 7.22713 8.81154 9.39466
5 2 5.89225 5.91246 5.81911
10 2 9.09447 9.09871 9.20457
ITEM: TIMESTEP
5300
ITEM: NUMBER OF ATOMS
10
ITEM: BOX BOUNDS pp pp pp
0.0000000000000000e+00 1.5000000000000000e+01
0.0000000000000000e+00 1.5000000000000000e+01
0.0000000000000000e+00 1.5000000000000000e+01
ITEM: ATOMS id type x y z
1 1 6.83915 6.45632 6.15301
2 1 6.87107 7.35572 7.16386
3 1 8.11173 7.63387 7.84928
4 1 8.18997 8.5906 8.8194
6 2 7.76035 5.92471 5.87417
7 2 6.00361 7.95867 7.44844
8 2 8.96136 7.04347 7.51055
9 2 7.29886 9.14669 9.09211
5 2 5.9598 6.07993 5.61432
10 2 9.06852 8.84742 9.4361
ITEM: TIMESTEP
5400
ITEM: NUMBER OF ATOMS
10
ITEM: BOX BOUNDS pp pp pp
0.0000000000000000e+00 1.5000000000000000e+01
0.0000000000000000e+00 1.5000000000000000e+01
0.0000000000000000e+00 1.5000000000000000e+01
ITEM: ATOMS id type x y z
1 1 6.77795 6.41127 6.13684
2 1 6.92979 7.39181 7.08703
3 1 8.09114 7.61364 7.91275
4 1 8.22336 8.60274 8.8518
6 2 7.49293 5.5912 6.06127
7 2 6.15591 8.16185 7.18948
8 2 8.90911 6.89438 7.78282
9 2 7.46019 9.38852 8.91463
5 2 5.9299 6.43 5.45401
10 2 9.04244 8.63726 9.55631
ITEM: TIMESTEP
5500
ITEM: NUMBER OF ATOMS
10
ITEM: BOX BOUNDS pp pp pp
0.0000000000000000e+00 1.5000000000000000e+01
0.0000000000000000e+00 1.5000000000000000e+01
0.0000000000000000e+00 1.5000000000000000e+01
ITEM: ATOMS id type x y z
1 1 6.73772 6.43044 6.1978
2 1 6.96101 7.48274 6.9674
3 1 8.0701 7.56397 8.0001
4 1 8.24641 8.55557 8.82109
6 2 7.29271 5.49253 6.2831
7 2 6.27245 8.33829 6.84434
8 2 8.78212 6.69824 8.12011
9 2 7.67538 9.49058 8.73421
5 2 5.99247 6.5097 5.38405
10 2 9.01743 8.49434 9.60483
ITEM: TIMESTEP
5600
ITEM: NUMBER OF ATOMS
10
ITEM: BOX BOUNDS pp pp pp
0.0000000000000000e+00 1.5000000000000000e+01
0.0000000000000000e+00 1.5000000000000000e+01
0.0000000000000000e+00 1.5000000000000000e+01
ITEM: ATOMS id type x y z
1 1 6.70909 6.46104 6.23337
2 1 7.09023 7.57285 6.92762
3 1 7.93138 7.43945 8.04255
4 1 8.27924 8.55429 8.78445
6 2 7.13382 5.47983 6.54384
7 2 6.6842 8.5675 6.76252
8 2 8.23284 6.45227 8.24351
9 2 7.96158 9.5417 8.45748
5 2 6.07034 6.49641 5.35175
10 2 8.98155 8.51649 9.6019
ITEM: TIMESTEP
5700
ITEM: NUMBER OF ATOMS
10
ITEM: BOX BOUNDS pp pp pp
0.0000000000000000e+00 1.5000000000000000e+01
0.0000000000000000e+00 1.5000000000000000e+01
0.0000000000000000e+00 1.5000000000000000e+01
ITEM: ATOMS id type x y z
1 1 6.63333 6.47652 6.20079
2 1 7.21201 7.50083 6.8586
3 1 7.79124 7.50489 8.1498
4 1 8.3653 8.54684 8.79749
6 2 6.65777 5.4305 6.47864
7 2 7.1073 8.50138 6.38246
8 2 7.84257 6.52516 8.7175
9 2 8.37465 9.563 8.35095
5 2 6.08107 6.64124 5.2672
10 2 9.04929 8.38424 9.65216
ITEM: TIMESTEP
5800
ITEM: NUMBER OF ATOMS
10
ITEM: BOX BOUNDS pp pp pp
0.0000000000000000e+00 1.5000000000000000e+01
0.0000000000000000e+00 1.5000000000000000e+01
0.0000000000000000e+00 1.5000000000000000e+01
ITEM: ATOMS id type x y z
1 1 6.5799 6.5534 6.23111
2 1 7.31373 7.4943 6.75751
3 1 7.68941 7.53103 8.22206