
10 atoms
2 atom types
   0.0000000000   15.0000000000 xlo xhi
   0.0000000000   15.0000000000 ylo yhi
   0.0000000000   15.0000000000 zlo zhi

Atoms # atomic

     1      1    8.0910000000    7.6280000000    5.7850000000
     2      1    7.2030000000    7.5070000000    6.8330000000
     3      1    7.8050000000    7.4730000000    8.1490000000
     4      1    6.9260000000    7.4360000000    9.2110000000
     5      2    7.7120000000    7.6050000000    4.7210000000
     6      2    9.1340000000    7.6360000000    6.0390000000
     7      2    6.0970000000    7.4940000000    6.6630000000
     8      2    8.9140000000    7.4840000000    8.3510000000
     9      2    5.8210000000    7.3900000000    9.0180000000
    10      2    7.2960000000    7.3470000000   10.2290000000
