LAMMPS (2 Aug 2023 - Update 2)
#13 Butadiene
units           metal
boundary        p p p
atom_style      atomic

neighbor        2.0 bin
neigh_modify    delay 0 every 1 check yes

read_data       conf.lmp
Reading data file ...
  orthogonal box = (0 0 0) to (15 15 15)
  1 by 1 by 3 MPI processor grid
  reading atoms ...
  10 atoms
  read_data CPU = 0.016 seconds
mass            1 12.0
mass            2 2

variable        sysvol          equal vol
variable        sysmass         equal mass(all)/6.0221367e+23
variable        sysdensity      equal v_sysmass/v_sysvol/1.0e-24
variable	out_freq 	equal 100

pair_style      deepmd frozen_model_1_compressed.pb frozen_model_2_compressed.pb frozen_model_3_compressed.pb frozen_model_3_compressed.pb out_file md.out out_freq 10 atomic relative 1.0
Summary of lammps deepmd module ...
  >>> Info of deepmd-kit:
  installed to:       /rs1/researchers/w/wjpfaend/rahul/MLP/DeePMD-kit/deepmd_cpu
  source:             v2.2.8-dirty
  source branch:      master
  source commit:      b875ea8
  source commit at:   2024-01-22 22:28:58 -0500
  support model ver.: 1.1 
  build variant:      cpu
  build with tf inc:  /rs1/researchers/w/wjpfaend/rahul/MLP/DeePMD-kit/tensorflow/lib/python3.11/site-packages/tensorflow/include;/rs1/researchers/w/wjpfaend/rahul/MLP/DeePMD-kit/tensorflow/lib/python3.11/site-packages/tensorflow/include
  build with tf lib:  /rs1/researchers/w/wjpfaend/rahul/MLP/DeePMD-kit/tensorflow/lib/python3.11/site-packages/tensorflow/libtensorflow_cc.so.2
  set tf intra_op_parallelism_threads: 0
  set tf inter_op_parallelism_threads: 0
  >>> Info of lammps module:
  use deepmd-kit at:  /rs1/researchers/w/wjpfaend/rahul/MLP/DeePMD-kit/deepmd_cpu
  source:             v2.2.8-dirty
  source branch:      master
  source commit:      b875ea8
  source commit at:   2024-01-22 22:28:58 -0500
  build float prec:   double
  build with tf inc:  /rs1/researchers/w/wjpfaend/rahul/MLP/DeePMD-kit/tensorflow/lib/python3.11/site-packages/tensorflow/include;/rs1/researchers/w/wjpfaend/rahul/MLP/DeePMD-kit/tensorflow/lib/python3.11/site-packages/tensorflow/include
  build with tf lib:  /rs1/researchers/w/wjpfaend/rahul/MLP/DeePMD-kit/tensorflow/lib/python3.11/site-packages/tensorflow/libtensorflow_cc.so.2
pair_coeff	* *

#
velocity        all create 300.0 2345678 rot no dist gaussian
fix             1 all nvt temp 300.0 300.0 0.05

timestep        0.0005
thermo_style    custom step pe ke etotal v_sysdensity temp press vol
thermo          10

dump            10 all custom 100 btd.dump id type x y z
dump		101 all xyz 100 btd.xyz
dump_modify	101 element C H

fix		extra all print 20 "$(step), $(ke), $(pe), $(etotal), $(temp), $(press), $(vol)" file logfile screen no

restart	        100000 dump.restart

run             1000000

CITE-CITE-CITE-CITE-CITE-CITE-CITE-CITE-CITE-CITE-CITE-CITE-CITE

Your simulation uses code contributions which should be cited:

- USER-DEEPMD package:

@article{Wang_ComputPhysCommun_2018_v228_p178,
  author = {Wang, Han and Zhang, Linfeng and Han, Jiequn and E, Weinan},
  doi = {10.1016/j.cpc.2018.03.016},
  url = {https://doi.org/10.1016/j.cpc.2018.03.016},
  year = 2018,
  month = {jul},
  publisher = {Elsevier {BV}},
  volume = 228,
  journal = {Comput. Phys. Commun.},
  title = {{DeePMD-kit: A deep learning package for many-body potential energy representation and molecular dynamics}},
  pages = {178--184}
}
@misc{Zeng_JChemPhys_2023_v159_p054801,
  title  = {{DeePMD-kit v2: A software package for deep potential models}},
  author =   {Jinzhe Zeng and Duo Zhang and Denghui Lu and Pinghui Mo and Zeyu Li
         and Yixiao Chen and Mari{\'a}n Rynik and Li'ang Huang and Ziyao Li and 
         Shaochen Shi and Yingze Wang and Haotian Ye and Ping Tuo and Jiabin
         Yang and Ye Ding and Yifan Li and Davide Tisi and Qiyu Zeng and Han 
         Bao and Yu Xia and Jiameng Huang and Koki Muraoka and Yibo Wang and 
         Junhan Chang and Fengbo Yuan and Sigbj{\o}rn L{\o}land Bore and Chun
         Cai and Yinnian Lin and Bo Wang and Jiayan Xu and Jia-Xin Zhu and 
         Chenxing Luo and Yuzhi Zhang and Rhys E A Goodall and Wenshuo Liang
         and Anurag Kumar Singh and Sikai Yao and Jingchao Zhang and Renata
         Wentzcovitch and Jiequn Han and Jie Liu and Weile Jia and Darrin M
         York and Weinan E and Roberto Car and Linfeng Zhang and Han Wang},
  journal =  {J. Chem. Phys.},
  volume =   159,
  issue =    5,  
  year =    2023,
  pages  =   054801,
  doi =      {10.1063/5.0155600},
}

CITE-CITE-CITE-CITE-CITE-CITE-CITE-CITE-CITE-CITE-CITE-CITE-CITE

Generated 0 of 1 mixed pair_coeff terms from geometric mixing rule
Neighbor list info ...
  update: every = 1 steps, delay = 0 steps, check = yes
  max neighbors/atom: 2000, page size: 100000
  master list distance cutoff = 8
  ghost atom cutoff = 8
  binsize = 4, bins = 4 4 4
  1 neighbor lists, perpetual/occasional/extra = 1 0 0
  (1) pair deepmd, perpetual
      attributes: full, newton on
      pair build: full/bin/atomonly
      stencil: full/bin/3d
      bin: standard
Per MPI rank memory allocation (min/avg/max) = 3.082 | 3.083 | 3.083 Mbytes
   Step         PotEng         KinEng         TotEng      v_sysdensity       Temp          Press          Volume    
         0  -56.646382      0.34900239    -56.29738       0.029520714    300           -950.35539      3375         
        10  -56.692944      0.3946739     -56.29827       0.029520714    339.25891      1194.4948      3375         
        20  -56.573745      0.27659251    -56.297153      0.029520714    237.75697      2322.5319      3375         
        30  -56.807479      0.50908415    -56.298395      0.029520714    437.60516     -34.258286      3375         
        40  -56.721491      0.41971897    -56.301772      0.029520714    360.78748     -1315.5061      3375         
        50  -56.671259      0.36522447    -56.306034      0.029520714    313.94438     -496.45288      3375         
        60  -56.645606      0.33461014    -56.310996      0.029520714    287.62852      36.640762      3375         
        70  -56.847242      0.52701327    -56.320229      0.029520714    453.0169      -222.65262      3375         
        80  -56.499776      0.17309985    -56.326676      0.029520714    148.79541     -322.09278      3375         
        90  -56.722877      0.38987966    -56.332997      0.029520714    335.13782     -186.80254      3375         
       100  -56.719406      0.3767245     -56.342681      0.029520714    323.82973      411.19797      3375         
       110  -56.750495      0.39748884    -56.353007      0.029520714    341.67861     -183.63458      3375         
       120  -56.657131      0.29271695    -56.364414      0.029520714    251.61743     -1280.3085      3375         
       130  -56.790176      0.41299214    -56.377184      0.029520714    355.00514     -361.77334      3375         
       140  -56.775318      0.37863664    -56.396682      0.029520714    325.47339      1571.3121      3375         
       150  -56.710939      0.29871683    -56.412222      0.029520714    256.77489      905.73524      3375         
       160  -56.662404      0.23272389    -56.42968       0.029520714    200.04782     -740.82792      3375         
       170  -56.722266      0.27982409    -56.442441      0.029520714    240.53482     -489.95488      3375         
       180  -56.833734      0.36788797    -56.465846      0.029520714    316.23391      737.11491      3375         
       190  -56.736581      0.25335356    -56.483227      0.029520714    217.78094      1316.6973      3375         
       200  -56.814998      0.31052813    -56.50447       0.029520714    266.92779      324.67438      3375         
       210  -56.803047      0.27780233    -56.525245      0.029520714    238.79693     -1169.1291      3375         
       220  -56.81731       0.27292999    -56.54438       0.029520714    234.6087      -605.02472      3375         
       230  -56.707388      0.1508829     -56.556505      0.029520714    129.69788      518.71494      3375         
       240  -56.841525      0.27165197    -56.569873      0.029520714    233.51012     -512.59366      3375         
       250  -56.771003      0.19054132    -56.580462      0.029520714    163.78798     -836.26215      3375         
       260  -56.840124      0.25180484    -56.588319      0.029520714    216.44967     -41.520173      3375         
       270  -56.78089       0.18457252    -56.596317      0.029520714    158.65724      163.93396      3375         
       280  -56.887671      0.28576355    -56.601907      0.029520714    245.64034      52.956353      3375         
       290  -56.833084      0.22710208    -56.605982      0.029520714    195.21535     -179.97569      3375         
       300  -56.806612      0.19837103    -56.608241      0.029520714    170.51834      39.696392      3375         
       310  -56.796633      0.18738707    -56.609246      0.029520714    161.07661      1421.5992      3375         
       320  -56.843682      0.23537407    -56.608308      0.029520714    202.32589      895.14252      3375         
       330  -56.775         0.17095329    -56.604047      0.029520714    146.95025     -1107.7654      3375         
       340  -56.810292      0.21007497    -56.600217      0.029520714    180.57896     -846.69608      3375         
       350  -56.868631      0.27590806    -56.592723      0.029520714    237.16862      541.0767       3375         
       360  -56.798929      0.21657495    -56.582354      0.029520714    186.1663       669.20776      3375         
       370  -56.868016      0.3000958     -56.56792       0.029520714    257.96024      193.61338      3375         
       380  -56.754521      0.19843993    -56.556082      0.029520714    170.57757     -504.63438      3375         
       390  -56.760238      0.21872535    -56.541513      0.029520714    188.01477     -613.87232      3375         
       400  -56.75567       0.23286021    -56.522809      0.029520714    200.165        349.84204      3375         
       410  -56.854881      0.35662503    -56.498256      0.029520714    306.55237     -277.36086      3375         
       420  -56.636257      0.16022277    -56.476035      0.029520714    137.72637     -1227.9715      3375         
       430  -56.869792      0.41804011    -56.451752      0.029520714    359.34434     -105.58182      3375         
       440  -56.810046      0.39079146    -56.419255      0.029520714    335.92159      850.70545      3375         
       450  -56.708861      0.30876063    -56.4001        0.029520714    265.40846     -219.11164      3375         
       460  -56.61728       0.23251739    -56.384763      0.029520714    199.87031     -316.26439      3375         
       470  -56.765146      0.39114983    -56.373997      0.029520714    336.22964      667.1294       3375         
       480  -56.640011      0.27788144    -56.362129      0.029520714    238.86493      1602.4513      3375         
       490  -56.710132      0.35477414    -56.355358      0.029520714    304.96135      1413.0217      3375         
       500  -56.765815      0.41797102    -56.347844      0.029520714    359.28495     -876.84319      3375         
       510  -56.723333      0.38045565    -56.342877      0.029520714    327.037       -1922.4822      3375         
       520  -56.747844      0.40797971    -56.339865      0.029520714    350.69649      392.51873      3375         
       530  -56.63709       0.29874172    -56.338348      0.029520714    256.79628      955.0741       3375         
       540  -56.757056      0.42066271    -56.336393      0.029520714    361.59871     -845.15412      3375         
       550  -56.63656       0.30180857    -56.334752      0.029520714    259.43252     -794.44437      3375         
       560  -56.690203      0.35585344    -56.33435       0.029520714    305.88911     -551.17008      3375         
       570  -56.588605      0.25693672    -56.331668      0.029520714    220.861        70.217325      3375         
       580  -56.893428      0.56384238    -56.329585      0.029520714    484.67494      688.93189      3375         
       590  -56.700306      0.37020466    -56.330101      0.029520714    318.22532     -415.5865       3375         
       600  -56.754044      0.42171001    -56.332334      0.029520714    362.49896     -243.4885       3375         
       610  -56.594503      0.26029582    -56.334207      0.029520714    223.74845      1460.8462      3375         
       620  -56.735251      0.39827715    -56.336974      0.029520714    342.35624     -49.740075      3375         
       630  -56.645664      0.30712821    -56.338536      0.029520714    264.00525     -1164.4551      3375         
       640  -56.671394      0.33150091    -56.339893      0.029520714    284.95585      395.21247      3375         
       650  -56.714949      0.37275759    -56.342192      0.029520714    320.4198       1381.9229      3375         
       660  -56.80407       0.45988464    -56.344185      0.029520714    395.3136       823.37038      3375         
       670  -56.721085      0.37210615    -56.348979      0.029520714    319.85983     -631.51927      3375         
       680  -56.661484      0.30838098    -56.353103      0.029520714    265.08212     -1465.4376      3375         
       690  -56.780779      0.42179042    -56.358989      0.029520714    362.56807      169.83529      3375         
       700  -56.61026       0.24734706    -56.362912      0.029520714    212.61779      1207.067       3375         
       710  -56.735071      0.36646856    -56.368603      0.029520714    315.0138      -715.36615      3375         
       720  -56.663065      0.29094245    -56.372123      0.029520714    250.09208     -1635.3566      3375         
       730  -56.819343      0.44173674    -56.377607      0.029520714    379.7138      -501.81812      3375         
       740  -56.672659      0.28875402    -56.383905      0.029520714    248.21093      650.94075      3375         
       750  -56.819857      0.42874156    -56.391116      0.029520714    368.54323      507.86052      3375         
       760  -56.623966      0.22696272    -56.397004      0.029520714    195.09556      204.28569      3375         
       770  -56.856832      0.45222495    -56.404607      0.029520714    388.72938      222.59448      3375         
       780  -56.664073      0.25092312    -56.41315       0.029520714    215.69174      791.21654      3375         
       790  -56.679531      0.26145313    -56.418078      0.029520714    224.74327      166.85276      3375         
       800  -56.70343       0.27996518    -56.423464      0.029520714    240.6561      -1037.4053      3375         
       810  -56.834137      0.40469165    -56.429445      0.029520714    347.8701      -227.64203      3375         
       820  -56.749788      0.31226435    -56.437524      0.029520714    268.42024      1659.5484      3375         
       830  -56.764284      0.32107305    -56.443211      0.029520714    275.99213      679.80836      3375         
       840  -56.784566      0.33285153    -56.451715      0.029520714    286.11683     -1266.4224      3375         
       850  -56.702782      0.24571243    -56.457069      0.029520714    211.21267     -1203.569       3375         
       860  -56.747973      0.2845047     -56.463468      0.029520714    244.55824     -140.32229      3375         
       870  -56.676254      0.20941915    -56.466835      0.029520714    180.01522      888.55258      3375         
       880  -56.861563      0.38992909    -56.471634      0.029520714    335.1803       181.20898      3375         
       890  -56.706858      0.23169909    -56.475159      0.029520714    199.1669      -1274.6198      3375         
       900  -56.818265      0.33907008    -56.479195      0.029520714    291.46225     -520.11124      3375         
       910  -56.734345      0.25298141    -56.481363      0.029520714    217.46104      903.29398      3375         
       920  -56.892408      0.40771626    -56.484692      0.029520714    350.47003      143.24506      3375         
       930  -56.635392      0.14867123    -56.48672       0.029520714    127.79674     -121.87574      3375         
       940  -56.794124      0.30642417    -56.4877        0.029520714    263.40006      582.40766      3375         
       950  -56.712521      0.22689483    -56.485626      0.029520714    195.0372       897.619        3375         
       960  -56.806617      0.32278877    -56.483828      0.029520714    277.46695      94.583282      3375         
       970  -56.749233      0.26986026    -56.479372      0.029520714    231.96998     -864.66172      3375         
       980  -56.825422      0.35142865    -56.473994      0.029520714    302.08559     -425.64032      3375         
       990  -56.782429      0.31754268    -56.464886      0.029520714    272.95745      1250.6998      3375         
      1000  -56.776663      0.3183366     -56.458327      0.029520714    273.6399       689.77339      3375         
      1010  -56.670433      0.22221131    -56.448222      0.029520714    191.01128     -1417.6682      3375         
      1020  -56.69031       0.25118729    -56.439123      0.029520714    215.91883     -1460.462       3375         
      1030  -56.836785      0.41517053    -56.421615      0.029520714    356.87766      72.829407      3375         
      1040  -56.631773      0.22630175    -56.405471      0.029520714    194.52739      832.81424      3375         
      1050  -56.773605      0.38884824    -56.384757      0.029520714    334.25121      31.956145      3375         
      1060  -56.776427      0.41480425    -56.361622      0.029520714    356.56281     -878.16805      3375         
      1070  -56.796975      0.46221471    -56.334761      0.029520714    397.31651     -410.45942      3375         
      1080  -56.535803      0.22106135    -56.314742      0.029520714    190.02278      1152.7767      3375         
      1090  -56.751261      0.4537342     -56.297527      0.029520714    390.02672      743.60824      3375         
      1100  -56.516332      0.23901216    -56.27732       0.029520714    205.45317     -195.96454      3375         
      1110  -56.775559      0.51883386    -56.256725      0.029520714    445.98593      761.01         3375         
      1120  -56.618279      0.38441466    -56.233864      0.029520714    330.44013      1330.092       3375         
      1130  -56.70719       0.4887163     -56.218474      0.029520714    420.09709     -644.98189      3375         
      1140  -56.623297      0.42223666    -56.20106       0.029520714    362.95166     -1408.7969      3375         
      1150  -56.733915      0.54394938    -56.189966      0.029520714    467.57506     -819.51758      3375         
      1160  -56.555815      0.37429749    -56.181517      0.029520714    321.74349      347.50887      3375         
      1170  -56.605492      0.42857199    -56.17692       0.029520714    368.39746      1044.3055      3375         
      1180  -56.65136       0.47750121    -56.173859      0.029520714    410.45668     -910.19945      3375         
      1190  -56.464164      0.29184792    -56.172316      0.029520714    250.87042     -1673.783       3375         
      1200  -56.727719      0.55546146    -56.172257      0.029520714    477.47076      765.16463      3375         
      1210  -56.752018      0.57504836    -56.176969      0.029520714    494.30752      1345.5743      3375         
      1220  -56.765546      0.57467666    -56.19087       0.029520714    493.98801     -292.58468      3375         
      1230  -56.478544      0.27467818    -56.203865      0.029520714    236.11143     -732.16346      3375         
      1240  -56.641345      0.42349033    -56.217855      0.029520714    364.02931     -613.92307      3375         
      1250  -56.581754      0.35137945    -56.230374      0.029520714    302.0433       625.94733      3375         
      1260  -56.767929      0.51685889    -56.25107       0.029520714    444.28827      1018.3272      3375         
      1270  -56.519082      0.24723417    -56.271847      0.029520714    212.52076      116.19142      3375         
      1280  -56.820359      0.52965234    -56.290706      0.029520714    455.28542      615.77073      3375         
      1290  -56.725431      0.40505931    -56.320372      0.029520714    348.18613      1345.5933      3375         
      1300  -56.741113      0.39169589    -56.349417      0.029520714    336.69903     -648.03422      3375         
      1310  -56.639226      0.26708598    -56.37214       0.029520714    229.58523     -1715.8481      3375         
      1320  -56.740796      0.35027389    -56.390522      0.029520714    301.09297     -700.51058      3375         
      1330  -56.71422       0.29835429    -56.415866      0.029520714    256.46325      321.87704      3375         
      1340  -56.728939      0.2993892     -56.42955       0.029520714    257.35285      463.98962      3375         
      1350  -56.75568       0.3098785     -56.445802      0.029520714    266.36938     -609.14428      3375         
      1360  -56.729542      0.27208827    -56.457454      0.029520714    233.88516     -1238.457       3375         
      1370  -56.847399      0.37742001    -56.469979      0.029520714    324.42758      382.59405      3375         
      1380  -56.693067      0.21647869    -56.476588      0.029520714    186.08356      1722.9174      3375         
      1390  -56.833292      0.34985279    -56.48344       0.029520714    300.731        309.93447      3375         
      1400  -56.769182      0.28137523    -56.487806      0.029520714    241.86817     -772.98748      3375         
      1410  -56.734618      0.24472571    -56.489892      0.029520714    210.3645       25.457149      3375         
      1420  -56.631755      0.14205958    -56.489696      0.029520714    122.11342      613.26064      3375         
      1430  -56.889236      0.40012753    -56.489109      0.029520714    343.94681      49.952014      3375         
      1440  -56.762035      0.27611902    -56.485916      0.029520714    237.34996     -198.67946      3375         
      1450  -56.820467      0.33649419    -56.483972      0.029520714    289.24804     -84.219539      3375         
      1460  -56.761541      0.28002717    -56.481514      0.029520714    240.70939      627.51491      3375         
      1470  -56.805077      0.32600349    -56.479074      0.029520714    280.2303       288.80362      3375         
      1480  -56.691074      0.21631906    -56.474755      0.029520714    185.94635     -1222.5035      3375         
      1490  -56.738172      0.26593876    -56.472233      0.029520714    228.59908     -776.46175      3375         
      1500  -56.749064      0.28258361    -56.46648       0.029520714    242.90688      764.69619      3375         
      1510  -56.770225      0.31061132    -56.459614      0.029520714    266.9993       52.722528      3375         
      1520  -56.827109      0.3755365     -56.451573      0.029520714    322.80853     -1132.5215      3375         
      1530  -56.709034      0.26326729    -56.445767      0.029520714    226.30271     -947.4554       3375         
      1540  -56.789148      0.35141136    -56.437737      0.029520714    302.07073      296.89847      3375         
      1550  -56.719635      0.2896145     -56.430021      0.029520714    248.95059      1920.0516      3375         
      1560  -56.778829      0.35631264    -56.422517      0.029520714    306.28384      1105.68        3375         
      1570  -56.591457      0.17679207    -56.414665      0.029520714    151.96922     -579.69415      3375         
      1580  -56.804401      0.39925371    -56.405147      0.029520714    343.19568      89.011849      3375         
      1590  -56.746371      0.3529868     -56.393384      0.029520714    303.42497      941.96285      3375         
      1600  -56.819472      0.43846611    -56.381006      0.029520714    376.90238     -562.33024      3375         
      1610  -56.630613      0.2602566     -56.370356      0.029520714    223.71474     -1012.86        3375         
      1620  -56.808953      0.4470842     -56.361869      0.029520714    384.31043     -338.804        3375         
      1630  -56.634047      0.28441695    -56.34963       0.029520714    244.48281      167.1665       3375         
      1640  -56.650736      0.30831053    -56.342425      0.029520714    265.02156      59.061838      3375         
      1650  -56.669473      0.33786967    -56.331603      0.029520714    290.43039     -810.22324      3375         
      1660  -56.752309      0.43280261    -56.319507      0.029520714    372.03408     -840.51014      3375         
      1670  -56.697268      0.39180885    -56.305459      0.029520714    336.79613      1029.929       3375         
      1680  -56.6966        0.40015712    -56.296442      0.029520714    343.97224      1208.2468      3375         
      1690  -56.803552      0.51979077    -56.283761      0.029520714    446.80849     -1096.9456      3375         
      1700  -56.613728      0.33849337    -56.275235      0.029520714    290.96652     -1247.7945      3375         
      1710  -56.685572      0.41629462    -56.269278      0.029520714    357.84393      722.14599      3375         
      1720  -56.500261      0.2374434     -56.262818      0.029520714    204.10468      1784.1646      3375         
      1730  -56.786609      0.53271351    -56.253895      0.029520714    457.91678      912.61548      3375         
      1740  -56.665925      0.42011966    -56.245805      0.029520714    361.1319      -490.55009      3375         
      1750  -56.733131      0.49298559    -56.240145      0.029520714    423.76694     -756.59158      3375         
      1760  -56.57387       0.3383698     -56.2355        0.029520714    290.8603       822.29024      3375         
      1770  -56.852618      0.61841749    -56.2342        0.029520714    531.58732     -63.195996      3375         
      1780  -56.461082      0.22720157    -56.233881      0.029520714    195.30087     -1613.8191      3375         
      1790  -56.65667       0.42115874    -56.235511      0.029520714    362.02509     -170.17816      3375         
      1800  -56.666821      0.4287934     -56.238027      0.029520714    368.58779      622.25683      3375         
      1810  -56.674544      0.43205216    -56.242492      0.029520714    371.389       -675.43308      3375         
      1820  -56.615412      0.36447439    -56.250938      0.029520714    313.29962     -808.49794      3375         
      1830  -56.722875      0.46132916    -56.261546      0.029520714    396.5553      -529.98078      3375         
      1840  -56.745322      0.46361777    -56.281705      0.029520714    398.52258      1002.0219      3375         
      1850  -56.61372       0.31464984    -56.29907       0.029520714    270.47079      2117.82        3375         
      1860  -56.736091      0.41133522    -56.324756      0.029520714    353.58086     -587.97635      3375         
      1870  -56.610305      0.26913899    -56.341166      0.029520714    231.34998     -1484.5191      3375         
      1880  -56.763715      0.39481241    -56.368902      0.029520714    339.37797      793.85887      3375         
      1890  -56.671043      0.27992554    -56.391118      0.029520714    240.62202      1191.6645      3375         
      1900  -56.815281      0.40084184    -56.414439      0.029520714    344.56083     -25.604759      3375         
      1910  -56.682198      0.24619949    -56.435999      0.029520714    211.63135     -404.17466      3375         
      1920  -56.852676      0.39398774    -56.458689      0.029520714    338.66909     -609.69592      3375         
      1930  -56.696835      0.22232109    -56.474514      0.029520714    191.10564      485.09978      3375         
      1940  -56.807857      0.31903056    -56.488826      0.029520714    274.23642      440.99292      3375         
      1950  -56.696321      0.19375846    -56.502563      0.029520714    166.55341     -1122.3785      3375         
      1960  -56.849541      0.33832955    -56.511211      0.029520714    290.8257      -625.63684      3375         
      1970  -56.711095      0.19131466    -56.51978       0.029520714    164.45274      733.28953      3375         
      1980  -56.780121      0.25487421    -56.525247      0.029520714    219.08808     -377.4494       3375         
      1990  -56.844116      0.31315994    -56.530956      0.029520714    269.19008     -1089.726       3375         
      2000  -56.832885      0.29824003    -56.534645      0.029520714    256.36503      64.43096       3375         
      2010  -56.757557      0.21907004    -56.538487      0.029520714    188.31107      1226.5456      3375         
      2020  -56.77838       0.23855713    -56.539823      0.029520714    205.06203      1369.4038      3375         
      2030  -56.80153       0.2623253     -56.539205      0.029520714    225.49298     -179.1294       3375         
      2040  -56.688982      0.1518298     -56.537153      0.029520714    130.51183     -1286.3059      3375         
      2050  -56.845356      0.31173038    -56.533625      0.029520714    267.96124      298.89996      3375         
      2060  -56.786043      0.25849719    -56.527546      0.029520714    222.20237      1437.7759      3375         
      2070  -56.859832      0.34106861    -56.518764      0.029520714    293.18017     -320.75673      3375         
      2080  -56.729968      0.21948551    -56.510482      0.029520714    188.6682      -886.62593      3375         
      2090  -56.828641      0.32753653    -56.501105      0.029520714    281.54809     -162.96405      3375         
      2100  -56.665875      0.17709622    -56.488779      0.029520714    152.23066      49.264001      3375         
      2110  -56.812306      0.33622289    -56.476083      0.029520714    289.01483      39.0354        3375         
      2120  -56.64847       0.18765486    -56.460816      0.029520714    161.3068      -508.90262      3375         
      2130  -56.852899      0.40934728    -56.443551      0.029520714    351.87204     -750.3301       3375         
      2140  -56.784596      0.37056519    -56.414031      0.029520714    318.53523      827.19478      3375         
      2150  -56.740155      0.34584532    -56.39431       0.029520714    297.28621      118.87031      3375         
      2160  -56.636491      0.26249868    -56.373992      0.029520714    225.64202     -1533.8944      3375         
      2170  -56.790449      0.4362636     -56.354186      0.029520714    375.00912      151.07425      3375         
      2180  -56.694608      0.36560751    -56.329001      0.029520714    314.27364      2065.9412      3375         
      2190  -56.623031      0.30757309    -56.315458      0.029520714    264.38766      1285.2708      3375         
      2200  -56.679731      0.38297635    -56.296755      0.029520714    329.20378     -247.79036      3375         
      2210  -56.659906      0.37742977    -56.282476      0.029520714    324.43597     -1161.19        3375         
      2220  -56.796641      0.5302415     -56.266399      0.029520714    455.79186     -93.755339      3375         
      2230  -56.633157      0.37676655    -56.256391      0.029520714    323.86588      1485.572       3375         
      2240  -56.751594      0.50185382    -56.24974       0.029520714    431.39001     -329.03675      3375         
      2250  -56.571372      0.32600626    -56.245365      0.029520714    280.23269     -1903.1196      3375         
      2260  -56.672163      0.42826978    -56.243893      0.029520714    368.13769     -692.95596      3375         
      2270  -56.518546      0.2766342     -56.241912      0.029520714    237.79281      336.56064      3375         
      2280  -56.809382      0.56834221    -56.24104       0.029520714    488.54297     -125.69859      3375         
      2290  -56.60922       0.36633926    -56.24288       0.029520714    314.90265      9.104141       3375         
      2300  -56.769969      0.52320743    -56.246761      0.029520714    449.74542      339.16707      3375         
      2310  -56.632335      0.37996827    -56.252367      0.029520714    326.61805      944.91566      3375         
      2320  -56.731651      0.47059858    -56.261052      0.029520714    404.52323      283.62473      3375         
      2330  -56.599916      0.33093591    -56.26898       0.029520714    284.47018     -1220.1886      3375         
      2340  -56.576789      0.30347733    -56.273311      0.029520714    260.86698     -720.4456       3375         
      2350  -56.646033      0.36614125    -56.279892      0.029520714    314.73244      1768.9819      3375         
      2360  -56.788304      0.50252794    -56.285776      0.029520714    431.96948      1463.3847      3375         
      2370  -56.751434      0.4550952     -56.296339      0.029520714    391.19663     -1036.63        3375         
      2380  -56.5929        0.28838538    -56.304515      0.029520714    247.89404     -929.52118      3375         
      2390  -56.798708      0.48364474    -56.315063      0.029520714    415.73761      378.44598      3375         
      2400  -56.63898       0.31659667    -56.322383      0.029520714    272.14427      681.52465      3375         
      2410  -56.701147      0.36904211    -56.332104      0.029520714    317.22601      108.28653      3375         
      2420  -56.648719      0.3091532     -56.339566      0.029520714    265.74592     -1357.1465      3375         
      2430  -56.777611      0.4304952     -56.347116      0.029520714    370.05065     -1328.8016      3375         
      2440  -56.644833      0.29029699    -56.354536      0.029520714    249.53725      754.99241      3375         
      2450  -56.803653      0.44042766    -56.363226      0.029520714    378.58852      223.04736      3375         
      2460  -56.623797      0.253732      -56.370065      0.029520714    218.10624     -504.96495      3375         
      2470  -56.80652       0.43039082    -56.376129      0.029520714    369.96092      902.57223      3375         
      2480  -56.725494      0.34032873    -56.385165      0.029520714    292.54418      956.17325      3375         
      2490  -56.71371       0.32242136    -56.391288      0.029520714    277.15113     -318.79764      3375         
      2500  -56.640847      0.24562811    -56.395219      0.029520714    211.1402      -667.52749      3375         
      2510  -56.770368      0.37133944    -56.399029      0.029520714    319.20077     -536.8955       3375         
      2520  -56.72271       0.31875909    -56.403951      0.029520714    274.00307      1188.3093      3375         
      2530  -56.727036      0.32078174    -56.406254      0.029520714    275.74173      1597.1974      3375         
      2540  -56.780643      0.37113153    -56.409512      0.029520714    319.02206     -1138.4168      3375         
      2550  -56.745436      0.33303392    -56.412402      0.029520714    286.27362     -1494.3747      3375         
      2560  -56.740765      0.32550887    -56.415256      0.029520714    279.80513      575.1563       3375         
      2570  -56.650172      0.23392369    -56.416248      0.029520714    201.07916      618.74907      3375         
      2580  -56.81259       0.39498571    -56.417604      0.029520714    339.52694     -216.22094      3375         
      2590  -56.663562      0.24619798    -56.417364      0.029520714    211.63005     -525.11889      3375         
      2600  -56.746342      0.32927735    -56.417065      0.029520714    283.0445      -822.96397      3375         
      2610  -56.705715      0.29070614    -56.415009      0.029520714    249.88895      238.49577      3375         
      2620  -56.887352      0.47500964    -56.412342      0.029520714    408.31494      332.74783      3375         
      2630  -56.669945      0.25975059    -56.410195      0.029520714    223.27978     -773.56808      3375         
      2640  -56.730388      0.32113415    -56.409254      0.029520714    276.04465      354.36578      3375         
      2650  -56.665446      0.26125584    -56.40419       0.029520714    224.57368      1781.441       3375         
      2660  -56.77411       0.37557337    -56.398537      0.029520714    322.84022      5.9214608      3375         
      2670  -56.678161      0.28931517    -56.388845      0.029520714    248.69328     -1023.9039      3375         
      2680  -56.759876      0.3830996     -56.376777      0.029520714    329.30972      40.769898      3375         
      2690  -56.735788      0.382838      -56.35295       0.029520714    329.08485      946.37636      3375         
      2700  -56.762432      0.4307676     -56.331664      0.029520714    370.28479      986.99364      3375         
      2710  -56.681946      0.3858069     -56.296139      0.029520714    331.6369      -715.11655      3375         
      2720  -56.578099      0.30986853    -56.26823       0.029520714    266.36081     -2228.7604      3375         
      2730  -56.744535      0.51508075    -56.229454      0.029520714    442.75979     -215.06082      3375         
      2740  -56.533398      0.34112443    -56.192274      0.029520714    293.22816      1367.8288      3375         
      2750  -56.653523      0.49961356    -56.153909      0.029520714    429.4643      -473.11299      3375         
      2760  -56.605983      0.48516181    -56.120821      0.029520714    417.04167     -747.34176      3375         
      2770  -56.780778      0.69537146    -56.085407      0.029520714    597.73642     -96.727438      3375         
      2780  -56.377558      0.31612844    -56.06143       0.029520714    271.74179      299.78922      3375         
      2790  -56.716592      0.66874466    -56.047847      0.029520714    574.84821      585.26952      3375         
      2800  -56.503437      0.46808627    -56.035351      0.029520714    402.36366      11.231899      3375         
      2810  -56.628561      0.59740901    -56.031152      0.029520714    513.52858      161.60454      3375         
      2820  -56.467479      0.43534042    -56.032138      0.029520714    374.21556      1974.7839      3375         
      2830  -56.633666      0.59565215    -56.038013      0.029520714    512.0184       238.82278      3375         
      2840  -56.503265      0.45552371    -56.047741      0.029520714    391.56497     -1846.2807      3375         
      2850  -56.727063      0.66027139    -56.066791      0.029520714    567.56464     -485.8576       3375         
      2860  -56.686977      0.588729      -56.098248      0.029520714    506.06731      789.56075      3375         
      2870  -56.530283      0.40907474    -56.121208      0.029520714    351.63777      399.3598       3375         
      2880  -56.629586      0.47219707    -56.157389      0.029520714    405.89728     -633.05823      3375         
      2890  -56.537578      0.35661945    -56.180958      0.029520714    306.54757     -1550.857       3375         
      2900  -56.673792      0.46559164    -56.2082        0.029520714    400.21929     -231.91226      3375         
      2910  -56.647959      0.40912349    -56.238835      0.029520714    351.67968      1563.432       3375         
      2920  -56.881469      0.60355797    -56.277911      0.029520714    518.81419      134.65834      3375         
      2930  -56.577129      0.27382439    -56.303305      0.029520714    235.37752     -1001.3953      3375         
      2940  -56.699088      0.37176092    -56.327328      0.029520714    319.56307     -31.213474      3375         
      2950  -56.643987      0.29800063    -56.345986      0.029520714    256.15924      714.08433      3375         
      2960  -56.790203      0.42868964    -56.361513      0.029520714    368.4986       24.039169      3375         
      2970  -56.587334      0.21073715    -56.376597      0.029520714    181.14817      13.829903      3375         
      2980  -56.842234      0.45378925    -56.388444      0.029520714    390.07405      418.70265      3375         
      2990  -56.760088      0.35814301    -56.401945      0.029520714    307.85721      883.64379      3375         
      3000  -56.719314      0.30647633    -56.412837      0.029520714    263.4449       179.30059      3375         
      3010  -56.655618      0.23434769    -56.42127       0.029520714    201.44363     -1314.6261      3375         
      3020  -56.763859      0.33814547    -56.425714      0.029520714    290.66747     -1103.0472      3375         
      3030  -56.76973       0.33727151    -56.432458      0.029520714    289.91621      1044.6789      3375         
      3040  -56.730155      0.29273861    -56.437416      0.029520714    251.63605      867.87773      3375         
      3050  -56.774764      0.33268893    -56.442075      0.029520714    285.97706     -964.02163      3375         
      3060  -56.693037      0.24884109    -56.444196      0.029520714    213.90205     -967.20903      3375         
      3070  -56.778631      0.33167336    -56.446958      0.029520714    285.10408     -114.15208      3375         
      3080  -56.693465      0.24566375    -56.447801      0.029520714    211.17083      656.1795       3375         
      3090  -56.809776      0.36186308    -56.447913      0.029520714    311.05496      622.02657      3375         
      3100  -56.73974       0.29279031    -56.44695       0.029520714    251.68049     -523.12092      3375         
      3110  -56.826509      0.37948151    -56.447028      0.029520714    326.19964     -186.81137      3375         
      3120  -56.630891      0.18530208    -56.445589      0.029520714    159.28436      1159.4625      3375         
      3130  -56.76784       0.32447764    -56.443362      0.029520714    278.9187      -125.47601      3375         
      3140  -56.693006      0.25467885    -56.438327      0.029520714    218.92015     -677.0552       3375         
      3150  -56.798291      0.36484479    -56.433446      0.029520714    313.61802      705.36359      3375         
      3160  -56.746448      0.32107154    -56.425376      0.029520714    275.99084      706.58381      3375         
      3170  -56.817279      0.39966186    -56.417617      0.029520714    343.54652     -333.34754      3375         
      3180  -56.691811      0.28365305    -56.408158      0.029520714    243.82617     -832.31806      3375         
      3190  -56.71823       0.31699522    -56.401235      0.029520714    272.48686     -993.783        3375         
      3200  -56.66508       0.27640284    -56.388677      0.029520714    237.59394      732.54318      3375         
      3210  -56.743372      0.36762765    -56.375745      0.029520714    316.01014      1250.8857      3375         
      3220  -56.78131       0.4261723     -56.355137      0.029520714    366.33471     -1254.807       3375         
      3230  -56.622894      0.2834521     -56.339442      0.029520714    243.65343     -1642.4295      3375         
      3240  -56.745811      0.43015427    -56.315656      0.029520714    369.75758      492.01722      3375         
      3250  -56.688924      0.39837995    -56.290544      0.029520714    342.4446       1028.9944      3375         
      3260  -56.744621      0.48111623    -56.263504      0.029520714    413.56413      347.39328      3375         
      3270  -56.447405      0.20540263    -56.242003      0.029520714    176.56265      42.379612      3375         
      3280  -56.771487      0.55813568    -56.213352      0.029520714    479.7695      -116.49596      3375         
      3290  -56.623498      0.43933004    -56.184167      0.029520714    377.64501      1125.4752      3375         
      3300  -56.707771      0.55365391    -56.154117      0.029520714    475.91701      622.34786      3375         
      3310  -56.437346      0.31011569    -56.127231      0.029520714    266.57327     -1227.2262      3375         
      3320  -56.862747      0.75466366    -56.108083      0.029520714    648.70357     -35.772804      3375         
      3330  -56.517462      0.43126454    -56.086197      0.029520714    370.71196      1623.0956      3375         
      3340  -56.552027      0.47694264    -56.075084      0.029520714    409.97653     -1139.4813      3375         
      3350  -56.541585      0.47361712    -56.067968      0.029520714    407.11794     -2152.021       3375         
      3360  -56.665142      0.60186426    -56.063278      0.029520714    517.35828     -797.29749      3375         
      3370  -56.507719      0.44415778    -56.063562      0.029520714    381.7949       72.388854      3375         
      3380  -56.597828      0.52823972    -56.069588      0.029520714    454.07115      1488.1009      3375         
      3390  -56.785523      0.70337196    -56.082151      0.029520714    604.61359      521.57213      3375         
      3400  -56.530011      0.42790783    -56.102103      0.029520714    367.82656     -1473.6264      3375         
      3410  -56.669178      0.53781436    -56.131364      0.029520714    462.30144      609.54315      3375         
      3420  -56.552061      0.39665861    -56.155403      0.029520714    340.96495      2045.5611      3375         
      3430  -56.663541      0.4732059     -56.190335      0.029520714    406.76446     -304.49054      3375         
      3440  -56.588779      0.36302536    -56.225753      0.029520714    312.05405     -411.49062      3375         
      3450  -56.746203      0.48047742    -56.265725      0.029520714    413.01501      47.714534      3375         
      3460  -56.572118      0.27343303    -56.298685      0.029520714    235.04111     -336.99251      3375         
      3470  -56.851532      0.51455408    -56.336978      0.029520714    442.30706     -49.961198      3375         
      3480  -56.713205      0.33671473    -56.37649       0.029520714    289.43761     -401.95269      3375         
      3490  -56.697206      0.30029228    -56.396913      0.029520714    258.12913     -152.94542      3375         
      3500  -56.656555      0.2453055     -56.411249      0.029520714    210.86288      1589.3239      3375         
      3510  -56.836793      0.41256703    -56.424226      0.029520714    354.63972      32.113131      3375         
      3520  -56.682138      0.24784477    -56.434293      0.029520714    213.04562     -2035.3768      3375         
      3530  -56.753404      0.31451914    -56.438885      0.029520714    270.35844     -786.10838      3375         
      3540  -56.803388      0.35975306    -56.443635      0.029520714    309.2412       607.19116      3375         
      3550  -56.762443      0.31528403    -56.447159      0.029520714    271.01593      611.36581      3375         
      3560  -56.723212      0.27347501    -56.449737      0.029520714    235.0772       254.87061      3375         
      3570  -56.671471      0.22187252    -56.449598      0.029520714    190.72006     -345.26655      3375         
      3580  -56.794462      0.3458153     -56.448646      0.029520714    297.2604       264.35337      3375         
      3590  -56.811387      0.36366138    -56.447725      0.029520714    312.60077      1341.5401      3375         
      3600  -56.762079      0.31593444    -56.446145      0.029520714    271.57503      58.043361      3375         
      3610  -56.626073      0.18247355    -56.443599      0.029520714    156.85298     -980.00399      3375         
      3620  -56.845565      0.40479746    -56.440768      0.029520714    347.96105      129.79743      3375         
      3630  -56.724326      0.28826145    -56.436064      0.029520714    247.78751      403.50125      3375         
      3640  -56.721838      0.29124205    -56.430596      0.029520714    250.34961     -761.76846      3375         
      3650  -56.753623      0.32922       -56.424403      0.029520714    282.99519     -618.03153      3375         
      3660  -56.873098      0.45500628    -56.418091      0.029520714    391.1202      -4.0757655      3375         
      3670  -56.592816      0.18254734    -56.410268      0.029520714    156.91641      675.17465      3375         
      3680  -56.670421      0.26566175    -56.40476       0.029520714    228.36097      644.26217      3375         
      3690  -56.774943      0.37895547    -56.395987      0.029520714    325.74746     -949.36582      3375         
      3700  -56.780024      0.3953947     -56.384629      0.029520714    339.8785      -1130.3849      3375         
      3710  -56.690691      0.32003437    -56.370657      0.029520714    275.0993       972.4976       3375         
      3720  -56.73853       0.37600865    -56.362522      0.029520714    323.21439      741.93297      3375         
      3730  -56.73455       0.38348259    -56.351067      0.029520714    329.63893     -716.81023      3375         
      3740  -56.622662      0.28402697    -56.338635      0.029520714    244.14759     -232.81665      3375         
      3750  -56.647212      0.31923987    -56.327972      0.029520714    274.41635      300.17813      3375         
      3760  -56.652621      0.3335121     -56.319109      0.029520714    286.68465      665.92188      3375         
      3770  -56.749492      0.44863121    -56.300861      0.029520714    385.64023      814.04125      3375         
      3780  -56.689253      0.40504131    -56.284212      0.029520714    348.17066     -110.30812      3375         
      3790  -56.749951      0.47747828    -56.272473      0.029520714    410.43697     -17.559976      3375         
      3800  -56.617375      0.35668091    -56.260694      0.029520714    306.6004       700.9167       3375         
      3810  -56.639496      0.39060515    -56.248891      0.029520714    335.76144     -1067.5985      3375         
      3820  -56.571636      0.3306067     -56.24103       0.029520714    284.18719     -1867.4623      3375         
      3830  -56.652657      0.4198772     -56.23278       0.029520714    360.92349     -244.16356      3375         
      3840  -56.670622      0.45127871    -56.219343      0.029520714    387.916        537.17228      3375         
      3850  -56.801226      0.5894442     -56.211782      0.029520714    506.68209      142.56785      3375         
      3860  -56.578872      0.37107562    -56.207796      0.029520714    318.97399     -211.73196      3375         
      3870  -56.581262      0.37641367    -56.204848      0.029520714    323.56255     -327.08115      3375         
      3880  -56.703799      0.50041287    -56.203386      0.029520714    430.15138      1003.5782      3375         
      3890  -56.74259       0.53559657    -56.206994      0.029520714    460.39504      1584.9852      3375         
      3900  -56.556831      0.34523976    -56.211591      0.029520714    296.76567     -288.6809       3375         
      3910  -56.555314      0.33849321    -56.21682       0.029520714    290.96639     -847.85638      3375         
      3920  -56.741545      0.51367818    -56.227867      0.029520714    441.55415      407.25497      3375         
      3930  -56.702522      0.4617892     -56.240733      0.029520714    396.95075      219.71511      3375         
      3940  -56.663495      0.40393726    -56.259558      0.029520714    347.22162     -375.30636      3375         
      3950  -56.700042      0.41578923    -56.284253      0.029520714    357.4095       41.780013      3375         
      3960  -56.810611      0.49648019    -56.314131      0.029520714    426.77088     -200.16419      3375         
      3970  -56.594832      0.25435629    -56.340476      0.029520714    218.64288      34.799846      3375         
      3980  -56.653951      0.28674847    -56.367202      0.029520714    246.48697      33.092317      3375         
      3990  -56.73339       0.34006982    -56.39332       0.029520714    292.32162     -1261.9905      3375         
      4000  -56.790666      0.37294853    -56.417718      0.029520714    320.58393     -500.72444      3375         
      4010  -56.721179      0.27428937    -56.44689       0.029520714    235.77721      1183.9799      3375         
      4020  -56.832712      0.36196318    -56.470749      0.029520714    311.141        181.31757      3375         
      4030  -56.823228      0.33241271    -56.490815      0.029520714    285.73962     -542.34354      3375         
      4040  -56.692519      0.18788502    -56.504634      0.029520714    161.50464      101.08333      3375         
      4050  -56.681551      0.16624784    -56.515303      0.029520714    142.90548      319.72241      3375         
      4060  -56.792763      0.27276011    -56.520002      0.029520714    234.46267      875.14583      3375         
      4070  -56.842064      0.31693102    -56.525133      0.029520714    272.43167      390.65952      3375         
      4080  -56.802851      0.27197007    -56.530881      0.029520714    233.78356     -777.14273      3375         
      4090  -56.828548      0.29318481    -56.535363      0.029520714    252.0196       181.50839      3375         
      4100  -56.75266       0.21692566    -56.535734      0.029520714    186.46777      499.35516      3375         
      4110  -56.780007      0.2450087     -56.534998      0.029520714    210.60776     -921.14871      3375         
      4120  -56.764136      0.229669      -56.534467      0.029520714    197.42186     -556.82899      3375         
      4130  -56.817201      0.28502454    -56.532176      0.029520714    245.00509      61.194875      3375         
      4140  -56.75693       0.23143484    -56.525495      0.029520714    198.93976     -22.799936      3375         
      4150  -56.849707      0.32987251    -56.519834      0.029520714    283.55609      248.93205      3375         
      4160  -56.755893      0.24121284    -56.51468       0.029520714    207.34486     -347.37505      3375         
      4170  -56.739088      0.23196143    -56.507127      0.029520714    199.39241     -297.64846      3375         
      4180  -56.801         0.30599137    -56.495008      0.029520714    263.02803      1142.7995      3375         
      4190  -56.851629      0.36621703    -56.485412      0.029520714    314.79758      303.69199      3375         
      4200  -56.662594      0.18829796    -56.474297      0.029520714    161.8596      -1109.8139      3375         
      4210  -56.729215      0.26723668    -56.461979      0.029520714    229.71477     -269.21232      3375         
      4220  -56.842358      0.39564778    -56.44671       0.029520714    340.09605      660.82799      3375         
      4230  -56.697338      0.26312886    -56.434209      0.029520714    226.18372      768.03701      3375         
      4240  -56.646931      0.22944098    -56.41749       0.029520714    197.22586      436.99021      3375         
      4250  -56.809616      0.40841228    -56.401204      0.029520714    351.06832     -517.69569      3375         
      4260  -56.823714      0.44159013    -56.382124      0.029520714    379.58777     -180.08658      3375         
      4270  -56.622952      0.25635273    -56.366599      0.029520714    220.359        709.43249      3375         
      4280  -56.714337      0.36185486    -56.352482      0.029520714    311.04789     -730.34205      3375         
      4290  -56.696001      0.35473371    -56.341267      0.029520714    304.92661     -1290.3294      3375         
      4300  -56.669563      0.34037468    -56.329188      0.029520714    292.58368      311.18941      3375         
      4310  -56.58524       0.26737086    -56.31787       0.029520714    229.83011      395.11584      3375         
      4320  -56.839289      0.53093421    -56.308355      0.029520714    456.38731     -627.38459      3375         
      4330  -56.768828      0.46991099    -56.298917      0.029520714    403.93218     -454.59877      3375         
      4340  -56.673641      0.37981277    -56.293828      0.029520714    326.48438     -99.673945      3375         
      4350  -56.569737      0.27793636    -56.2918        0.029520714    238.91214      1128.0843      3375         
      4360  -56.714427      0.42421782    -56.290209      0.029520714    364.65465      1329.0494      3375         
      4370  -56.653285      0.36641908    -56.286866      0.029520714    314.97126     -678.59183      3375         
      4380  -56.663255      0.37723788    -56.286017      0.029520714    324.27103     -736.57893      3375         
      4390  -56.728651      0.44161514    -56.287036      0.029520714    379.60926      1071.0904      3375         
      4400  -56.742966      0.45462251    -56.288343      0.029520714    390.79031      580.86866      3375         
      4410  -56.668538      0.37695767    -56.29158       0.029520714    324.03016     -339.52396      3375         
      4420  -56.659035      0.36272185    -56.296313      0.029520714    311.79315     -373.54231      3375         
      4430  -56.726201      0.42518489    -56.301016      0.029520714    365.48594     -546.18759      3375         
      4440  -56.613114      0.30952253    -56.303591      0.029520714    266.06339      54.865895      3375         
      4450  -56.707136      0.39790912    -56.309227      0.029520714    342.03988     -280.64643      3375         
      4460  -56.633394      0.31990245    -56.313491      0.029520714    274.9859      -1274.608       3375         
      4470  -56.767098      0.44997687    -56.317121      0.029520714    386.79695      83.642553      3375         
      4480  -56.686811      0.3636999     -56.323111      0.029520714    312.63388      1133.0637      3375         
      4490  -56.753495      0.42195579    -56.331539      0.029520714    362.71023     -306.63177      3375         
      4500  -56.600606      0.26495477    -56.335651      0.029520714    227.75326     -565.64533      3375         
      4510  -56.742398      0.40207746    -56.340321      0.029520714    345.62296      536.04642      3375         
      4520  -56.720062      0.37132349    -56.348739      0.029520714    319.18706      1237.9188      3375         
      4530  -56.706626      0.3526106     -56.354015      0.029520714    303.10159      779.05893      3375         
      4540  -56.560956      0.20481853    -56.356137      0.029520714    176.06056     -356.65905      3375         
      4550  -56.823719      0.46286076    -56.360858      0.029520714    397.87185     -872.14985      3375         
      4560  -56.861774      0.4936031     -56.368171      0.029520714    424.29775      189.8388       3375         
      4570  -56.65952       0.28613159    -56.373388      0.029520714    245.9567       429.73432      3375         
      4580  -56.679215      0.29880995    -56.380405      0.029520714    256.85493     -837.04672      3375         
      4590  -56.754443      0.36843092    -56.386012      0.029520714    316.70063     -787.33637      3375         
      4600  -56.661864      0.27202813    -56.389836      0.029520714    233.83347      556.12893      3375         
      4610  -56.629199      0.23683464    -56.392365      0.029520714    203.58139      468.75895      3375         
      4620  -56.914009      0.51602457    -56.397984      0.029520714    443.57109     -469.19302      3375         
      4630  -56.749476      0.34641788    -56.403058      0.029520714    297.77837     -670.62812      3375         
      4640  -56.681229      0.27268201    -56.408547      0.029520714    234.39554     -355.12201      3375         
      4650  -56.695354      0.28178703    -56.413567      0.029520714    242.22214      668.52141      3375         
      4660  -56.81676       0.39828585    -56.418474      0.029520714    342.36371      471.62507      3375         
      4670  -56.607933      0.18603184    -56.421901      0.029520714    159.91166     -560.63945      3375         
      4680  -56.744137      0.31794658    -56.42619       0.029520714    273.30464      541.53612      3375         
      4690  -56.799446      0.3690989     -56.430347      0.029520714    317.27482      1603.6762      3375         
      4700  -56.834234      0.39845709    -56.435777      0.029520714    342.51091      65.084678      3375         
      4710  -56.681221      0.23840898    -56.442812      0.029520714    204.93468     -723.3011       3375         
      4720  -56.733657      0.28465311    -56.449004      0.029520714    244.68581     -514.81103      3375         
      4730  -56.733767      0.27883679    -56.45493       0.029520714    239.68614     -400.89348      3375         
      4740  -56.778229      0.3162941     -56.461934      0.029520714    271.88419      188.27538      3375         
      4750  -56.784025      0.31196073    -56.472064      0.029520714    268.15925     -391.23452      3375         
      4760  -56.748977      0.26957384    -56.479403      0.029520714    231.72377     -901.22982      3375         
      4770  -56.765848      0.27783528    -56.488012      0.029520714    238.82525      662.77347      3375         
      4780  -56.726457      0.23120147    -56.495255      0.029520714    198.73915      910.49786      3375         
      4790  -56.78839       0.28537562    -56.503015      0.029520714    245.30687     -616.43422      3375         
      4800  -56.777155      0.26863673    -56.508518      0.029520714    230.91824     -447.95522      3375         
      4810  -56.867818      0.35172599    -56.516092      0.029520714    302.34118      268.62748      3375         
      4820  -56.742254      0.2196754     -56.522579      0.029520714    188.83142      418.43158      3375         
      4830  -56.769596      0.24239901    -56.527197      0.029520714    208.36448      154.67936      3375         
      4840  -56.695895      0.16730504    -56.52859       0.029520714    143.81423     -598.25402      3375         
      4850  -56.838433      0.30880128    -56.529632      0.029520714    265.44341     -165.27881      3375         
      4860  -56.788743      0.25921811    -56.529525      0.029520714    222.82207      1431.5315      3375         
      4870  -56.829151      0.30065976    -56.528491      0.029520714    258.44501      650.15281      3375         
      4880  -56.773407      0.24853261    -56.524874      0.029520714    213.63688     -768.47063      3375         
      4890  -56.862177      0.34111978    -56.521057      0.029520714    293.22416     -102.46988      3375         
      4900  -56.729081      0.21272488    -56.516356      0.029520714    182.85681      180.50648      3375         
      4910  -56.685486      0.1738112     -56.511675      0.029520714    149.40689     -616.28692      3375         
      4920  -56.779589      0.27818732    -56.501402      0.029520714    239.12787     -799.85407      3375         
      4930  -56.824052      0.3344249     -56.489628      0.029520714    287.46929     -1128.492       3375         
      4940  -56.756319      0.28135538    -56.474963      0.029520714    241.8511      -283.65679      3375         
      4950  -56.759948      0.30162027    -56.458328      0.029520714    259.27066      1400.9316      3375         
      4960  -56.863854      0.42553031    -56.438324      0.029520714    365.78286      421.15719      3375         
      4970  -56.622563      0.19907138    -56.423491      0.029520714    171.12036     -215.68572      3375         
      4980  -56.654801      0.24658868    -56.408213      0.029520714    211.9659       1134.0969      3375         
      4990  -56.77211       0.38461436    -56.387496      0.029520714    330.6118       744.63053      3375         
      5000  -56.841049      0.47792826    -56.363121      0.029520714    410.82377     -488.35081      3375         
      5010  -56.551344      0.20822053    -56.343123      0.029520714    178.9849      -449.89382      3375         
      5020  -56.692022      0.3644952     -56.327527      0.029520714    313.31751     -725.28485      3375         
      5030  -56.739589      0.43164605    -56.307943      0.029520714    371.03991      215.29043      3375         
      5040  -56.752915      0.46473339    -56.288182      0.029520714    399.48155      711.59004      3375         
      5050  -56.580002      0.3084606     -56.271541      0.029520714    265.15056     -819.99287      3375         
      5060  -56.741367      0.48036428    -56.261003      0.029520714    412.91776     -190.49722      3375         
      5070  -56.684563      0.4366953     -56.247867      0.029520714    375.38021      1157.1326      3375         
      5080  -56.598562      0.35922356    -56.239339      0.029520714    308.78604     -476.65387      3375         
      5090  -56.609561      0.37675489    -56.232806      0.029520714    323.85585     -1295.9837      3375         
      5100  -56.70261       0.47562484    -56.226986      0.029520714    408.84377     -766.34106      3375         
      5110  -56.766913      0.54454833    -56.222364      0.029520714    468.08991     -266.58888      3375         
      5120  -56.657622      0.43428101    -56.223341      0.029520714    373.3049       1022.4836      3375         
      5130  -56.631807      0.40446359    -56.227343      0.029520714    347.67405      933.83709      3375         
      5140  -56.565598      0.33544986    -56.230148      0.029520714    288.35034      85.058664      3375         
      5150  -56.661876      0.42734717    -56.234529      0.029520714    367.34462      1012.3535      3375         
      5160  -56.62412       0.38356289    -56.240557      0.029520714    329.70796      1065.882       3375         
      5170  -56.734497      0.48588366    -56.248613      0.029520714    417.66218     -783.74367      3375         
      5180  -56.70811       0.4488961     -56.259214      0.029520714    385.86793     -1165.9232      3375         
      5190  -56.744748      0.46824099    -56.276507      0.029520714    402.49666     -236.46123      3375         
      5200  -56.570156      0.27864194    -56.291514      0.029520714    239.51865      48.417266      3375         
      5210  -56.640593      0.33919152    -56.301402      0.029520714    291.56665     -186.23972      3375         
      5220  -56.697665      0.37981482    -56.31785       0.029520714    326.48615     -737.23678      3375         
      5230  -56.753603      0.41557097    -56.338032      0.029520714    357.22188     -731.23442      3375         
      5240  -56.713163      0.35580795    -56.357355      0.029520714    305.85001      866.05633      3375         
      5250  -56.718628      0.34328894    -56.375339      0.029520714    295.08876      1224.6643      3375         
      5260  -56.770323      0.36690671    -56.403417      0.029520714    315.39043     -419.05167      3375         
      5270  -56.734945      0.31180128    -56.423143      0.029520714    268.02219     -580.42554      3375         
      5280  -56.665746      0.22695199    -56.438794      0.029520714    195.08633      459.24158      3375         
      5290  -56.70578       0.2492931     -56.456487      0.029520714    214.2906       238.44199      3375         
      5300  -56.891547      0.41275716    -56.478789      0.029520714    354.80315     -159.43291      3375         
      5310  -56.723257      0.22896951    -56.494287      0.029520714    196.82058     -243.60888      3375         
      5320  -56.724564      0.21582219    -56.508742      0.029520714    185.51924     -85.313499      3375         
      5330  -56.808282      0.28596353    -56.522318      0.029520714    245.81224      790.89812      3375         
      5340  -56.835613      0.30277771    -56.532835      0.029520714    260.26559      476.04524      3375         
      5350  -56.698091      0.15786677    -56.540224      0.029520714    135.70116     -524.2027       3375         
      5360  -56.889822      0.34095653    -56.548865      0.029520714    293.08383     -39.849792      3375         
      5370  -56.880204      0.32372409    -56.556479      0.029520714    278.27095      255.55416      3375         
      5380  -56.700326      0.14084929    -56.559477      0.029520714    121.07306     -697.08895      3375         
      5390  -56.692254      0.13144042    -56.560814      0.029520714    112.98526     -913.37732      3375         
      5400  -56.899683      0.33859063    -56.561092      0.029520714    291.05013     -424.92373      3375         
      5410  -56.838606      0.28037054    -56.558235      0.029520714    241.00454      339.63589      3375         
      5420  -56.761327      0.20604662    -56.55528       0.029520714    177.11622      950.30235      3375         
      5430  -56.843313      0.29063932    -56.552674      0.029520714    249.83151      62.423143      3375         
      5440  -56.815056      0.26645114    -56.548605      0.029520714    229.03952     -516.58637      3375         
      5450  -56.727141      0.18433558    -56.542806      0.029520714    158.45357      676.26228      3375         
      5460  -56.716758      0.17752406    -56.539234      0.029520714    152.59843      881.54557      3375         
      5470  -56.813069      0.27861356    -56.534455      0.029520714    239.49426     -393.80963      3375         
      5480  -56.792507      0.26545203    -56.527055      0.029520714    228.1807      -422.7317       3375         
      5490  -56.862692      0.34250315    -56.520189      0.029520714    294.4133       1.780823       3375         
      5500  -56.777766      0.26243084    -56.515335      0.029520714    225.5837       59.287539      3375         
      5510  -56.777809      0.26712217    -56.510687      0.029520714    229.61634      147.91024      3375         
      5520  -56.688033      0.18293737    -56.505096      0.029520714    157.25168     -291.08232      3375         
      5530  -56.781477      0.28080285    -56.500674      0.029520714    241.37616     -428.14285      3375         
      5540  -56.781142      0.28746951    -56.493673      0.029520714    247.10677      628.69033      3375         
      5550  -56.817414      0.33216249    -56.485251      0.029520714    285.52454     -115.22696      3375         
      5560  -56.733604      0.25653945    -56.477064      0.029520714    220.51951     -1477.2141      3375         
      5570  -56.751196      0.27988693    -56.471309      0.029520714    240.58884     -342.45664      3375         
      5580  -56.754154      0.29229119    -56.461863      0.029520714    251.25145      892.83508      3375         
      5590  -56.792461      0.34080388    -56.451657      0.029520714    292.95262      695.17646      3375         
      5600  -56.771572      0.33139094    -56.440181      0.029520714    284.86132      318.31824      3375         
      5610  -56.67368       0.24124933    -56.432431      0.029520714    207.37623     -418.26497      3375         
      5620  -56.684748      0.26299652    -56.421751      0.029520714    226.06996      129.57677      3375         
      5630  -56.777606      0.36866321    -56.408943      0.029520714    316.9003       1391.0161      3375         
      5640  -56.802191      0.40832587    -56.393866      0.029520714    350.99405     -68.531834      3375         
      5650  -56.650884      0.26925194    -56.381632      0.029520714    231.44708     -806.41916      3375         
      5660  -56.783867      0.41755022    -56.366316      0.029520714    358.92323      293.35151      3375         
      5670  -56.748058      0.39554202    -56.352516      0.029520714    340.00513     -486.23435      3375         
      5680  -56.667991      0.32682809    -56.341163      0.029520714    280.93912     -1196.5438      3375         
      5690  -56.543605      0.21404568    -56.329559      0.029520714    183.99216     -401.30866      3375         
      5700  -56.786688      0.46884664    -56.317841      0.029520714    403.01727     -158.23961      3375         
      5710  -56.713872      0.41183425    -56.302038      0.029520714    354.00983      1051.0524      3375         
      5720  -56.671442      0.3833638     -56.288078      0.029520714    329.53683      947.70573      3375         
      5730  -56.691379      0.41561971    -56.27576       0.029520714    357.26378     -1166.3259      3375         
      5740  -56.815176      0.54814201    -56.267034      0.029520714    471.17902     -590.1309       3375         
      5750  -56.51616       0.25857109    -56.257589      0.029520714    222.26589      1429.6645      3375         
      5760  -56.498511      0.24536253    -56.253148      0.029520714    210.91191      605.78601      3375         
      5770  -56.746717      0.50046583    -56.246251      0.029520714    430.1969      -459.61348      3375         
      5780  -56.692236      0.4556171     -56.236619      0.029520714    391.64525     -425.77197      3375         
      5790  -56.643108      0.41288455    -56.230224      0.029520714    354.91266      9.5376503      3375         
      5800  -56.744385      0.51524173    -56.229143      0.029520714    442.89817      873.25869      3375         
      5810  -56.71615       0.48730931    -56.228841      0.029520714    418.88765      214.99935      3375         
      5820  -56.47616       0.24643827    -56.229722      0.029520714    211.83661     -1019.4898      3375         
      5830  -56.679165      0.44519873    -56.233967      0.029520714    382.6897      -83.478022      3375         
      5840  -56.643326      0.40670339    -56.236623      0.029520714    349.59937      487.57165      3375         
      5850  -56.726832      0.48398812    -56.242844      0.029520714    416.03278     -986.53121      3375         
      5860  -56.660905      0.40558572    -56.255319      0.029520714    348.63863     -764.53648      3375         
      5870  -56.703932      0.43585865    -56.268074      0.029520714    374.66103      513.83555      3375         
      5880  -56.584662      0.30298136    -56.281681      0.029520714    260.44064      817.12635      3375         
      5890  -56.752789      0.44996579    -56.302823      0.029520714    386.78743      347.04299      3375         
      5900  -56.657307      0.33050074    -56.326806      0.029520714    284.09611     -831.92938      3375         
      5910  -56.688323      0.34257247    -56.345751      0.029520714    294.47289     -835.05466      3375         
      5920  -56.737851      0.36119072    -56.37666       0.029520714    310.477        1202.7151      3375         
      5930  -56.792631      0.38498185    -56.407649      0.029520714    330.92769      1126.9762      3375         
      5940  -56.68588       0.25085702    -56.435023      0.029520714    215.63493     -653.99041      3375         
      5950  -56.687097      0.23456565    -56.452531      0.029520714    201.63098     -499.37742      3375         
      5960  -56.81266       0.33647653    -56.476184      0.029520714    289.23286      190.22666      3375         
      5970  -56.822587      0.32598382    -56.496603      0.029520714    280.2134       307.96606      3375         
      5980  -56.793071      0.27720872    -56.515862      0.029520714    238.28667      276.19673      3375         
      5990  -56.766036      0.2384828     -56.527553      0.029520714    204.99814     -358.08936      3375         
      6000  -56.820357      0.28092977    -56.539427      0.029520714    241.48525     -216.39536      3375         
      6010  -56.701223      0.15642181    -56.544802      0.029520714    134.45909      408.13788      3375         
      6020  -56.784963      0.2367129     -56.54825       0.029520714    203.47674     -781.47915      3375         
      6030  -56.83437       0.28368656    -56.550683      0.029520714    243.85497     -1121.84        3375         
      6040  -56.910153      0.35720659    -56.552947      0.029520714    307.05227      380.08011      3375         
      6050  -56.730462      0.17731553    -56.553147      0.029520714    152.41918      807.46289      3375         
      6060  -56.769097      0.21659433    -56.552503      0.029520714    186.18296      121.56829      3375         
      6070  -56.765967      0.21614207    -56.549825      0.029520714    185.7942      -322.14138      3375         
      6080  -56.832282      0.28646807    -56.545814      0.029520714    246.24593     -162.96031      3375         
      6090  -56.741568      0.20237823    -56.53919       0.029520714    173.9629       1049.5277      3375         
      6100  -56.810209      0.27698125    -56.533228      0.029520714    238.09113      1143.8003      3375         
      6110  -56.842455      0.31834245    -56.524113      0.029520714    273.64493     -544.31756      3375         
      6120  -56.782724      0.26788754    -56.514836      0.029520714    230.27425     -937.45264      3375         
      6130  -56.709133      0.2038007     -56.505332      0.029520714    175.18565      15.614783      3375         
      6140  -56.758565      0.2605387     -56.498026      0.029520714    223.95723     -95.732229      3375         
      6150  -56.827522      0.3431887     -56.484333      0.029520714    295.0026      -477.07766      3375         
      6160  -56.720165      0.24948943    -56.470676      0.029520714    214.45936      23.490984      3375         
      6170  -56.797644      0.33888894    -56.458755      0.029520714    291.30655      288.06852      3375         
      6180  -56.742971      0.29661039    -56.446361      0.029520714    254.96421      318.76761      3375         
      6190  -56.754009      0.32198675    -56.432023      0.029520714    276.77754     -361.66518      3375         
      6200  -56.653056      0.23181288    -56.421243      0.029520714    199.26472     -1197.6003      3375         
      6210  -56.810401      0.39972067    -56.41068       0.029520714    343.59708     -142.91465      3375         
      6220  -56.787915      0.39261535    -56.3953        0.029520714    337.4894       1483.6869      3375         
      6230  -56.746822      0.3618877     -56.384934      0.029520714    311.07612      368.86792      3375         
      6240  -56.562242      0.18346564    -56.378777      0.029520714    157.70577     -490.42577      3375         
      6250  -56.728348      0.3561064     -56.372242      0.029520714    306.10656      544.60858      3375         
      6260  -56.75311       0.39196008    -56.36115       0.029520714    336.92613      885.68609      3375         
      6270  -56.779404      0.42454089    -56.354863      0.029520714    364.93236      358.66107      3375         
      6280  -56.700645      0.35135527    -56.34929       0.029520714    302.02252     -372.52371      3375         
      6290  -56.727452      0.38234796    -56.345104      0.029520714    328.66361     -1496.9471      3375         
      6300  -56.691068      0.34829963    -56.342768      0.029520714    299.39591     -515.69041      3375         
      6310  -56.582293      0.24181972    -56.340473      0.029520714    207.86653      557.70386      3375         
      6320  -56.708243      0.37149114    -56.336751      0.029520714    319.33117     -767.44554      3375         
      6330  -56.780327      0.44721705    -56.33311       0.029520714    384.42463     -399.04448      3375         
      6340  -56.795435      0.46346284    -56.331972      0.029520714    398.3894       978.67525      3375         
      6350  -56.608261      0.27644879    -56.331812      0.029520714    237.63344      432.53778      3375         
      6360  -56.720098      0.38767384    -56.332424      0.029520714    333.24171     -142.63115      3375         
      6370  -56.656562      0.32428368    -56.332279      0.029520714    278.75197     -145.15649      3375         
[...]
    288420  -56.45288       0.34751423    -56.105365      0.029520714    298.72079     -325.85841      3375         
    288430  -56.509781      0.41453346    -56.095247      0.029520714    356.33005     -396.09571      3375         
    288440  -56.576841      0.49000974    -56.086832      0.029520714    421.20892     -834.80002      3375         
    288450  -56.548401      0.46851511    -56.079886      0.029520714    402.73229     -359.0709       3375         
    288460  -56.628303      0.55241751    -56.075886      0.029520714    474.85421      1005.6637      3375         
    288470  -56.736848      0.65626805    -56.08058       0.029520714    564.1234       77.858298      3375         
    288480  -56.634558      0.54115648    -56.093402      0.029520714    465.1743      -722.88878      3375         
    288490  -56.616451      0.50250964    -56.113941      0.029520714    431.95375      262.83419      3375         
    288500  -56.729537      0.58513372    -56.144404      0.029520714    502.97683      344.25293      3375         
    288510  -56.576932      0.39952593    -56.177406      0.029520714    343.42968      454.64663      3375         
    288520  -56.620365      0.40824862    -56.212116      0.029520714    350.92764      667.38696      3375         
    288530  -56.716184      0.46280422    -56.253379      0.029520714    397.82325     -704.0751       3375         
    288540  -56.594111      0.305082      -56.289029      0.029520714    262.24634     -1089.2237      3375         
    288550  -56.613999      0.29638663    -56.317613      0.029520714    254.77186     -245.98057      3375         
    288560  -56.716264      0.37164205    -56.344622      0.029520714    319.46089     -491.65623      3375         
    288570  -56.653228      0.28581419    -56.367414      0.029520714    245.68387      34.351231      3375         
    288580  -56.69028       0.30534889    -56.384931      0.029520714    262.47576      1005.1301      3375         
    288590  -56.766172      0.36578885    -56.400383      0.029520714    314.42953      293.58427      3375         
    288600  -56.743274      0.33053304    -56.412741      0.029520714    284.12388     -156.26845      3375         
    288610  -56.813068      0.38833427    -56.424734      0.029520714    333.80941      163.44651      3375         
    288620  -56.837552      0.40202035    -56.435531      0.029520714    345.57386      147.38171      3375         
    288630  -56.755895      0.311793      -56.444102      0.029520714    268.01507      473.52493      3375         
    288640  -56.816639      0.3644674     -56.452172      0.029520714    313.29361      306.78405      3375         
    288650  -56.82981       0.37032659    -56.459484      0.029520714    318.33013     -969.04702      3375         
    288660  -56.706016      0.24180213    -56.464213      0.029520714    207.85141     -892.46295      3375         
    288670  -56.746885      0.27876649    -56.468119      0.029520714    239.62571      220.5639       3375         
    288680  -56.729654      0.25979795    -56.469856      0.029520714    223.32049      565.55592      3375         
    288690  -56.707882      0.23842913    -56.469453      0.029520714    204.952        573.36302      3375         
    288700  -56.810244      0.34164997    -56.468594      0.029520714    293.67991      146.76636      3375         
    288710  -56.824977      0.35768588    -56.467291      0.029520714    307.46427     -723.25042      3375         
    288720  -56.72523       0.26023077    -56.464999      0.029520714    223.69254     -618.13582      3375         
    288730  -56.762245      0.29961475    -56.46263       0.029520714    257.54673     -116.58288      3375         
    288740  -56.75235       0.292855      -56.459495      0.029520714    251.7361      -200.31255      3375         
    288750  -56.701835      0.24689806    -56.454937      0.029520714    212.23184      294.34102      3375         
    288760  -56.741861      0.29307049    -56.448791      0.029520714    251.92133      758.13391      3375         
    288770  -56.708807      0.26637712    -56.44243       0.029520714    228.9759       83.311653      3375         
    288780  -56.700025      0.26587712    -56.434148      0.029520714    228.5461      -88.894691      3375         
    288790  -56.81589       0.39398401    -56.421906      0.029520714    338.66588      565.22511      3375         
    288800  -56.825979      0.41788644    -56.408092      0.029520714    359.21225      605.57258      3375         
    288810  -56.704334      0.30854942    -56.395785      0.029520714    265.22691      134.88975      3375         
    288820  -56.663301      0.27873589    -56.384565      0.029520714    239.59941     -787.79181      3375         
    288830  -56.659013      0.28497025    -56.374043      0.029520714    244.95842     -1473.0491      3375         
    288840  -56.718744      0.36022421    -56.35852       0.029520714    309.6462      -654.42408      3375         
    288850  -56.759819      0.42071089    -56.339108      0.029520714    361.64012      568.88865      3375         
    288860  -56.75335       0.43271831    -56.320632      0.029520714    371.96161      622.42728      3375         
    288870  -56.775434      0.47498985    -56.300444      0.029520714    408.29793      321.78415      3375         
    288880  -56.833524      0.5516788     -56.281845      0.029520714    474.21921      83.426997      3375         
    288890  -56.778706      0.51055752    -56.268148      0.029520714    438.87165     -186.28545      3375         
    288900  -56.627865      0.36939232    -56.258473      0.029520714    317.52704     -290.79819      3375         
    288910  -56.587724      0.33508705    -56.252637      0.029520714    288.03847     -48.158071      3375         
    288920  -56.548902      0.30186646    -56.247036      0.029520714    259.48228      333.79345      3375         
    288930  -56.592584      0.35503996    -56.237544      0.029520714    305.18985      507.58559      3375         
    288940  -56.662194      0.43536509    -56.226828      0.029520714    374.23676     -6.7499567      3375         
    288950  -56.560267      0.34281631    -56.217451      0.029520714    294.68248     -437.93693      3375         
    288960  -56.575633      0.37017023    -56.205462      0.029520714    318.19573     -19.178568      3375         
    288970  -56.695924      0.5053711     -56.190553      0.029520714    434.41344      756.36319      3375         
    288980  -56.693797      0.51839465    -56.175403      0.029520714    445.6084       654.63578      3375         
    288990  -56.612849      0.4529912     -56.159857      0.029520714    389.38805     -333.18681      3375         
    289000  -56.690643      0.54386592    -56.146777      0.029520714    467.50332     -1030.5847      3375         
    289010  -56.647879      0.51182397    -56.136055      0.029520714    439.96029     -824.95803      3375         
    289020  -56.642662      0.51587467    -56.126787      0.029520714    443.44224     -278.78523      3375         
    289030  -56.738237      0.61458845    -56.123649      0.029520714    528.29591      126.39995      3375         
    289040  -56.676141      0.54924811    -56.126893      0.029520714    472.12981      447.9056       3375         
    289050  -56.550048      0.41437243    -56.135675      0.029520714    356.19163      565.92321      3375         
    289060  -56.523172      0.37529338    -56.147879      0.029520714    322.59955      35.390071      3375         
    289070  -56.568698      0.40871421    -56.159984      0.029520714    351.32786     -425.31027      3375         
    289080  -56.493602      0.31951414    -56.174088      0.029520714    274.65211     -314.15968      3375         
    289090  -56.555689      0.36468974    -56.190999      0.029520714    313.48473      349.83047      3375         
    289100  -56.658585      0.44977235    -56.208813      0.029520714    386.62115      867.52788      3375         
    289110  -56.657381      0.42358376    -56.233798      0.029520714    364.10962      56.909077      3375         
    289120  -56.683237      0.42076989    -56.262467      0.029520714    361.69084     -626.78388      3375         
    289130  -56.792772      0.50087748    -56.291895      0.029520714    430.55076     -11.815636      3375         
    289140  -56.760925      0.4309529     -56.329972      0.029520714    370.44408      752.88369      3375         
    289150  -56.741888      0.37901395    -56.362874      0.029520714    325.79772      642.51024      3375         
    289160  -56.771079      0.3807426     -56.390336      0.029520714    327.28366     -95.502473      3375         
    289170  -56.705965      0.29040216    -56.415563      0.029520714    249.62765     -953.93421      3375         
    289180  -56.721654      0.28741876    -56.434236      0.029520714    247.06314     -943.59672      3375         
    289190  -56.795118      0.3455925     -56.449526      0.029520714    297.06888     -324.91914      3375         
    289200  -56.79652       0.32858176    -56.467938      0.029520714    282.44657     -27.12527       3375         
    289210  -56.785094      0.30404632    -56.481048      0.029520714    261.35608      374.62801      3375         
    289220  -56.831346      0.33897623    -56.49237       0.029520714    291.38159      622.10965      3375         
    289230  -56.756053      0.25286181    -56.503191      0.029520714    217.35824     -65.965147      3375         
    289240  -56.733695      0.22429978    -56.509395      0.029520714    192.80651     -369.88419      3375         
    289250  -56.720493      0.20800825    -56.512485      0.029520714    178.80243      201.23602      3375         
    289260  -56.75073       0.23590817    -56.514822      0.029520714    202.78501      530.96869      3375         
    289270  -56.828634      0.31248153    -56.516152      0.029520714    268.60692      575.32534      3375         
    289280  -56.821465      0.3056711     -56.515794      0.029520714    262.75273      3.7163274      3375         
    289290  -56.755795      0.24104174    -56.514753      0.029520714    207.19779     -1005.7941      3375         
    289300  -56.84478       0.33127947    -56.5135        0.029520714    284.7655      -531.42369      3375         
    289310  -56.772232      0.2623338     -56.509898      0.029520714    225.50029      723.89425      3375         
    289320  -56.696674      0.1907573     -56.505917      0.029520714    163.97363      557.18878      3375         
    289330  -56.78227       0.28074613    -56.501523      0.029520714    241.3274      -33.085601      3375         
    289340  -56.739168      0.24582758    -56.49334       0.029520714    211.31166     -246.13985      3375         
    289350  -56.710761      0.22694582    -56.483816      0.029520714    195.08103     -750.03547      3375         
    289360  -56.852147      0.38001475    -56.472132      0.029520714    326.658       -447.33295      3375         
    289370  -56.807312      0.35229461    -56.455018      0.029520714    302.82997      368.6013       3375         
    289380  -56.776015      0.33822053    -56.437795      0.029520714    290.73198      197.09389      3375         
    289390  -56.862406      0.44144662    -56.42096       0.029520714    379.46441      141.88473      3375         
    289400  -56.72129       0.3179276     -56.403363      0.029520714    273.28833      147.97401      3375         
    289410  -56.688505      0.30058468    -56.38792       0.029520714    258.38047     -541.08167      3375         
    289420  -56.822231      0.45098641    -56.371245      0.029520714    387.66475      84.445377      3375         
    289430  -56.705049      0.35316232    -56.351886      0.029520714    303.57585      1367.8329      3375         
    289440  -56.646065      0.31070464    -56.33536       0.029520714    267.07952      653.66081      3375         
    289450  -56.762089      0.44231613    -56.319773      0.029520714    380.21184     -423.72824      3375         
    289460  -56.646083      0.34378355    -56.302299      0.029520714    295.51392     -710.91907      3375         
    289470  -56.592378      0.30550061    -56.286877      0.029520714    262.60617     -1070.0901      3375         
    289480  -56.645197      0.37126331    -56.273934      0.029520714    319.13533     -276.35726      3375         
    289490  -56.559178      0.30039762    -56.25878       0.029520714    258.21968      748.81941      3375         
    289500  -56.583654      0.34129119    -56.242363      0.029520714    293.37151      97.157805      3375         
    289510  -56.746468      0.52070052    -56.225768      0.029520714    447.5905      -59.687023      3375         
    289520  -56.716818      0.51016611    -56.206652      0.029520714    438.5352       381.58699      3375         
    289530  -56.718128      0.52479436    -56.193334      0.029520714    451.10954     -567.71033      3375         
    289540  -56.724578      0.53692572    -56.187652      0.029520714    461.53757     -560.1577       3375         
    289550  -56.622928      0.4383376     -56.184591      0.029520714    376.79192      519.9967       3375         
    289560  -56.64567       0.45827899    -56.187391      0.029520714    393.9334       216.8433       3375         
    289570  -56.620493      0.42824295    -56.19225       0.029520714    368.11463      33.617913      3375         
    289580  -56.448611      0.25306788    -56.195543      0.029520714    217.53536      102.48146      3375         
    289590  -56.565599      0.36487061    -56.200728      0.029520714    313.64021     -415.81101      3375         
    289600  -56.675207      0.46840757    -56.2068        0.029520714    402.63985      650.46949      3375         
    289610  -56.564936      0.3513469     -56.213589      0.029520714    302.01533      1748.3699      3375         
    289620  -56.689888      0.46306703    -56.226821      0.029520714    398.04916     -7.0408461      3375         
    289630  -56.750765      0.50597462    -56.244791      0.029520714    434.93223     -1200.6517      3375         
    289640  -56.564629      0.29990858    -56.26472       0.029520714    257.79931     -759.22663      3375         
    289650  -56.614619      0.32584152    -56.288778      0.029520714    280.09107     -880.80124      3375         
    289660  -56.732748      0.41661429    -56.316134      0.029520714    358.11871     -277.00484      3375         
    289670  -56.724658      0.36670135    -56.357957      0.029520714    315.2139       604.70533      3375         
    289680  -56.757959      0.34858409    -56.409375      0.029520714    299.64043     -17.71001       3375         
    289690  -56.772922      0.32116911    -56.451753      0.029520714    276.07471      149.71655      3375         
    289700  -56.764289      0.27470522    -56.489584      0.029520714    236.13467      687.51952      3375         
    289710  -56.879861      0.35010924    -56.529752      0.029520714    300.95144     -225.62432      3375         
    289720  -56.86165       0.30486355    -56.556787      0.029520714    262.05856     -136.05269      3375         
    289730  -56.773345      0.19950366    -56.573841      0.029520714    171.49194      663.42831      3375         
    289740  -56.77358       0.19057127    -56.583009      0.029520714    163.81373     -202.70105      3375         
    289750  -56.781814      0.19460208    -56.587212      0.029520714    167.27858     -706.64902      3375         
    289760  -56.790132      0.20082892    -56.589304      0.029520714    172.63113     -246.48142      3375         
    289770  -56.889638      0.29886796    -56.59077       0.029520714    256.90479     -97.433878      3375         
    289780  -56.801139      0.21094509    -56.590194      0.029520714    181.32691      821.58335      3375         
    289790  -56.783343      0.1951987     -56.588144      0.029520714    167.79143      1091.3703      3375         
    289800  -56.897477      0.31280766    -56.584669      0.029520714    268.88726     -493.97424      3375         
    289810  -56.83605       0.25625125    -56.579799      0.029520714    220.27177     -916.50133      3375         
    289820  -56.738102      0.16392613    -56.574176      0.029520714    140.90975     -180.55218      3375         
    289830  -56.781683      0.21309997    -56.568583      0.029520714    183.17923     -468.76484      3375         
    289840  -56.793803      0.23290465    -56.560898      0.029520714    200.2032      -182.61031      3375         
    289850  -56.781225      0.23263758    -56.548588      0.029520714    199.97363      515.34372      3375         
    289860  -56.823345      0.2885042     -56.534841      0.029520714    247.99618      0.56547805     3375         
    289870  -56.743645      0.22068709    -56.522958      0.029520714    189.70107      199.83712      3375         
    289880  -56.723105      0.21551128    -56.507594      0.029520714    185.25198      791.31138      3375         
    289890  -56.83311       0.34341881    -56.489691      0.029520714    295.2004       280.20784      3375         
    289900  -56.818929      0.34878864    -56.47014       0.029520714    299.81626      302.12182      3375         
    289910  -56.736878      0.28914382    -56.447734      0.029520714    248.54599      330.6496       3375         
    289920  -56.754114      0.32370686    -56.430407      0.029520714    278.25614     -1140.3156      3375         
    289930  -56.744732      0.330017      -56.414715      0.029520714    283.68029     -1255.2896      3375         
    289940  -56.800754      0.40836251    -56.392391      0.029520714    351.02554      81.408666      3375         
    289950  -56.790209      0.41641932    -56.37379       0.029520714    357.95112      274.41197      3375         
    289960  -56.697644      0.33660212    -56.361042      0.029520714    289.34081      447.35065      3375         
    289970  -56.649373      0.30268663    -56.346687      0.029520714    260.1873       649.43989      3375         
    289980  -56.672051      0.33656336    -56.335488      0.029520714    289.3075      -396.74634      3375         
    289990  -56.616463      0.29040704    -56.326056      0.029520714    249.63185     -517.53077      3375         
    290000  -56.630953      0.31800322    -56.31295       0.029520714    273.35333      251.29314      3375         
    290010  -56.679187      0.37819429    -56.300992      0.029520714    325.09315     -221.75383      3375         
    290020  -56.627328      0.3372248     -56.290103      0.029520714    289.87607     -25.602881      3375         
    290030  -56.683627      0.40714033    -56.276487      0.029520714    349.97496      475.51403      3375         
    290040  -56.785455      0.52033925    -56.265116      0.029520714    447.27996     -484.14919      3375         
    290050  -56.705031      0.44815196    -56.256879      0.029520714    385.22827     -223.8232       3375         
    290060  -56.619244      0.3676811     -56.251563      0.029520714    316.05608      1132.3179      3375         
    290070  -56.666751      0.41710463    -56.249646      0.029520714    358.54021      735.91602      3375         
    290080  -56.647782      0.40066184    -56.24712       0.029520714    344.4061       56.920213      3375         
    290090  -56.59024       0.34438302    -56.245857      0.029520714    296.02922     -212.53944      3375         
    290100  -56.697455      0.45073629    -56.246718      0.029520714    387.44974     -1198.8183      3375         
    290110  -56.65918       0.41218321    -56.246997      0.029520714    354.30979     -701.0518       3375         
    290120  -56.669555      0.41844701    