LAMMPS data file via write_data, version 2 Aug 2023, timestep = 1000000, units = metal

10 atoms
2 atom types

0 15 xlo xhi
0 15 ylo yhi
0 15 zlo zhi

Masses

1 12
2 2

Atoms # atomic

1 1 6.451268341605539 7.118817286424556 6.050776314820302 0 0 0
2 1 7.276454428805133 7.807251654782818 6.875885881857527 0 0 0
3 1 7.787407142194962 7.1921892868652 8.090039443592028 0 0 0
4 1 8.538095789024368 7.8928946989567095 8.970879551054296 0 0 0
6 2 6.121308575107325 6.0781138741940826 6.249363386419638 0 0 0
7 2 7.476247140779189 8.875856015156696 6.653957094676016 0 0 0
8 2 7.511282460208714 6.132900089489776 8.206520127717916 0 0 0
9 2 8.795869096990465 8.921232617094745 8.792328567268333 0 0 0
10 2 8.84065797099053 7.550157881493117 9.945010079563456 0 0 0
5 2 6.05928054688849 7.594821961845398 5.1163335949325495 0 0 0

Velocities

1 8.345421230559463 3.974360241331771 0.04742860835012985
2 -2.9867371082834864 -3.937613329025436 -5.0182074631887055
3 -8.86569090527314 -0.12329273100258781 4.0595383268220555
4 1.3877083489689022 1.9373729263335475 -0.6232653894351744
6 -10.28703491970784 21.417579114959864 -0.05313493680169502
7 15.02271757039395 1.2353996974387689 1.465643289853841
8 0.47300391587011453 -8.35575493931622 13.492872927197931
9 -1.101166812333841 -19.878021701537488 -0.076779329262177
10 20.686798289780437 4.959683082776987 -0.8528630064246944
5 -12.07852743982989 -10.483847900141813 -4.768703439859384
