10
 Atoms. Timestep: 0
C 8.8041 7.64335 6.72488
C 7.76152 6.8573 6.85901
C 6.79808 7.06612 7.93985
C 6.59603 8.28268 8.41479
H 9.62859 7.69268 6.03779
H 8.81786 8.52457 7.371
H 7.671 5.9062 6.31441
H 6.21711 6.2284 8.15506
H 7.08912 9.29888 8.09104
H 5.94196 8.47259 9.28848
10
 Atoms. Timestep: 20
C 8.75577 7.72316 6.79458
C 7.75345 6.81133 6.86509
C 6.80521 7.04461 7.9222
C 6.66951 8.30691 8.37929
H 9.50051 7.59958 6.03027
H 8.77104 8.49162 7.56775
H 7.72344 6.015 6.12954
H 6.28429 6.15508 8.34465
H 7.06838 9.25519 7.97744
H 5.87277 8.38746 9.07236
10
 Atoms. Timestep: 40
C 8.75277 7.75334 6.82378
C 7.8046 6.79517 6.85217
C 6.81585 7.03271 7.89408
C 6.60203 8.28499 8.37736
H 9.47241 7.6573 5.96407
H 9.00057 8.44344 7.62432
H 7.67799 6.06416 6.05408
H 6.28133 6.30152 8.56655
H 7.04336 9.06219 7.85764
H 5.79683 8.49409 9.13794
10
 Atoms. Timestep: 60
C 8.81235 7.71442 6.8002
C 7.81474 6.85458 6.87986
C 6.79073 7.02401 7.97686
C 6.51654 8.2458 8.3167
H 9.49331 7.86537 5.95131
H 9.14097 8.35178 7.6075
H 7.64553 6.10805 6.07887
H 6.33345 6.17368 8.43986
H 6.96728 9.1134 7.74489
H 5.93731 8.57487 9.22478
10
 Atoms. Timestep: 80
C 8.80814 7.75385 6.85172
C 7.73904 6.88755 6.92034
C 6.83744 6.93859 7.98752
C 6.57133 8.28528 8.24081
H 9.40491 7.82675 5.96179
H 9.06344 8.36181 7.73909
H 7.59685 6.15923 6.13006
H 6.39461 5.99305 8.32582
H 6.87243 9.18667 7.61574
H 6.0561 8.50093 9.11419
10
 Atoms. Timestep: 100
C 8.8116 7.73315 6.87335
C 7.79784 6.89584 6.86831
C 6.85724 7.00479 7.96809
C 6.53069 8.248 8.27934
H 9.42778 7.76939 5.96305
H 8.96342 8.37714 7.74214
H 7.5883 6.18386 6.07923
H 6.40491 6.09902 8.43758
H 6.81061 8.9516 7.56806
H 5.94475 8.54834 9.16437
10
 Atoms. Timestep: 120
C 8.80447 7.73527 6.86786
C 7.81005 6.84369 6.82802
C 6.85184 7.01716 7.94967
C 6.50146 8.23439 8.31779
H 9.60201 7.81394 6.07996
H 8.99105 8.42349 7.6666
H 7.66862 6.15684 5.96024
H 6.49363 6.23241 8.60572
H 6.7782 9.038 7.62732
H 5.78356 8.57233 9.16912
10
 Atoms. Timestep: 140
C 8.76884 7.76653 6.86454
C 7.79234 6.83407 6.84099
C 6.8393 6.97432 7.95008
C 6.53774 8.28236 8.26097
H 9.60745 7.77512 6.20464
H 8.91326 8.43693 7.7184
H 7.7432 6.1082 6.02568
H 6.61054 6.13993 8.61858
H 6.76842 9.26882 7.77605
H 5.85179 8.34733 9.04612
10
 Atoms. Timestep: 160
C 8.81955 7.75463 6.84163
C 7.82339 6.86799 6.87102
C 6.85885 7.04048 7.92536
C 6.46434 8.24534 8.26979
H 9.61042 7.73388 6.08427
H 8.77178 8.41713 7.72256
H 7.75147 6.02855 6.1985
H 6.539 6.13108 8.47008
H 6.79558 9.14993 7.79611
H 5.85897 8.30877 9.17071
10
 Atoms. Timestep: 180
C 8.77969 7.77936 6.88628
C 7.84704 6.85529 6.87903
C 6.87412 7.01792 7.88609
C 6.48234 8.21568 8.29253
H 9.53782 7.79028 6.09778
H 8.92154 8.59617 7.58975
H 7.77824 5.93527 6.28325
H 6.3542 6.16928 8.3178
H 6.7931 9.06962 7.71824
H 5.83998 8.44992 9.21862
10
 Atoms. Timestep: 200
C 8.79266 7.85082 6.87437
C 7.85058 6.81446 6.91071
C 6.77558 6.94473 7.91531
C 6.54373 8.24646 8.30513
H 9.55651 7.82571 6.07087
H 8.93624 8.68766 7.54585
H 7.95125 5.95232 6.21172
H 6.24972 6.05061 8.25673
H 6.83284 9.10734 7.69101
H 5.82214 8.45759 9.07977
10
 Atoms. Timestep: 220
C 8.8029 7.81771 6.79913
C 7.92101 6.87868 6.96888
C 6.72772 6.95893 7.91215
C 6.50705 8.19976 8.30846
H 9.5671 7.81511 6.03758
H 8.78114 8.61065 7.55095
H 8.04735 6.09023 6.25144
H 6.20759 6.07275 8.3065
H 6.99623 9.0385 7.78512
H 5.77243 8.4623 9.02564
10
 Atoms. Timestep: 240
C 8.7713 7.86316 6.83323
C 7.89359 6.83463 6.98617
C 6.81545 6.96692 7.8609
C 6.48523 8.18848 8.27446
H 9.53116 7.78473 6.06054
H 8.80736 8.75156 7.50456
H 7.9343 5.9641 6.32257
H 6.23832 6.15441 8.28462
H 7.13414 8.99696 7.96521
H 5.68536 8.44905 9.02294
10
 Atoms. Timestep: 260
C 8.75555 7.85691 6.86255
C 7.93111 6.80911 6.92883
C 6.82008 6.98634 7.90145
C 6.47672 8.22774 8.27804
H 9.54398 7.81478 6.09597
H 8.84025 8.78001 7.38196
H 7.91674 5.83594 6.38976
H 6.26635 6.05974 8.13521
H 7.03588 9.12277 8.08615
H 5.62004 8.32614 8.97473
10
 Atoms. Timestep: 280
C 8.80315 7.80662 6.80091
C 7.91927 6.83217 6.96592
C 6.82064 7.00764 7.88653
C 6.46493 8.21174 8.32867
H 9.66157 7.82583 6.0826
H 8.65955 8.69509 7.41235
H 8.11196 5.93351 6.39142
H 6.2216 6.12143 8.09436
H 6.84348 9.21314 8.07373
H 5.57791 8.28207 8.94236
10
 Atoms. Timestep: 300
C 8.74423 7.85552 6.82842
C 7.9431 6.81507 6.97834
C 6.81814 6.99505 7.82454
C 6.52304 8.19342 8.31902
H 9.5801 7.76041 6.20551
H 8.59712 8.75973 7.47319
H 8.12748 5.90931 6.42802
H 6.15825 6.22344 8.19252
H 6.84912 9.18194 7.95036
H 5.64094 8.2308 8.93748
10
 Atoms. Timestep: 320
C 8.76365 7.90403 6.84882
C 7.97411 6.78456 6.94946
C 6.77016 6.98073 7.82627
C 6.46129 8.21392 8.30692
H 9.65565 7.8382 6.20068
H 8.70653 8.82474 7.40636
H 8.09725 5.79229 6.45925
H 6.20919 6.10466 8.21815
H 6.97204 9.06811 7.91176
H 5.66807 8.2926 9.10399
10
 Atoms. Timestep: 340
C 8.78208 7.84739 6.85158
C 7.93609 6.86471 6.9797
C 6.75903 6.96577 7.85437
C 6.42968 8.16705 8.25584
H 9.68814 7.93924 6.18493
H 8.70275 8.77251 7.36062
H 8.17751 5.92201 6.48527
H 6.33904 6.01024 8.1417
H 6.97951 9.05841 7.97747
H 5.79576 8.44807 9.09005
10
 Atoms. Timestep: 360
C 8.78944 7.89772 6.87866
C 7.90365 6.87975 6.98998
C 6.79708 6.91144 7.85202
C 6.46942 8.1791 8.24302
H 9.59922 7.74004 6.17765
H 8.62218 8.83342 7.46471
H 8.14493 5.98012 6.44899
H 6.30142 5.99299 8.17093
H 6.98619 9.08526 7.84629
H 5.71252 8.38005 8.99837
10
 Atoms. Timestep: 380
C 8.79698 7.91118 6.87749
C 7.98093 6.85833 6.94753
C 6.78808 6.96069 7.89046
C 6.44027 8.16041 8.28499
H 9.59249 7.75164 6.19983
H 8.80931 8.83718 7.47367
H 8.0749 5.94445 6.33675
H 6.22151 6.09056 8.25343
H 6.8413 8.9764 7.71729
H 5.54695 8.2761 8.9052
10
 Atoms. Timestep: 400
C 8.7918 7.87451 6.87688
C 7.94411 6.84493 6.9882
C 6.8519 6.94875 7.88098
C 6.40675 8.16779 8.25564
H 9.68272 7.96606 6.15048
H 8.90857 8.71506 7.51759
H 8.09313 6.02502 6.26636
H 6.29747 6.10234 8.29282
H 6.67607 9.10126 7.7706
H 5.49873 8.29435 8.88096
10
 Atoms. Timestep: 420
C 8.78554 7.88396 6.92221
C 7.9558 6.85331 6.96724
C 6.86092 6.95198 7.91954
C 6.40971 8.1853 8.14992
H 9.50176 7.94304 6.08236
H 8.73884 8.60193 7.74659
H 8.01444 6.01225 6.29036
H 6.47747 6.00187 8.29447
H 6.68719 9.20052 7.8193
H 5.63246 8.21313 8.90244
10
 Atoms. Timestep: 440
C 8.82417 7.88874 6.94726
C 7.96369 6.84904 6.93086
C 6.89325 6.96501 7.90343
C 6.33453 8.17291 8.15361
H 9.47159 8.02717 6.13095
H 8.67833 8.58314 7.79957
H 7.94712 5.98678 6.26509
H 6.50425 6.07243 8.42013
H 6.79979 9.03857 7.66184
H 5.62912 8.25774 9.00045
10
 Atoms. Timestep: 460
C 8.78006 7.88245 6.96858
C 7.93861 6.85266 6.92759
C 6.87841 6.94547 7.89682
C 6.37749 8.12493 8.17124
H 9.61175 8.16857 6.2997
H 8.8194 8.67608 7.71802
H 8.01216 6.0613 6.16386
H 6.51701 6.14714 8.52686
H 6.66069 8.91822 7.49275
H 5.65552 8.41563 8.9024
10
 Atoms. Timestep: 480
C 8.8184 7.93387 6.96149
C 7.94351 6.88619 6.91561
C 6.82627 6.86605 7.95043
C 6.38637 8.17152 8.14907
H 9.75177 7.97064 6.25468
H 8.75135 8.6313 7.7834
H 8.07582 6.1342 6.13025
H 6.59607 5.96366 8.55228
H 6.4806 8.94301 7.37801
H 5.62112 8.43144 8.93081
10
 Atoms. Timestep: 500
C 8.82765 7.9167 6.96501
C 7.95113 6.94094 6.94507
C 6.862 6.93213 7.93517
C 6.33901 8.11271 8.11542
H 9.61234 7.83503 6.28484
H 8.76417 8.59182 7.80797
H 8.04797 6.14598 6.21255
H 6.66465 5.99803 8.47579
H 6.47482 8.90074 7.38064
H 5.68135 8.33352 8.96314
10
 Atoms. Timestep: 520
C 8.80431 7.90917 7.00981
C 7.92608 6.89206 6.95048
C 6.95589 6.95856 7.88535
C 6.27393 8.10497 8.10001
H 9.60049 7.9596 6.27499
H 8.93669 8.72493 7.77328
H 7.99403 6.05371 6.25742
H 6.65584 6.11507 8.48737
H 6.53801 8.9534 7.46838
H 5.63769 8.22478 8.95368
10
 Atoms. Timestep: 540
C 8.80647 7.92005 7.00616
C 8.02399 6.85389 6.89701
C 6.86428 6.94416 7.95866
C 6.3059 8.13413 8.08775
H 9.61419 8.1234 6.20821
H 8.80943 8.68677 7.77358
H 8.06016 5.99299 6.20651
H 6.62995 6.066 8.57608
H 6.50419 9.08543 7.58377
H 5.50231 8.15201 8.84336
10
 Atoms. Timestep: 560
C 8.80482 7.94508 6.94716
C 8.01515 6.84665 6.99506
C 6.88387 6.90221 7.90998
C 6.35275 8.1369 8.12542
H 9.59132 8.17619 6.24574
H 8.53055 8.55498 7.75475
H 8.20773 6.12242 6.1844
H 6.52438 6.07626 8.55975
H 6.54824 9.05481 7.56783
H 5.38221 8.25032 8.71081
10
 Atoms. Timestep: 580
C 8.75578 7.96328 6.94993
C 8.04417 6.85514 7.02824
C 6.89318 6.91887 7.88871
C 6.33811 8.09625 8.13468
H 9.54949 8.15112 6.2931
H 8.53868 8.81198 7.70867
H 8.19392 6.04733 6.32669
H 6.43018 6.0407 8.31251
H 6.72735 8.87677 7.50046
H 5.49689 8.29094 8.73818
10
 Atoms. Timestep: 600
C 8.7989 8.02988 6.96803
C 8.06202 6.87246 7.01646
C 6.84271 6.86853 7.91229
C 6.26726 8.09288 8.11386
H 9.63527 8.06657 6.20083
H 8.72972 8.98209 7.52026
H 8.22143 5.89431 6.53853
H 6.41414 5.88824 8.10819
H 6.75854 8.92276 7.56051
H 5.53954 8.28355 8.89679
10
 Atoms. Timestep: 620
C 8.78213 8.01219 6.93724
C 8.01524 6.94859 7.09994
C 6.82486 6.85814 7.84038
C 6.33282 8.04376 8.08909
H 9.64932 7.94581 6.26883
H 8.72043 8.91168 7.43283
H 8.46567 6.03136 6.65674
H 6.41839 5.86811 8.14269
H 6.6021 9.04671 7.72704
H 5.53775 8.24032 8.861
10
 Atoms. Timestep: 640
C 8.78116 8.0246 6.9022
C 8.07668 6.91009 7.11313
C 6.80481 6.87794 7.77011
C 6.31334 8.07356 8.15795
H 9.71038 7.83638 6.36323
H 8.5594 9.01033 7.43558
H 8.55232 6.05653 6.65747
H 6.41567 5.98551 8.27175
H 6.64794 8.98877 7.73559
H 5.38233 8.0253 8.765
10
 Atoms. Timestep: 660
C 8.74769 8.03096 6.94222
C 8.15881 6.84286 7.05334
C 6.81702 6.91953 7.79715
C 6.2815 8.06899 8.17042
H 9.73238 8.04429 6.48383
H 8.44728 9.06945 7.27545
H 8.4821 5.87515 6.67775
H 6.39314 6.02533 8.21213
H 6.67609 9.00236 7.77851
H 5.36286 8.02944 8.68254
10
 Atoms. Timestep: 680
C 8.76386 8.01715 6.95837
C 8.09153 6.84241 7.06748
C 6.91279 6.89441 7.82483
C 6.28522 8.06714 8.10567
H 9.72633 8.30269 6.52876
H 8.24495 8.87897 7.2198
H 8.49925 5.85117 6.74108
H 6.371 5.95129 8.0311
H 6.6221 9.13326 7.9302
H 5.33998 8.17596 8.69993
10
 Atoms. Timestep: 700
C 8.75023 8.02306 6.9417
C 8.14946 6.8761 7.08899
C 6.85808 6.91304 7.84022
C 6.29097 8.0698 8.08739
H 9.7491 8.20175 6.47467
H 8.09444 8.79934 7.31609
H 8.54948 5.91216 6.78842
H 6.38752 5.92348 7.96267
H 6.71372 9.03708 7.94785
H 5.33729 8.05417 8.64954
10
 Atoms. Timestep: 720
C 8.7312 8.06008 6.91249
C 8.19254 6.84355 7.15017
C 6.8528 6.89401 7.75561
C 6.25548 8.06577 8.13919
H 9.70288 8.1107 6.41977
H 8.29759 9.00865 7.36676
H 8.62203 5.92358 6.80128
H 6.32254 6.00011 8.05435
H 6.72017 9.00025 7.93525
H 5.2667 7.99616 8.5669
10
 Atoms. Timestep: 740
C 8.73174 8.06608 6.92657
C 8.16911 6.88007 7.19427
C 6.83735 6.88147 7.73951
C 6.27327 8.00083 8.1288
H 9.62914 8.12229 6.37511
H 8.57339 9.06151 7.22751
H 8.68309 5.96652 6.83485
H 6.30736 5.97623 8.01092
H 6.58876 9.07849 7.97049
H 5.27346 8.04425 8.53526
10
 Atoms. Timestep: 760
C 8.78947 8.08175 6.94358
C 8.13736 6.94754 7.18452
C 6.82891 6.84443 7.79991
C 6.25476 8.01784 8.09527
H 9.73173 7.97731 6.283
H 8.42205 9.07398 7.20714
H 8.62261 6.00176 6.89624
H 6.35895 5.83172 7.83783
H 6.68049 9.02734 7.93361
H 5.24515 7.95849 8.59146
10
 Atoms. Timestep: 780
C 8.74982 8.08744 6.9642
C 8.13217 6.94565 7.169
C 6.85593 6.85033 7.81834
C 6.27154 8.00099 8.06525
H 9.71193 8.02776 6.46259
H 8.30719 9.08026 7.16613
H 8.57245 6.01592 6.8788
H 6.38897 5.87662 7.83579
H 6.77449 8.87844 7.90266
H 5.31227 8.0346 8.54234
10
 Atoms. Timestep: 800
C 8.74245 8.10471 6.94407
C 8.1657 6.8843 7.15964
C 6.85892 6.83118 7.77832
C 6.23316 7.99551 8.09772
H 9.74056 8.23644 6.62901
H 8.33765 9.07986 7.14297
H 8.67412 5.97639 6.80764
H 6.34559 5.90878 8.02385
H 6.80091 8.93725 7.90942
H 5.22378 8.18709 8.49757
10
 Atoms. Timestep: 820
C 8.73369 8.09289 6.94859
C 8.2155 6.88879 7.13553
C 6.79218 6.84441 7.76492
C 6.25895 8.0045 8.09419
H 9.8044 8.25429 6.64093
H 8.21582 9.00723 7.19187
H 8.77356 5.97232 6.86407
H 6.37425 5.87633 8.11217
H 6.70809 9.04939 7.95258
H 5.24599 8.07694 8.46799
10
 Atoms. Timestep: 840
C 8.74506 8.08541 6.9758
C 8.1691 6.89465 7.15388
C 6.87025 6.86999 7.73461
C 6.24843 8.02916 8.07662
H 9.78104 8.17662 6.54617
H 8.12423 8.96394 7.18929
H 8.75701 6.00032 7.01062
H 6.37346 5.92234 7.98415
H 6.61841 8.99062 7.94773
H 5.27284 7.89089 8.56561
10
 Atoms. Timestep: 860
C 8.74836 8.07814 6.97505
C 8.20216 6.89854 7.17695
C 6.88284 6.91373 7.73833
C 6.2159 7.97989 8.07166
H 9.68382 8.17897 6.53274
H 8.28201 9.04551 7.09859
H 8.68534 5.92827 7.07994
H 6.39317 5.97363 7.8087
H 6.50962 8.99867 7.94661
H 5.27453 7.87316 8.65046
10
 Atoms. Timestep: 880
C 8.74327 8.11703 6.94362
C 8.23202 6.89477 7.22413
C 6.85159 6.85711 7.72757
C 6.20511 7.99325 8.09356
H 9.78444 8.16408 6.52083
H 8.30804 9.10025 7.10606
H 8.71503 5.92669 7.01359
H 6.37421 5.85559 7.80337
H 6.52717 9.10508 7.95193
H 5.22323 7.89532 8.55994
10
 Atoms. Timestep: 900
C 8.71354 8.10991 6.94417
C 8.19436 6.94067 7.24861
C 6.83965 6.83087 7.7288
C 6.26282 7.97175 8.06707
H 9.76046 8.16868 6.5727
H 8.2014 9.03954 7.15213
H 8.81686 6.09985 6.96356
H 6.34254 5.87047 7.91588
H 6.70108 8.9555 7.99614
H 5.23942 7.96674 8.35669
10
 Atoms. Timestep: 920
C 8.73986 8.14598 6.95441
C 8.19393 6.93917 7.21282
C 6.85181 6.80246 7.76718
C 6.22688 7.96412 8.0586
H 9.73434 8.23553 6.58579
H 8.17806 9.06322 7.06722
H 8.83902 6.06331 7.03628
H 6.32864 5.87837 7.91498
H 6.85764 8.78093 8.0592
H 5.11146 8.08823 8.26751
10
 Atoms. Timestep: 940
C 8.71374 8.16298 6.97091
C 8.22692 6.92586 7.20464
C 6.8386 6.79782 7.78903
C 6.21896 7.95068 8.03826
H 9.73889 8.28081 6.60894
H 8.20576 9.13564 6.91735
H 8.76692 5.98385 7.13063
H 6.39513 5.7828 7.77367
H 6.85824 8.89315 8.16617
H 5.16974 8.1197 8.27524
10
 Atoms. Timestep: 960
C 8.71969 8.12921 6.93034
C 8.19956 6.94998 7.28711
C 6.86922 6.8227 7.71505
C 6.22853 7.95523 8.07178
H 9.81963 8.24443 6.67047
H 8.09334 9.02224 6.88365
H 8.82108 6.06032 7.15608
H 6.3985 5.82349 7.65603
H 6.68244 8.95684 8.1818
H 5.20695 7.96994 8.31534
10
 Atoms. Timestep: 980
C 8.70944 8.1084 6.90598
C 8.27425 6.95493 7.32886
C 6.84075 6.88101 7.64024
C 6.2307 7.95004 8.10636
H 9.74598 8.20642 6.7094
H 8.05395 8.94106 6.82538
H 8.93195 6.07549 7.28746
H 6.30142 5.96678 7.61401
H 6.62485 8.90741 8.19076
H 5.13499 7.75658 8.37331
10
 Atoms. Timestep: 1000
C 8.67723 8.1399 6.92084
C 8.30112 6.8874 7.33011
C 6.86199 6.87444 7.59829
C 6.22271 7.95116 8.10552
H 9.72842 8.33037 6.66703
H 8.02442 9.00364 6.6863
H 8.97357 6.05595 7.54621
H 6.22842 5.96946 7.5273
H 6.648 8.94728 8.32018
H 5.14282 7.7959 8.41341
10
 Atoms. Timestep: 1020
C 8.69356 8.12576 6.92668
C 8.26773 6.94137 7.30946
C 6.85658 6.83982 7.62476
C 6.22403 7.93276 8.09121
H 9.73972 8.4673 6.71509
H 7.93523 8.84037 6.59293
H 8.93068 6.15868 7.68333
H 6.30743 5.89582 7.39015
H 6.74444 8.85352 8.47419
H 5.21505 7.96603 8.32063
10
 Atoms. Timestep: 1040
C 8.69475 8.16633 6.87485
C 8.24791 6.98428 7.37069
C 6.82108 6.8 7.62912
C 6.25152 7.92095 8.10367
H 9.73879 8.43476 6.86841
H 7.88994 8.77165 6.51484
H 8.96164 6.18264 7.66241
H 6.37347 5.89334 7.3332
H 6.93118 8.65169 8.49257
H 5.1374 8.05662 8.14753
10
 Atoms. Timestep: 1060
C 8.62144 8.16109 6.87333
C 8.27782 6.98575 7.44866
C 6.84465 6.78614 7.58924
C 6.26944 7.90135 8.10774
H 9.67296 8.40981 6.88751
H 7.99163 8.95595 6.39728
H 9.00288 6.2106 7.62156
H 6.28154 5.86647 7.30997
H 6.93234 8.64284 8.49116
H 5.16256 8.12836 8.06777
10
 Atoms. Timestep: 1080
C 8.66443 8.14759 6.88037
C 8.29186 6.98736 7.42723
C 6.85253 6.82283 7.59357
C 6.2076 7.85914 8.11067
H 9.76601 8.41423 6.76899
H 8.00126 8.9145 6.45377
H 9.07028 6.2588 7.69203
H 6.26073 5.91493 7.27437
H 6.75923 8.74996 8.49068
H 5.16789 8.06605 8.13808
10
 Atoms. Timestep: 1100
C 8.69795 8.15817 6.9169
C 8.29664 6.98548 7.37115
C 6.85604 6.83214 7.61228
C 6.19991 7.90333 8.0757
H 9.7305 8.34765 6.68859
H 7.91981 8.77421 6.59427
H 9.0133 6.25522 7.80639
H 6.37586 5.96921 7.24505
H 6.68667 8.81973 8.47786
H 5.09466 7.77931 8.22064
10
 Atoms. Timestep: 1120
C 8.66761 8.16828 6.94472
C 8.29658 6.94594 7.39527
C 6.89698 6.85355 7.60281
C 6.21601 7.92728 8.02445
H 9.68695 8.40682 6.68645
H 7.88493 8.91551 6.62571
H 8.93887 6.16051 7.75562
H 6.37443 5.92641 7.33238
H 6.61248 8.81674 8.40583
H 5.16323 7.62376 8.27956
10
 Atoms. Timestep: 1140
C 8.69356 8.15648 6.92266
C 8.33575 6.98101 7.41387
C 6.88598 6.84894 7.59276
C 6.15494 7.86373 8.03487
H 9.75466 8.5135 6.79427
H 7.98836 8.96954 6.67083
H 8.98506 6.11075 7.53793
H 6.3296 5.85735 7.5573
H 6.5619 8.84431 8.31003
H 5.08303 7.82353 8.23371
10
 Atoms. Timestep: 1160
C 8.6817 8.21046 6.9598
C 8.30391 6.99391 7.38669
C 6.85765 6.77358 7.64696
C 6.1748 7.87104 8.01006
H 9.73809 8.42001 6.90537
H 7.97699 8.93487 6.72183
H 9.07279 6.17142 7.35892
H 6.45636 5.79205 7.63498
H 6.66194 8.89733 8.15812
H 5.10944 7.91038 8.08876
10
 Atoms. Timestep: 1180
C 8.6768 8.24467 7.02361
C 8.24395 6.98184 7.31954
C 6.89808 6.7327 7.7278
C 6.19357 7.89597 7.95531
H 9.73163 8.40858 6.87661
H 7.95492 9.06306 6.75343
H 9.00723 6.24363 7.40652
H 6.49494 5.72218 7.63886
H 6.76996 8.78023 8.04583
H 5.0909 7.87131 8.01017
10
 Atoms. Timestep: 1200
C 8.71912 8.23026 7.01586
C 8.27752 7.02607 7.29464
C 6.88718 6.77473 7.75654
C 6.13735 7.80949 7.93143
H 9.79008 8.47048 6.80397
H 8.11801 9.16427 6.85484
H 8.94818 6.18834 7.45602
H 6.44743 5.72984 7.71316
H 6.66279 8.72755 8.02236
H 5.03049 7.89624 8.04789
10
 Atoms. Timestep: 1220
C 8.69502 8.25362 7.00072
C 8.29278 7.01078 7.37887
C 6.90959 6.75094 7.67778
C 6.13243 7.84575 7.91268
H 9.76666 8.35698 6.79103
H 8.11942 9.12649 6.99659
H 9.01894 6.12542 7.35388
H 6.51189 5.75424 7.80583
H 6.45978 8.95061 7.97645
H 5.06834 7.73975 8.14489
10
 Atoms. Timestep: 1240
C 8.68236 8.20912 7.03356
C 8.32469 6.9946 7.4157
C 6.90584 6.81286 7.64215
C 6.13088 7.86659 7.8973
H 9.71402 8.35099 6.75475
H 8.0163 9.06582 7.05551
H 9.03928 6.22064 7.27325
H 6.57134 5.81362 7.80176
H 6.343 8.91931 7.85435
H 5.17751 7.55068 8.21712
10
 Atoms. Timestep: 1260
C 8.73748 8.20966 7.07002
C 8.34685 6.98302 7.35677
C 6.94502 6.85572 7.68405
C 6.07547 7.83168 7.8921
H 9.74081 8.52999 6.70726
H 7.95549 9.02412 7.02165
H 9.00579 6.13539 7.34922
H 6.48455 5.82317 7.76414
H 6.29526 8.84742 7.76668
H 5.01322 7.57944 8.26241
10
 Atoms. Timestep: 1280
C 8.67532 8.25976 7.09796
C 8.34884 6.96962 7.29491
C 6.94929 6.7888 7.73797
C 6.1314 7.83684 7.86195
H 9.6572 8.5803 6.82038
H 7.94026 9.04921 7.02686
H 8.97316 6.03129 7.44377
H 6.54289 5.77629 7.80237
H 6.3027 8.94185 7.7455
H 5.07865 7.71093 8.09338
10
 Atoms. Timestep: 1300
C 8.69511 8.27264 7.06012
C 8.29777 6.99364 7.3267
C 6.93001 6.7471 7.73498
C 6.10084 7.83295 7.85836
H 9.75508 8.58233 6.95351
H 7.97066 9.03183 7.06404
H 9.06934 6.22119 7.3223
H 6.62195 5.74761 7.93425
H 6.50629 8.86501 7.76514
H 5.05827 7.694 7.96886
10
 Atoms. Timestep: 1320
C 8.70187 8.25236 7.04824
C 8.307 7.062 7.37874
C 6.89974 6.75757 7.71375
C 6.10382 7.77499 7.83678
H 9.76803 8.46614 6.98037
H 8.06075 9.17746 6.99563
H 9.06319 6.33286 7.24394
H 6.60979 5.72361 8.00188
H 6.53791 8.72784 7.82405
H 5.00977 7.71055 7.97806
10
 Atoms. Timestep: 1340
C 8.67661 8.33028 7.07882
C 8.29528 7.04678 7.4134
C 6.94579 6.70406 7.70702
C 6.11503 7.78603 7.80134
H 9.73123 8.36242 6.83457
H 8.12615 9.28922 6.90095
H 9.02865 6.1827 7.38488
H 6.57234 5.66281 7.86348
H 6.46113 8.81885 7.81739
H 5.00822 7.70102 8.08422
10
 Atoms. Timestep: 1360
C 8.70595 8.29256 7.09841
C 8.31592 7.07739 7.40543
C 6.90841 6.74405 7.71206
C 6.09293 7.75721 7.81875
H 9.73496 8.45287 6.69606
H 8.10676 9.12032 6.93524
H 9.03483 6.27 7.55417
H 6.6259 5.72333 7.67231
H 6.39599 8.81865 7.74369
H 5.08625 7.60764 8.07963
10
 Atoms. Timestep: 1380
C 8.69979 8.26132 7.06103
C 8.33213 7.03801 7.44393
C 6.95292 6.7838 7.67072
C 6.07444 7.78354 7.85081
H 9.73592 8.55786 6.80435
H 7.92535 9.03116 6.99574
H 9.10886 6.33125 7.58167
H 6.61438 5.73723 7.6316
H 6.37302 8.82119 7.71469
H 5.01082 7.54128 8.00196
10
 Atoms. Timestep: 1400
C 8.6295 8.25985 7.03874
C 8.40917 7.01687 7.46716
C 6.95879 6.78411 7.64551
C 6.11833 7.8016 7.83656
H 9.61321 8.61572 7.01726
H 7.80752 9.05403 6.9039
H 9.15806 6.18581 7.58071
H 6.54815 5.75322 7.72057
H 6.29131 8.85895 7.86163
H 5.011 7.57772 7.87718
10
 Atoms. Timestep: 1420
C 8.68193 8.28561 7.03925
C 8.38589 7.02615 7.44983
C 6.96018 6.76742 7.6693
C 6.0621 7.78171 7.81735
H 9.69495 8.77498 7.07322
H 7.87062 8.88005 6.72144
H 9.13536 6.23126 7.61041
H 6.53999 5.77801 7.72569
H 6.35202 8.81582 8.06207
H 4.99052 7.57454 7.84184
10
 Atoms. Timestep: 1440
C 8.66421 8.28786 7.08267
C 8.32778 7.06327 7.44836
C 6.94459 6.75617 7.67834
C 6.10573 7.76481 7.79651
H 9.67905 8.72539 7.00968
H 7.93358 8.85289 6.54515
H 9.07877 6.36707 7.71408
H 6.63682 5.71722 7.6033
H 6.46436 8.75365 8.1305
H 5.07755 7.57115 7.85101
10
 Atoms. Timestep: 1460
C 8.65548 8.33077 7.0407
C 8.33504 7.08502 7.51888
C 6.94635 6.7053 7.61779
C 6.10346 7.75824 7.84447
H 9.70549 8.5398 7.01028
H 7.93592 9.02086 6.46906
H 9.11782 6.38006 7.89101
H 6.64799 5.63655 7.47385
H 6.51558 8.7367 8.04627
H 4.95919 7.63004 7.86754
10
 Atoms. Timestep: 1480
C 8.64719 8.27702 6.99565
C 8.35613 7.15047 7.57133
C 6.91619 6.72022 7.56468
C 6.10788 7.69175 7.87361
H 9.70685 8.54379 7.00452
H 8.01643 9.0447 6.58776
H 9.15163 6.50663 7.99203
H 6.58435 5.70507 7.40136
H 6.48627 8.67905 7.99531
H 5.01407 7.70407 7.8764
10
 Atoms. Timestep: 1500
C 8.65208 8.27754 6.98908
C 8.31261 7.10451 7.59504
C 6.96266 6.71634 7.55837
C 6.10508 7.73094 7.85142
H 9.71443 8.67721 6.98611
H 7.92991 8.94647 6.59238
H 9.12626 6.5905 8.04701
H 6.58466 5.73001 7.32169
H 6.52345 8.73262 8.09524
H 5.05075 7.5673 7.88311
10
 Atoms. Timestep: 1520
C 8.64476 8.28922 7.02861
C 8.38946 7.10391 7.54928
C 6.93197 6.74631 7.59634
C 6.11412 7.75554 7.81227
H 9.61269 8.71427 7.02802
H 7.80786 8.76815 6.4508
H 9.08661 6.44632 8.10985
H 6.63731 5.72087 7.29541
H 6.44435 8.70788 8.24679
H 5.05332 7.49267 7.83915
10
 Atoms. Timestep: 1540
C 8.65466 8.30105 7.0333
C 8.39805 7.07237 7.55369
C 6.99558 6.76965 7.59379
C 6.05882 7.73384 7.83246
H 9.61388 8.83175 7.03983
H 7.87527 8.70574 6.35071
H 9.12399 6.37695 8.04498
H 6.61145 5.76405 7.36417
H 6.32411 8.66867 8.27199
H 4.93267 7.6114 7.7379
10
 Atoms. Timestep: 1560
C 8.60672 8.2757 7.03642
C 8.38416 7.09245 7.59292
C 6.97011 6.75905 7.57975
C 6.09794 7.72354 7.83225
H 9.58181 8.80859 7.05986
H 7.94455 8.7928 6.40142
H 9.17348 6.46063 7.91196
H 6.65028 5.74934 7.4105
H 6.34664 8.71584 8.22378
H 5.07361 7.58834 7.63349
10
 Atoms. Timestep: 1580
C 8.64988 8.31743 7.00642
C 8.35012 7.12799 7.60461
C 6.9545 6.70207 7.6005
C 6.08538 7.72897 7.8244
H 9.69259 8.67376 7.09443
H 7.82609 8.89745 6.54493
H 9.19884 6.49544 7.9358
H 6.65426 5.66255 7.36553
H 6.49049 8.73821 8.11327
H 5.02249 7.49382 7.61947
10
 Atoms. Timestep: 1600
C 8.65207 8.31183 7.04454
C 8.34372 7.15599 7.55629
C 6.96463 6.70673 7.64174
C 6.10482 7.67115 7.76338
H 9.65428 8.62544 6.9978
H 7.88334 9.04068 6.67613
H 9.11389 6.51889 8.04709
H 6.64503 5.69464 7.36596
H 6.4356 8.65191 7.9842
H 5.00044 7.61418 7.78214
10
 Atoms. Timestep: 1620
C 8.64285 8.3548 7.07846
C 8.36302 7.09779 7.55458
C 6.98064 6.69298 7.62718
C 6.05329 7.69557 7.73795
H 9.71659 8.68792 6.93241
H 7.97655 9.08749 6.68003
H 9.1189 6.49669 8.01515
H 6.70451 5.64677 7.50118
H 6.39471 8.70315 7.89325
H 4.97395 7.55113 7.87795
10
 Atoms. Timestep: 1640
C 8.64133 8.33832 7.11304
C 8.3905 7.12583 7.54573
C 6.93713 6.72144 7.60124
C 6.06651 7.69672 7.73861
H 9.68518 8.69276 7.08043
H 7.91139 8.96693 6.65375
H 9.19346 6.42724 7.8187
H 6.73521 5.65851 7.7241
H 6.34139 8.78723 7.80655
H 5.04456 7.3935 7.81373
10
 Atoms. Timestep: 1660
C 8.67008 8.34545 7.12217
C 8.35313 7.09981 7.52852
C 7.02408 6.74874 7.6254
C 6.06104 7.68758 7.72967
H 9.64373 8.76902 7.22361
H 7.80375 8.90915 6.65703
H 9.19129 6.36838 7.66263
H 6.63848 5.72801 7.8377
H 6.21492 8.7654 7.73864
H 4.98185 7.39057 7.73481
10
 Atoms. Timestep: 1680
C 8.63115 8.34722 7.13436
C 8.43702 7.07881 7.47643
C 6.98374 6.74514 7.71171
C 6.05359 7.69435 7.67836
H 9.58745 8.85392 7.21092
H 7.86897 9.04121 6.75179
H 9.13504 6.3026 7.73141
H 6.69905 5.68675 7.75866
H 6.19072 8.73208 7.70354
H 5.00979 7.41031 7.7275
10
 Atoms. Timestep: 1700
C 8.63891 8.3768 7.13917
C 8.40514 7.07152 7.48005
C 6.98561 6.71829 7.72947
C 6.02197 7.68221 7.64984
H 9.69289 8.83386 7.07472
H 7.87613 9.06078 6.93334
H 9.20225 6.39456 7.79922
H 6.77132 5.67279 7.71054
H 6.30316 8.77304 7.64504
H 4.96843 7.392 7.73501
10
 Atoms. Timestep: 1720
C 8.64913 8.35389 7.15985
C 8.33829 7.166 7.54726
C 6.99997 6.71667 7.6554
C 6.07766 7.62426 7.65878
H 9.64982 8.61381 6.94464
H 7.84743 9.09601 7.03954
H 9.23127 6.52199 7.71775
H 6.71122 5.65376 7.78879
H 6.28408 8.71212 7.57128
H 5.00987 7.45743 7.69924
10
 Atoms. Timestep: 1740
C 8.65602 8.4264 7.15466
C 8.37604 7.1631 7.62062
C 6.9879 6.66026 7.62211
C 6.03897 7.6416 7.65811
H 9.69571 8.56615 6.88762
H 7.94201 9.30136 6.95475
H 9.15391 6.40032 7.64306
H 6.72799 5.59183 7.84287
H 6.28829 8.64435 7.53965
H 4.96244 7.36789 7.68813
10
 Atoms. Timestep: 1760
C 8.6185 8.40432 7.18751
C 8.37642 7.15929 7.57015
C 6.97569 6.68773 7.6962
C 6.04807 7.61275 7.61067
H 9.68019 8.71189 6.96427
H 8.07822 9.25551 6.89623
H 9.13636 6.40722 7.65979
H 6.82839 5.64906 7.74947
H 6.28059 8.67375 7.54844
H 5.0082 7.338 7.68362
10
 Atoms. Timestep: 1780
C 8.65421 8.39789 7.18867
C 8.33358 7.13584 7.48773
C 7.03729 6.72969 7.76223
C 6.03351 7.60175 7.57722
H 9.71212 8.74057 7.19951
H 7.83556 9.06286 6.94392
H 9.22909 6.50888 7.74177
H 6.81873 5.64407 7.71498
H 6.22036 8.73028 7.57052
H 4.95663 7.3423 7.62317
10
 Atoms. Timestep: 1800
C 8.62666 8.40267 7.17855
C 8.45113 7.13387 7.48828
C 6.99366 6.71961 7.71042
C 6.04251 7.63545 7.59767
H 9.57899 8.79596 7.32138
H 7.70675 9.03341 6.95329
H 9.23951 6.42843 7.79167
H 6.73949 5.62553 7.88622
H 6.1482 8.68918 7.55219
H 5.02724 7.29791 7.53476
10
 Atoms. Timestep: 1820
C 8.6083 8.40508 7.19027
C 8.44921 7.08944 7.57103
C 7.03561 6.69768 7.60879
C 6.01622 7.63398 7.62389
H 9.53396 9.04544 7.24513
H 7.83911 9.10028 6.87272
H 9.24406 6.41423 7.77907
H 6.71507 5.75641 7.94226
H 6.15935 8.6824 7.5071
H 4.97636 7.26416 7.57883
10
 Atoms. Timestep: 1840
C 8.61803 8.4012 7.23709
C 8.39049 7.17013 7.59654
C 7.01659 6.72222 7.58796
C 6.05265 7.57664 7.59433
H 9.60612 8.92771 7.14993
H 7.83646 8.95024 6.79527
H 9.22819 6.4793 7.82324
H 6.81549 5.65506 7.77987
H 6.16706 8.69536 7.48687
H 5.00412 7.2912 7.75823
10
 Atoms. Timestep: 1860
C 8.63316 8.4685 7.22089
C 8.37635 7.20124 7.60245
C 7.02974 6.67048 7.62924
C 6.01972 7.58962 7.56235
H 9.6896 8.67159 7.18055
H 7.76667 8.98007 6.72479
H 9.17811 6.52109 8.00003
H 6.92648 5.53564 7.52489
H 6.20622 8.67122 7.553
H 5.00313 7.26131 7.81623
10
 Atoms. Timestep: 1880
C 8.59302 8.4216 7.17465
C 8.37467 7.19764 7.6362
C 7.02808 6.66723 7.61647
C 6.04979 7.54976 7.59484
H 9.60124 8.78788 7.20985
H 7.99354 9.24998 6.69523
H 9.15636 6.66239 8.08774
H 6.86727 5.63903 7.4945
H 6.22564 8.57472 7.69281
H 5.00661 7.28862 7.57586
10
 Atoms. Timestep: 1900
C 8.61377 8.42624 7.12253
C 8.36297 7.21893 7.6692
C 7.03691 6.64758 7.58019
C 6.02939 7.54161 7.64181
H 9.62454 8.9251 7.33073
H 7.97266 9.13137 6.67218
H 9.2322 6.70559 8.12474
H 6.7841 5.59067 7.53958
H 6.25659 8.6078 7.88194
H 4.99566 7.25326 7.25746
10
 Atoms. Timestep: 1920
C 8.57566 8.44368 7.1583
C 8.38031 7.23312 7.67731
C 7.03561 6.65743 7.5747
C 6.08387 7.57361 7.60304
H 9.5471 8.85778 7.35825
H 7.74275 8.82292 6.54956
H 9.2147 6.65669 8.16834
H 6.86037 5.52965 7.46598
H 6.19322 8.59899 8.00699
H 5.11315 7.30695 7.25975
10
 Atoms. Timestep: 1940
C 8.59199 8.43489 7.19718
C 8.40271 7.18915 7.70714
C 7.08548 6.68401 7.57943
C 6.01447 7.56506 7.57703
H 9.47766 9.06656 7.215
H 7.79264 8.7345 6.42994
H 9.15371 6.6516 8.22829
H 6.94753 5.65745 7.29941
H 6.21149 8.5318 7.98055
H 4.97314 7.33941 7.3711
10
 Atoms. Timestep: 1960
C 8.59034 8.40615 7.17611
C 8.44699 7.22165 7.75701
C 7.02607 6.70052 7.53155
C 6.02322 7.52958 7.58874
H 9.41093 9.11253 7.19533
H 7.91664 8.82209 6.46997
H 9.17261 6.64593 8.32723
H 6.94507 5.68549 7.21586
H 6.20131 8.55858 7.91119
H 4.95775 7.24797 7.44897
10
 Atoms. Timestep: 1980
C 8.58098 8.42596 7.13721
C 8.36948 7.24581 7.76626
C 7.08528 6.66796 7.49197
C 6.05594 7.55411 7.61501
H 9.56119 8.94997 7.37921
H 7.79398 8.81696 6.52887
H 9.176 6.75686 8.40756
H 6.85653 5.56589 7.20764
H 6.13429 8.63249 7.87023
H 5.05194 7.13481 7.43276
10
 Atoms. Timestep: 2000
C 8.60936 8.41807 7.16523
C 8.34671 7.27505 7.71364
C 7.06766 6.66933 7.50728
C 6.07036 7.50333 7.60794
H 9.55961 8.89027 7.40763
H 7.82416 8.91628 6.52825
H 9.05967 6.89108 8.4046
H 6.89149 5.62897 7.3202
H 6.14357 8.52553 7.88895
H 5.08104 7.17316 7.37479
10
 Atoms. Timestep: 2020
C 8.6003 8.47948 7.17995
C 8.38383 7.23198 7.70703
C 7.06392 6.63132 7.54521
C 6.0113 7.5031 7.56968
H 9.51578 8.99372 7.34459
H 8.01685 9.04858 6.4546
H 9.06579 6.80144 8.42158
H 6.97971 5.59098 7.38685
H 6.22773 8.51262 7.9323
H 4.962 7.1974 7.33782
10
 Atoms. Timestep: 2040
C 8.53625 8.48301 7.21448
C 8.38763 7.25009 7.7162
C 7.06062 6.63416 7.56472
C 6.05966 7.5115 7.51605
H 9.49268 9.02689 7.40105
H 7.957 8.92455 6.43862
H 9.18412 6.68691 8.30152
H 6.98375 5.49561 7.41695
H 6.21587 8.54983 7.87388
H 5.02569 7.26368 7.38828
10
 Atoms. Timestep: 2060
C 8.58946 8.47335 7.2271
C 8.3672 7.25948 7.73324
C 7.09073 6.6564 7.55752
C 6.04261 7.49614 7.51251
H 9.51064 9.09882 7.49235
H 7.7427 8.76266 6.56205
H 9.23503 6.7376 8.12109
H 6.89551 5.57613 7.46981
H 6.21195 8.5339 7.70827
H 4.98815 7.19865 7.35322
10
 Atoms. Timestep: 2080
C 8.57206 8.46178 7.23513
C 8.43752 7.2363 7.73955
C 7.0646 6.66596 7.55293
C 6.03307 7.50286 7.51035
H 9.3863 9.07456 7.37475
H 7.75155 8.98692 6.71635
H 9.2307 6.6758 8.18507
H 6.9369 5.63012 7.51242
H 6.12711 8.57858 7.58472
H 5.04796 7.07258 7.2879
10
 Atoms. Timestep: 2100
C 8.55282 8.49785 7.25561
C 8.4406 7.20392 7.70358
C 7.099 6.68195 7.59164
C 6.00713 7.48966 7.47776
H 9.51895 9.043 7.27239
H 7.80152 9.11092 6.81113
H 9.20965 6.63457 8.29037
H 6.9626 5.5585 7.52641
H 5.97825 8.59881 7.54728
H 5.05565 7.03401 7.2699
10
 Atoms. Timestep: 2120
C 8.57722 8.49108 7.30149