ITEM: TIMESTEP
0
ITEM: NUMBER OF ATOMS
10
ITEM: BOX BOUNDS pp pp pp
0.0000000000000000e+00 1.5000000000000000e+01
0.0000000000000000e+00 1.5000000000000000e+01
0.0000000000000000e+00 1.5000000000000000e+01
ITEM: ATOMS id type x y z
10 2 5.94196 8.47259 9.28848
4 1 6.59603 8.28268 8.41479
7 2 7.671 5.9062 6.31441
8 2 6.21711 6.2284 8.15506
9 2 7.08912 9.29888 8.09104
1 1 8.8041 7.64335 6.72488
3 1 6.79808 7.06612 7.93985
2 1 7.76152 6.8573 6.85901
6 2 8.81786 8.52457 7.371
5 2 9.62859 7.69268 6.03779
ITEM: TIMESTEP
100
ITEM: NUMBER OF ATOMS
10
ITEM: BOX BOUNDS pp pp pp
0.0000000000000000e+00 1.5000000000000000e+01
0.0000000000000000e+00 1.5000000000000000e+01
0.0000000000000000e+00 1.5000000000000000e+01
ITEM: ATOMS id type x y z
10 2 5.94475 8.54834 9.16437
4 1 6.53069 8.248 8.27934
7 2 7.5883 6.18386 6.07923
8 2 6.40491 6.09902 8.43758
9 2 6.81061 8.9516 7.56806
1 1 8.8116 7.73315 6.87335
3 1 6.85724 7.00479 7.96809
2 1 7.79784 6.89584 6.86831
6 2 8.96342 8.37714 7.74214
5 2 9.42778 7.76939 5.96305
ITEM: TIMESTEP
200
ITEM: NUMBER OF ATOMS
10
ITEM: BOX BOUNDS pp pp pp
0.0000000000000000e+00 1.5000000000000000e+01
0.0000000000000000e+00 1.5000000000000000e+01
0.0000000000000000e+00 1.5000000000000000e+01
ITEM: ATOMS id type x y z
10 2 5.82214 8.45759 9.07977
4 1 6.54373 8.24646 8.30513
7 2 7.95125 5.95232 6.21172
8 2 6.24972 6.05061 8.25673
9 2 6.83284 9.10734 7.69101
1 1 8.79266 7.85082 6.87437
3 1 6.77558 6.94473 7.91531
2 1 7.85058 6.81446 6.91071
6 2 8.93624 8.68766 7.54585
5 2 9.55651 7.82571 6.07087
ITEM: TIMESTEP
300
ITEM: NUMBER OF ATOMS
10
ITEM: BOX BOUNDS pp pp pp
0.0000000000000000e+00 1.5000000000000000e+01
0.0000000000000000e+00 1.5000000000000000e+01
0.0000000000000000e+00 1.5000000000000000e+01
ITEM: ATOMS id type x y z
10 2 5.64094 8.2308 8.93748
4 1 6.52304 8.19342 8.31902
7 2 8.12748 5.90931 6.42802
8 2 6.15825 6.22344 8.19252
9 2 6.84912 9.18194 7.95036
1 1 8.74423 7.85552 6.82842
3 1 6.81814 6.99505 7.82454
2 1 7.9431 6.81507 6.97834
6 2 8.59712 8.75973 7.47319
5 2 9.5801 7.76041 6.20551
ITEM: TIMESTEP
400
ITEM: NUMBER OF ATOMS
10
ITEM: BOX BOUNDS pp pp pp
0.0000000000000000e+00 1.5000000000000000e+01
0.0000000000000000e+00 1.5000000000000000e+01
0.0000000000000000e+00 1.5000000000000000e+01
ITEM: ATOMS id type x y z
10 2 5.49873 8.29435 8.88096
4 1 6.40675 8.16779 8.25564
7 2 8.09313 6.02502 6.26636
8 2 6.29747 6.10234 8.29282
9 2 6.67607 9.10126 7.7706
1 1 8.7918 7.87451 6.87688
3 1 6.8519 6.94875 7.88098
2 1 7.94411 6.84493 6.9882
6 2 8.90857 8.71506 7.51759
5 2 9.68272 7.96606 6.15048
ITEM: TIMESTEP
500
ITEM: NUMBER OF ATOMS
10
ITEM: BOX BOUNDS pp pp pp
0.0000000000000000e+00 1.5000000000000000e+01
0.0000000000000000e+00 1.5000000000000000e+01
0.0000000000000000e+00 1.5000000000000000e+01
ITEM: ATOMS id type x y z
10 2 5.68135 8.33352 8.96314
4 1 6.33901 8.11271 8.11542
7 2 8.04797 6.14598 6.21255
8 2 6.66465 5.99803 8.47579
9 2 6.47482 8.90074 7.38064
1 1 8.82765 7.9167 6.96501
3 1 6.862 6.93213 7.93517
2 1 7.95113 6.94094 6.94507
6 2 8.76417 8.59182 7.80797
5 2 9.61234 7.83503 6.28484
ITEM: TIMESTEP
600
ITEM: NUMBER OF ATOMS
10
ITEM: BOX BOUNDS pp pp pp
0.0000000000000000e+00 1.5000000000000000e+01
0.0000000000000000e+00 1.5000000000000000e+01
0.0000000000000000e+00 1.5000000000000000e+01
ITEM: ATOMS id type x y z
10 2 5.53954 8.28355 8.89679
4 1 6.26726 8.09288 8.11386
7 2 8.22143 5.89431 6.53853
8 2 6.41414 5.88824 8.10819
9 2 6.75854 8.92276 7.56051
1 1 8.7989 8.02988 6.96803
3 1 6.84271 6.86853 7.91229
2 1 8.06202 6.87246 7.01646
6 2 8.72972 8.98209 7.52026
5 2 9.63527 8.06657 6.20083
ITEM: TIMESTEP
700
ITEM: NUMBER OF ATOMS
10
ITEM: BOX BOUNDS pp pp pp
0.0000000000000000e+00 1.5000000000000000e+01
0.0000000000000000e+00 1.5000000000000000e+01
0.0000000000000000e+00 1.5000000000000000e+01
ITEM: ATOMS id type x y z
10 2 5.33729 8.05417 8.64954
4 1 6.29097 8.0698 8.08739
7 2 8.54948 5.91216 6.78842
8 2 6.38752 5.92348 7.96267
9 2 6.71372 9.03708 7.94785
1 1 8.75023 8.02306 6.9417
3 1 6.85808 6.91304 7.84022
2 1 8.14946 6.8761 7.08899
6 2 8.09444 8.79934 7.31609
5 2 9.7491 8.20175 6.47467
ITEM: TIMESTEP
800
ITEM: NUMBER OF ATOMS
10
ITEM: BOX BOUNDS pp pp pp
0.0000000000000000e+00 1.5000000000000000e+01
0.0000000000000000e+00 1.5000000000000000e+01
0.0000000000000000e+00 1.5000000000000000e+01
ITEM: ATOMS id type x y z
10 2 5.22378 8.18709 8.49757
4 1 6.23316 7.99551 8.09772
7 2 8.67412 5.97639 6.80764
8 2 6.34559 5.90878 8.02385
9 2 6.80091 8.93725 7.90942
1 1 8.74245 8.10471 6.94407
3 1 6.85892 6.83118 7.77832
2 1 8.1657 6.8843 7.15964
6 2 8.33765 9.07986 7.14297
5 2 9.74056 8.23644 6.62901
ITEM: TIMESTEP
900
ITEM: NUMBER OF ATOMS
10
ITEM: BOX BOUNDS pp pp pp
0.0000000000000000e+00 1.5000000000000000e+01
0.0000000000000000e+00 1.5000000000000000e+01
0.0000000000000000e+00 1.5000000000000000e+01
ITEM: ATOMS id type x y z
10 2 5.23942 7.96674 8.35669
4 1 6.26282 7.97175 8.06707
7 2 8.81686 6.09985 6.96356
8 2 6.34254 5.87047 7.91588
9 2 6.70108 8.9555 7.99614
1 1 8.71354 8.10991 6.94417
3 1 6.83965 6.83087 7.7288
2 1 8.19436 6.94067 7.24861
6 2 8.2014 9.03954 7.15213
5 2 9.76046 8.16868 6.5727
ITEM: TIMESTEP
1000
ITEM: NUMBER OF ATOMS
10
ITEM: BOX BOUNDS pp pp pp
0.0000000000000000e+00 1.5000000000000000e+01
0.0000000000000000e+00 1.5000000000000000e+01
0.0000000000000000e+00 1.5000000000000000e+01
ITEM: ATOMS id type x y z
10 2 5.14282 7.7959 8.41341
4 1 6.22271 7.95116 8.10552
7 2 8.97357 6.05595 7.54621
8 2 6.22842 5.96946 7.5273
9 2 6.648 8.94728 8.32018
1 1 8.67723 8.1399 6.92084
3 1 6.86199 6.87444 7.59829
2 1 8.30112 6.8874 7.33011
6 2 8.02442 9.00364 6.6863
5 2 9.72842 8.33037 6.66703
ITEM: TIMESTEP
1100
ITEM: NUMBER OF ATOMS
10
ITEM: BOX BOUNDS pp pp pp
0.0000000000000000e+00 1.5000000000000000e+01
0.0000000000000000e+00 1.5000000000000000e+01
0.0000000000000000e+00 1.5000000000000000e+01
ITEM: ATOMS id type x y z
10 2 5.09466 7.77931 8.22064
4 1 6.19991 7.90333 8.0757
7 2 9.0133 6.25522 7.80639
8 2 6.37586 5.96921 7.24505
9 2 6.68667 8.81973 8.47786
1 1 8.69795 8.15817 6.9169
3 1 6.85604 6.83214 7.61228
2 1 8.29664 6.98548 7.37115
6 2 7.91981 8.77421 6.59427
5 2 9.7305 8.34765 6.68859
ITEM: TIMESTEP
1200
ITEM: NUMBER OF ATOMS
10
ITEM: BOX BOUNDS pp pp pp
0.0000000000000000e+00 1.5000000000000000e+01
0.0000000000000000e+00 1.5000000000000000e+01
0.0000000000000000e+00 1.5000000000000000e+01
ITEM: ATOMS id type x y z
10 2 5.03049 7.89624 8.04789
4 1 6.13735 7.80949 7.93143
7 2 8.94818 6.18834 7.45602
8 2 6.44743 5.72984 7.71316
9 2 6.66279 8.72755 8.02236
1 1 8.71912 8.23026 7.01586
3 1 6.88718 6.77473 7.75654
2 1 8.27752 7.02607 7.29464
6 2 8.11801 9.16427 6.85484
5 2 9.79008 8.47048 6.80397
ITEM: TIMESTEP
1300
ITEM: NUMBER OF ATOMS
10
ITEM: BOX BOUNDS pp pp pp
0.0000000000000000e+00 1.5000000000000000e+01
0.0000000000000000e+00 1.5000000000000000e+01
0.0000000000000000e+00 1.5000000000000000e+01
ITEM: ATOMS id type x y z
10 2 5.05827 7.694 7.96886
4 1 6.10084 7.83295 7.85836
7 2 9.06934 6.22119 7.3223
8 2 6.62195 5.74761 7.93425
9 2 6.50629 8.86501 7.76514
1 1 8.69511 8.27264 7.06012
3 1 6.93001 6.7471 7.73498
2 1 8.29777 6.99364 7.3267
6 2 7.97066 9.03183 7.06404
5 2 9.75508 8.58233 6.95351
ITEM: TIMESTEP
1400
ITEM: NUMBER OF ATOMS
10
ITEM: BOX BOUNDS pp pp pp
0.0000000000000000e+00 1.5000000000000000e+01
0.0000000000000000e+00 1.5000000000000000e+01
0.0000000000000000e+00 1.5000000000000000e+01
ITEM: ATOMS id type x y z
10 2 5.011 7.57772 7.87718
4 1 6.11833 7.8016 7.83656
7 2 9.15806 6.18581 7.58071
8 2 6.54815 5.75322 7.72057
9 2 6.29131 8.85895 7.86163
1 1 8.6295 8.25985 7.03874
3 1 6.95879 6.78411 7.64551
2 1 8.40917 7.01687 7.46716
6 2 7.80752 9.05403 6.9039
5 2 9.61321 8.61572 7.01726
ITEM: TIMESTEP
1500
ITEM: NUMBER OF ATOMS
10
ITEM: BOX BOUNDS pp pp pp
0.0000000000000000e+00 1.5000000000000000e+01
0.0000000000000000e+00 1.5000000000000000e+01
0.0000000000000000e+00 1.5000000000000000e+01
ITEM: ATOMS id type x y z
10 2 5.05075 7.5673 7.88311
4 1 6.10508 7.73094 7.85142
7 2 9.12626 6.5905 8.04701
8 2 6.58466 5.73001 7.32169
9 2 6.52345 8.73262 8.09524
1 1 8.65208 8.27754 6.98908
3 1 6.96266 6.71634 7.55837
2 1 8.31261 7.10451 7.59504
6 2 7.92991 8.94647 6.59238
5 2 9.71443 8.67721 6.98611
ITEM: TIMESTEP
1600
ITEM: NUMBER OF ATOMS
10
ITEM: BOX BOUNDS pp pp pp
0.0000000000000000e+00 1.5000000000000000e+01
0.0000000000000000e+00 1.5000000000000000e+01
0.0000000000000000e+00 1.5000000000000000e+01
ITEM: ATOMS id type x y z
10 2 5.00044 7.61418 7.78214
4 1 6.10482 7.67115 7.76338
7 2 9.11389 6.51889 8.04709
8 2 6.64503 5.69464 7.36596
9 2 6.4356 8.65191 7.9842
1 1 8.65207 8.31183 7.04454
3 1 6.96463 6.70673 7.64174
2 1 8.34372 7.15599 7.55629
6 2 7.88334 9.04068 6.67613
5 2 9.65428 8.62544 6.9978
ITEM: TIMESTEP
1700
ITEM: NUMBER OF ATOMS
10
ITEM: BOX BOUNDS pp pp pp
0.0000000000000000e+00 1.5000000000000000e+01
0.0000000000000000e+00 1.5000000000000000e+01
0.0000000000000000e+00 1.5000000000000000e+01
ITEM: ATOMS id type x y z
10 2 4.96843 7.392 7.73501
4 1 6.02197 7.68221 7.64984
7 2 9.20225 6.39456 7.79922
8 2 6.77132 5.67279 7.71054
9 2 6.30316 8.77304 7.64504
1 1 8.63891 8.3768 7.13917
3 1 6.98561 6.71829 7.72947
2 1 8.40514 7.07152 7.48005
6 2 7.87613 9.06078 6.93334
5 2 9.69289 8.83386 7.07472
ITEM: TIMESTEP
1800
ITEM: NUMBER OF ATOMS
10
ITEM: BOX BOUNDS pp pp pp
0.0000000000000000e+00 1.5000000000000000e+01
0.0000000000000000e+00 1.5000000000000000e+01
0.0000000000000000e+00 1.5000000000000000e+01
ITEM: ATOMS id type x y z
10 2 5.02724 7.29791 7.53476
4 1 6.04251 7.63545 7.59767
7 2 9.23951 6.42843 7.79167
8 2 6.73949 5.62553 7.88622
9 2 6.1482 8.68918 7.55219
1 1 8.62666 8.40267 7.17855
3 1 6.99366 6.71961 7.71042
2 1 8.45113 7.13387 7.48828
6 2 7.70675 9.03341 6.95329
5 2 9.57899 8.79596 7.32138
ITEM: TIMESTEP
1900
ITEM: NUMBER OF ATOMS
10
ITEM: BOX BOUNDS pp pp pp
0.0000000000000000e+00 1.5000000000000000e+01
0.0000000000000000e+00 1.5000000000000000e+01
0.0000000000000000e+00 1.5000000000000000e+01
ITEM: ATOMS id type x y z
10 2 4.99566 7.25326 7.25746
4 1 6.02939 7.54161 7.64181
7 2 9.2322 6.70559 8.12474
8 2 6.7841 5.59067 7.53958
9 2 6.25659 8.6078 7.88194
1 1 8.61377 8.42624 7.12253
3 1 7.03691 6.64758 7.58019
2 1 8.36297 7.21893 7.6692
6 2 7.97266 9.13137 6.67218
5 2 9.62454 8.9251 7.33073
ITEM: TIMESTEP
2000
ITEM: NUMBER OF ATOMS
10
ITEM: BOX BOUNDS pp pp pp
0.0000000000000000e+00 1.5000000000000000e+01
0.0000000000000000e+00 1.5000000000000000e+01
0.0000000000000000e+00 1.5000000000000000e+01
ITEM: ATOMS id type x y z
10 2 5.08104 7.17316 7.37479
4 1 6.07036 7.50333 7.60794
7 2 9.05967 6.89108 8.4046
8 2 6.89149 5.62897 7.3202
9 2 6.14357 8.52553 7.88895
1 1 8.60936 8.41807 7.16523
3 1 7.06766 6.66933 7.50728
2 1 8.34671 7.27505 7.71364
6 2 7.82416 8.91628 6.52825
5 2 9.55961 8.89027 7.40763
ITEM: TIMESTEP
2100
ITEM: NUMBER OF ATOMS
10
ITEM: BOX BOUNDS pp pp pp
0.0000000000000000e+00 1.5000000000000000e+01
0.0000000000000000e+00 1.5000000000000000e+01
0.0000000000000000e+00 1.5000000000000000e+01
ITEM: ATOMS id type x y z
10 2 5.05565 7.03401 7.2699
4 1 6.00713 7.48966 7.47776
7 2 9.20965 6.63457 8.29037
8 2 6.9626 5.5585 7.52641
9 2 5.97825 8.59881 7.54728
1 1 8.55282 8.49785 7.25561
3 1 7.099 6.68195 7.59164
2 1 8.4406 7.20392 7.70358
6 2 7.80152 9.11092 6.81113
5 2 9.51895 9.043 7.27239
ITEM: TIMESTEP
2200
ITEM: NUMBER OF ATOMS
10
ITEM: BOX BOUNDS pp pp pp
0.0000000000000000e+00 1.5000000000000000e+01
0.0000000000000000e+00 1.5000000000000000e+01
0.0000000000000000e+00 1.5000000000000000e+01
ITEM: ATOMS id type x y z
10 2 5.04363 6.97943 7.30449
4 1 6.06646 7.46864 7.40375
7 2 9.16117 6.79313 8.28793
8 2 7.00565 5.58896 7.68636
9 2 6.1348 8.53936 7.38111
1 1 8.52759 8.52822 7.32067
3 1 7.09201 6.63132 7.60407
2 1 8.42096 7.25334 7.65396
6 2 7.68645 9.00677 6.85857
5 2 9.45019 9.02322 7.47586
ITEM: TIMESTEP
2300
ITEM: NUMBER OF ATOMS
10
ITEM: BOX BOUNDS pp pp pp
0.0000000000000000e+00 1.5000000000000000e+01
0.0000000000000000e+00 1.5000000000000000e+01
0.0000000000000000e+00 1.5000000000000000e+01
ITEM: ATOMS id type x y z
10 2 5.08877 7.20684 6.96169
4 1 6.03775 7.37206 7.40718
7 2 9.15529 6.93559 8.56074
8 2 7.03962 5.50214 7.3067
9 2 6.15547 8.45824 7.74491
1 1 8.52281 8.5292 7.25709
3 1 7.12475 6.60419 7.55467
2 1 8.40435 7.29981 7.82926
6 2 7.75101 9.04775 6.62359
5 2 9.39596 9.23791 7.40215
ITEM: TIMESTEP
2400
ITEM: NUMBER OF ATOMS
10
ITEM: BOX BOUNDS pp pp pp
0.0000000000000000e+00 1.5000000000000000e+01
0.0000000000000000e+00 1.5000000000000000e+01
0.0000000000000000e+00 1.5000000000000000e+01
ITEM: ATOMS id type x y z
10 2 5.14663 6.91417 7.0383
4 1 6.07213 7.37165 7.38578
7 2 9.06732 7.13026 8.58554
8 2 7.088 5.53246 7.34364
9 2 6.12166 8.35149 7.62668
1 1 8.53626 8.55652 7.29601
3 1 7.14442 6.60022 7.48832
2 1 8.35009 7.34391 7.83177
6 2 7.7682 8.84975 6.63437
5 2 9.31473 9.20814 7.64918
ITEM: TIMESTEP
2500
ITEM: NUMBER OF ATOMS
10
ITEM: BOX BOUNDS pp pp pp
0.0000000000000000e+00 1.5000000000000000e+01
0.0000000000000000e+00 1.5000000000000000e+01
0.0000000000000000e+00 1.5000000000000000e+01
ITEM: ATOMS id type x y z
10 2 5.11223 6.73593 7.03675
4 1 6.05479 7.30316 7.26378
7 2 9.21297 6.80475 8.49716
8 2 7.08291 5.53401 7.56153
9 2 5.84528 8.46001 7.23085
1 1 8.46913 8.58785 7.35742
3 1 7.18218 6.6294 7.53932
2 1 8.43646 7.35691 7.84989
6 2 7.70866 9.19237 6.84752
5 2 9.30661 9.22901 7.65276
ITEM: TIMESTEP
2600
ITEM: NUMBER OF ATOMS
10
ITEM: BOX BOUNDS pp pp pp
0.0000000000000000e+00 1.5000000000000000e+01
0.0000000000000000e+00 1.5000000000000000e+01
0.0000000000000000e+00 1.5000000000000000e+01
ITEM: ATOMS id type x y z
10 2 5.26504 6.5997 6.84937
4 1 6.07396 7.29377 7.21101
7 2 9.13625 7.00853 8.43898
8 2 7.31187 5.54911 7.55897
9 2 5.9218 8.34682 7.30566
1 1 8.46468 8.62436 7.38888
3 1 7.18918 6.62196 7.57378
2 1 8.36267 7.3625 7.85004
6 2 7.62225 9.10633 6.85681
5 2 9.32388 9.19388 7.73693
ITEM: TIMESTEP
2700
ITEM: NUMBER OF ATOMS
10
ITEM: BOX BOUNDS pp pp pp
0.0000000000000000e+00 1.5000000000000000e+01
0.0000000000000000e+00 1.5000000000000000e+01
0.0000000000000000e+00 1.5000000000000000e+01
ITEM: ATOMS id type x y z
10 2 5.22811 6.83142 6.80367
4 1 6.10869 7.20306 7.23071
7 2 8.86871 7.07755 8.8506
8 2 7.36109 5.49984 7.32918
9 2 5.91137 8.21397 7.50978
1 1 8.43838 8.63953 7.36428
3 1 7.23294 6.58984 7.50921
2 1 8.33518 7.4251 7.89223
6 2 7.95651 9.08872 6.53665
5 2 9.10704 9.36332 7.88052
ITEM: TIMESTEP
2800
ITEM: NUMBER OF ATOMS
10
ITEM: BOX BOUNDS pp pp pp
0.0000000000000000e+00 1.5000000000000000e+01
0.0000000000000000e+00 1.5000000000000000e+01
0.0000000000000000e+00 1.5000000000000000e+01
ITEM: ATOMS id type x y z
10 2 5.40466 6.55262 6.49179
4 1 6.1041 7.19863 7.1376
7 2 9.0855 7.1375 8.6909
8 2 7.37996 5.5354 7.36122
9 2 5.90002 8.25959 7.42458
1 1 8.41122 8.67669 7.45148
3 1 7.24255 6.58934 7.56283
2 1 8.33094 7.42682 7.93398
6 2 7.68524 8.9773 6.64879
5 2 9.13582 9.4087 7.75644
ITEM: TIMESTEP
2900
ITEM: NUMBER OF ATOMS
10
ITEM: BOX BOUNDS pp pp pp
0.0000000000000000e+00 1.5000000000000000e+01
0.0000000000000000e+00 1.5000000000000000e+01
0.0000000000000000e+00 1.5000000000000000e+01
ITEM: ATOMS id type x y z
10 2 5.29551 6.54579 6.75921
4 1 6.14815 7.14217 7.05839
7 2 9.13252 7.13387 8.68084
8 2 7.21336 5.48895 7.66095
9 2 5.93062 8.1984 6.92496
1 1 8.32436 8.72342 7.51197
3 1 7.2441 6.56785 7.5165
2 1 8.42426 7.45946 7.93517
6 2 7.65197 9.0824 6.75765
5 2 9.05483 9.41315 7.97321
ITEM: TIMESTEP
3000
ITEM: NUMBER OF ATOMS
10
ITEM: BOX BOUNDS pp pp pp
0.0000000000000000e+00 1.5000000000000000e+01
0.0000000000000000e+00 1.5000000000000000e+01
0.0000000000000000e+00 1.5000000000000000e+01
ITEM: ATOMS id type x y z
10 2 5.48067 6.43873 6.49969
4 1 6.14019 7.11595 7.04327
7 2 9.09352 7.29777 8.84071
8 2 7.47867 5.43663 7.39673
9 2 5.97193 8.16926 7.16154
1 1 8.3232 8.72558 7.51137
3 1 7.29331 6.56838 7.48807
2 1 8.30326 7.48017 8.03492
6 2 7.6361 9.09923 6.70005
5 2 9.10336 9.43789 7.82453
ITEM: TIMESTEP
3100
ITEM: NUMBER OF ATOMS
10
ITEM: BOX BOUNDS pp pp pp
0.0000000000000000e+00 1.5000000000000000e+01
0.0000000000000000e+00 1.5000000000000000e+01
0.0000000000000000e+00 1.5000000000000000e+01
ITEM: ATOMS id type x y z
10 2 5.44019 6.53129 6.45993
4 1 6.21492 7.05376 7.0656
7 2 8.67182 7.29219 8.96003
8 2 7.60197 5.55579 7.22191
9 2 5.92004 8.12939 7.23376
1 1 8.31038 8.7397 7.51282
3 1 7.37433 6.53242 7.4472
2 1 8.22693 7.5529 8.04807
6 2 7.78601 8.95023 6.60285
5 2 8.94459 9.4884 7.96841
ITEM: TIMESTEP
3200
ITEM: NUMBER OF ATOMS
10
ITEM: BOX BOUNDS pp pp pp
0.0000000000000000e+00 1.5000000000000000e+01
0.0000000000000000e+00 1.5000000000000000e+01
0.0000000000000000e+00 1.5000000000000000e+01
ITEM: ATOMS id type x y z
10 2 5.5857 6.35807 6.33297
4 1 6.22419 7.01954 6.93744
7 2 8.90845 7.16685 8.94953
8 2 7.6608 5.47026 7.57653
9 2 6.06738 8.07572 6.91177
1 1 8.22778 8.78287 7.59333
3 1 7.35154 6.5873 7.50931
2 1 8.28787 7.49807 8.02593
6 2 7.63981 9.13676 6.72752
5 2 8.71356 9.6857 7.99463
ITEM: TIMESTEP
3300
ITEM: NUMBER OF ATOMS
10
ITEM: BOX BOUNDS pp pp pp
0.0000000000000000e+00 1.5000000000000000e+01
0.0000000000000000e+00 1.5000000000000000e+01
0.0000000000000000e+00 1.5000000000000000e+01
ITEM: ATOMS id type x y z
10 2 5.75105 6.31496 6.22315
4 1 6.29773 6.98594 6.83023
7 2 8.98602 7.24699 8.81334
8 2 7.67631 5.57207 7.65479
9 2 5.94838 7.9986 6.63807
1 1 8.15016 8.80091 7.63106
3 1 7.35581 6.59603 7.55877
2 1 8.28815 7.55199 8.08065
6 2 7.42733 8.93202 6.85279
5 2 8.78375 9.54617 8.10256
ITEM: TIMESTEP
3400
ITEM: NUMBER OF ATOMS
10
ITEM: BOX BOUNDS pp pp pp
0.0000000000000000e+00 1.5000000000000000e+01
0.0000000000000000e+00 1.5000000000000000e+01
0.0000000000000000e+00 1.5000000000000000e+01
ITEM: ATOMS id type x y z
10 2 5.66267 6.19331 6.27994
4 1 6.31212 6.94587 6.85158
7 2 8.69447 7.38766 9.11729
8 2 7.76817 5.48232 7.43013
9 2 6.00854 8.01235 6.90245
1 1 8.15293 8.81414 7.61607
3 1 7.43941 6.53261 7.45206
2 1 8.20275 7.58251 8.13622
6 2 7.81193 9.21407 6.62343
5 2 8.53497 9.67953 8.2002
ITEM: TIMESTEP
3500
ITEM: NUMBER OF ATOMS
10
ITEM: BOX BOUNDS pp pp pp
0.0000000000000000e+00 1.5000000000000000e+01
0.0000000000000000e+00 1.5000000000000000e+01
0.0000000000000000e+00 1.5000000000000000e+01
ITEM: ATOMS id type x y z
10 2 5.91777 6.229 6.1592
4 1 6.35447 6.91587 6.82216
7 2 8.71714 7.47278 9.08216
8 2 7.90987 5.57775 7.17605
9 2 5.84946 7.83166 7.01013
1 1 8.14536 8.84109 7.635
3 1 7.44982 6.54627 7.46148
2 1 8.09995 7.627 8.18879
6 2 7.71237 8.93746 6.67268
5 2 8.71983 9.58996 8.14421
ITEM: TIMESTEP
3600
ITEM: NUMBER OF ATOMS
10
ITEM: BOX BOUNDS pp pp pp
0.0000000000000000e+00 1.5000000000000000e+01
0.0000000000000000e+00 1.5000000000000000e+01
0.0000000000000000e+00 1.5000000000000000e+01
ITEM: ATOMS id type x y z
10 2 5.71217 6.15498 6.21417
4 1 6.4145 6.86641 6.71755
7 2 8.85847 7.44466 9.03312
8 2 7.74226 5.50574 7.55011
9 2 6.05513 7.91293 6.58328
1 1 8.04239 8.8585 7.70095
3 1 7.45358 6.53739 7.48122
2 1 8.20881 7.60843 8.18096
6 2 7.54998 9.23994 6.78981
5 2 8.49028 9.73739 8.23444
ITEM: TIMESTEP
3700
ITEM: NUMBER OF ATOMS
10
ITEM: BOX BOUNDS pp pp pp
0.0000000000000000e+00 1.5000000000000000e+01
0.0000000000000000e+00 1.5000000000000000e+01
0.0000000000000000e+00 1.5000000000000000e+01
ITEM: ATOMS id type x y z
10 2 5.8981 6.08493 6.13277
4 1 6.48847 6.87909 6.63853
7 2 8.87272 7.50749 9.00377
8 2 7.80737 5.52081 7.67379
9 2 6.18843 7.92219 6.51
1 1 7.98296 8.85355 7.74903
3 1 7.44816 6.55046 7.52666
2 1 8.1666 7.63367 8.15813
6 2 7.37147 8.97738 6.87271
5 2 8.46874 9.70659 8.2619
ITEM: TIMESTEP
3800
ITEM: NUMBER OF ATOMS
10
ITEM: BOX BOUNDS pp pp pp
0.0000000000000000e+00 1.5000000000000000e+01
0.0000000000000000e+00 1.5000000000000000e+01
0.0000000000000000e+00 1.5000000000000000e+01
ITEM: ATOMS id type x y z
10 2 6.08505 6.28747 5.86525
4 1 6.51363 6.82955 6.65908
7 2 8.57034 7.35127 9.21734
8 2 8.08034 5.57625 7.36112
9 2 5.99599 7.78486 6.79099
1 1 7.96348 8.89422 7.69702
3 1 7.53468 6.51963 7.47539
2 1 8.08739 7.65276 8.31214
6 2 7.56995 8.99414 6.67914
5 2 8.22729 9.84908 8.11336
ITEM: TIMESTEP
3900
ITEM: NUMBER OF ATOMS
10
ITEM: BOX BOUNDS pp pp pp
0.0000000000000000e+00 1.5000000000000000e+01
0.0000000000000000e+00 1.5000000000000000e+01
0.0000000000000000e+00 1.5000000000000000e+01
ITEM: ATOMS id type x y z
10 2 6.12553 6.01436 6.01178
4 1 6.53132 6.82788 6.69867
7 2 8.21219 7.51662 9.3179
8 2 8.22677 5.62028 7.38758
9 2 6.13249 7.84121 6.83842
1 1 7.9267 8.88241 7.74448
3 1 7.63899 6.54826 7.37755
2 1 8.01007 7.65015 8.23498
6 2 7.78668 8.94414 6.65264
5 2 7.99782 9.83119 8.34664
ITEM: TIMESTEP
4000
ITEM: NUMBER OF ATOMS
10
ITEM: BOX BOUNDS pp pp pp
0.0000000000000000e+00 1.5000000000000000e+01
0.0000000000000000e+00 1.5000000000000000e+01
0.0000000000000000e+00 1.5000000000000000e+01
ITEM: ATOMS id type x y z
10 2 6.27832 6.07196 5.82998
4 1 6.58685 6.7637 6.58523
7 2 8.62219 7.46519 9.19477
8 2 8.08758 5.61139 7.50645
9 2 6.04621 7.66681 6.39862
1 1 7.85633 8.89266 7.77288
3 1 7.59682 6.58282 7.47144
2 1 8.03458 7.68413 8.3084
6 2 7.36076 9.11387 6.86544
5 2 8.28149 9.75094 8.26605
ITEM: TIMESTEP
4100
ITEM: NUMBER OF ATOMS
10
ITEM: BOX BOUNDS pp pp pp
0.0000000000000000e+00 1.5000000000000000e+01
0.0000000000000000e+00 1.5000000000000000e+01
0.0000000000000000e+00 1.5000000000000000e+01
ITEM: ATOMS id type x y z
10 2 6.31607 5.90268 6.00631
4 1 6.63855 6.7706 6.56797
7 2 8.52371 7.56308 9.2056
8 2 7.98476 5.56285 7.71847
9 2 6.29418 7.80425 6.36808
1 1 7.80653 8.91138 7.83422
3 1 7.59764 6.56292 7.43945
2 1 8.06035 7.66032 8.21432
6 2 7.36145 9.15964 6.80639
5 2 8.02538 9.79614 8.44841
ITEM: TIMESTEP
4200
ITEM: NUMBER OF ATOMS
10
ITEM: BOX BOUNDS pp pp pp
0.0000000000000000e+00 1.5000000000000000e+01
0.0000000000000000e+00 1.5000000000000000e+01
0.0000000000000000e+00 1.5000000000000000e+01
ITEM: ATOMS id type x y z
10 2 6.45273 6.11165 5.67628
4 1 6.66556 6.75941 6.57672
7 2 8.28377 7.45883 9.32612
8 2 8.23322 5.64407 7.36993
9 2 5.92538 7.5344 6.57983
1 1 7.79483 8.92686 7.76679
3 1 7.65589 6.53063 7.47483
2 1 7.98202 7.7109 8.31278
6 2 7.67359 9.08778 6.74762
5 2 7.96547 9.81652 8.40254
ITEM: TIMESTEP
4300
ITEM: NUMBER OF ATOMS
10
ITEM: BOX BOUNDS pp pp pp
0.0000000000000000e+00 1.5000000000000000e+01
0.0000000000000000e+00 1.5000000000000000e+01
0.0000000000000000e+00 1.5000000000000000e+01
ITEM: ATOMS id type x y z
10 2 6.64036 5.96979 5.75599
4 1 6.69598 6.73545 6.50776
7 2 8.09703 7.65672 9.44436
8 2 8.36905 5.68066 7.4199
9 2 6.00889 7.56203 6.71862
1 1 7.74297 8.91418 7.80506
3 1 7.66758 6.57409 7.43377
2 1 7.96898 7.68695 8.32335
6 2 7.75467 9.11133 6.69528
5 2 7.80092 9.77546 8.43521
ITEM: TIMESTEP
4400
ITEM: NUMBER OF ATOMS
10
ITEM: BOX BOUNDS pp pp pp
0.0000000000000000e+00 1.5000000000000000e+01
0.0000000000000000e+00 1.5000000000000000e+01
0.0000000000000000e+00 1.5000000000000000e+01
ITEM: ATOMS id type x y z
10 2 6.57619 5.89877 5.79218
4 1 6.85232 6.71494 6.44385
7 2 8.40185 7.70874 9.29647
8 2 8.10107 5.57582 7.611
9 2 6.21071 7.5215 6.1037
1 1 7.61003 8.93098 7.88131
3 1 7.68045 6.54271 7.46229
2 1 7.98097 7.74246 8.31252
6 2 7.28419 9.14943 6.85872
5 2 7.8074 9.77917 8.62709
ITEM: TIMESTEP
4500
ITEM: NUMBER OF ATOMS
10
ITEM: BOX BOUNDS pp pp pp
0.0000000000000000e+00 1.5000000000000000e+01
0.0000000000000000e+00 1.5000000000000000e+01
0.0000000000000000e+00 1.5000000000000000e+01
ITEM: ATOMS id type x y z
10 2 6.8638 5.75625 5.74819
4 1 6.8978 6.69479 6.40279
7 2 8.3693 7.62319 9.33257
8 2 8.19721 5.58845 7.56798
9 2 6.33446 7.60497 6.2411
1 1 7.58485 8.94348 7.8781
3 1 7.71468 6.592 7.46927
2 1 7.88657 7.71189 8.34843
6 2 7.10626 9.17167 6.92269
5 2 7.74953 9.82251 8.4849
ITEM: TIMESTEP
4600
ITEM: NUMBER OF ATOMS
10
ITEM: BOX BOUNDS pp pp pp
0.0000000000000000e+00 1.5000000000000000e+01
0.0000000000000000e+00 1.5000000000000000e+01
0.0000000000000000e+00 1.5000000000000000e+01
ITEM: ATOMS id type x y z
10 2 6.78662 5.96117 5.72495
4 1 6.91319 6.70017 6.46033
7 2 7.93028 7.5021 9.43463
8 2 8.48061 5.74729 7.60357
9 2 6.14996 7.50789 6.32741
1 1 7.60226 8.92603 7.86094
3 1 7.82025 6.59493 7.41105
2 1 7.82068 7.72231 8.3532
6 2 7.46482 9.07138 6.77486
5 2 7.37337 9.76957 8.51044
ITEM: TIMESTEP
4700
ITEM: NUMBER OF ATOMS
10
ITEM: BOX BOUNDS pp pp pp
0.0000000000000000e+00 1.5000000000000000e+01
0.0000000000000000e+00 1.5000000000000000e+01
0.0000000000000000e+00 1.5000000000000000e+01
ITEM: ATOMS id type x y z
10 2 7.02113 6.05021 5.47433
4 1 6.94323 6.68272 6.39738
7 2 7.93257 7.46737 9.45477
8 2 8.60147 5.92085 7.59066
9 2 6.16296 7.38527 6.47602
1 1 7.57967 8.90587 7.83037
3 1 7.78665 6.64711 7.46761
2 1 7.80335 7.69496 8.42198
6 2 7.38295 8.98689 6.76412
5 2 7.34554 9.82547 8.42505
ITEM: TIMESTEP
4800
ITEM: NUMBER OF ATOMS
10
ITEM: BOX BOUNDS pp pp pp
0.0000000000000000e+00 1.5000000000000000e+01
0.0000000000000000e+00 1.5000000000000000e+01
0.0000000000000000e+00 1.5000000000000000e+01
ITEM: ATOMS id type x y z
10 2 6.95217 5.93073 5.66366
4 1 7.09033 6.70645 6.37362
7 2 8.10379 7.60965 9.39164
8 2 8.29892 5.63808 7.83523
9 2 6.4592 7.61428 6.11496
1 1 7.43748 8.92528 7.9214
3 1 7.7877 6.55253 7.48725
2 1 7.86612 7.75437 8.28604
6 2 7.03172 9.03303 6.93252
5 2 7.18839 9.76246 8.54116
ITEM: TIMESTEP
4900
ITEM: NUMBER OF ATOMS
10
ITEM: BOX BOUNDS pp pp pp
0.0000000000000000e+00 1.5000000000000000e+01
0.0000000000000000e+00 1.5000000000000000e+01
0.0000000000000000e+00 1.5000000000000000e+01
ITEM: ATOMS id type x y z
10 2 7.23395 5.78676 5.58603
4 1 7.21344 6.6879 6.29402
7 2 8.31679 7.66125 9.33291
8 2 8.14271 5.59167 7.66251
9 2 6.71912 7.57251 5.94191
1 1 7.28783 8.92767 7.9135
3 1 7.76477 6.58664 7.53006
2 1 7.86167 7.75093 8.38213
6 2 6.54466 9.04074 7.09004
5 2 7.40048 9.84826 8.55736
ITEM: TIMESTEP
5000
ITEM: NUMBER OF ATOMS
10
ITEM: BOX BOUNDS pp pp pp
0.0000000000000000e+00 1.5000000000000000e+01
0.0000000000000000e+00 1.5000000000000000e+01
0.0000000000000000e+00 1.5000000000000000e+01
ITEM: ATOMS id type x y z
10 2 7.22069 5.81498 5.70965
4 1 7.35484 6.73907 6.2392
7 2 8.44885 7.98868 9.29802
8 2 7.77044 5.59355 8.03258
9 2 7.25328 7.62174 5.63535
1 1 7.17173 8.83409 7.97364
3 1 7.71895 6.58922 7.49141
2 1 7.8999 7.79703 8.34495
6 2 6.33879 8.7126 7.32314
5 2 7.21945 9.73195 8.59508
ITEM: TIMESTEP
5100
ITEM: NUMBER OF ATOMS
10
ITEM: BOX BOUNDS pp pp pp
0.0000000000000000e+00 1.5000000000000000e+01
0.0000000000000000e+00 1.5000000000000000e+01
0.0000000000000000e+00 1.5000000000000000e+01
ITEM: ATOMS id type x y z
10 2 7.30847 5.86852 5.52373
4 1 7.45781 6.70321 6.21346
7 2 8.66904 7.92563 9.08054
8 2 7.60793 5.6248 8.01926
9 2 7.61113 7.70228 5.75403
1 1 7.03632 8.806 7.99738
3 1 7.7328 6.59385 7.56212
2 1 7.87904 7.8354 8.30919
6 2 6.08116 8.75208 7.46084
5 2 7.21044 9.71593 8.55766
ITEM: TIMESTEP
5200
ITEM: NUMBER OF ATOMS
10
ITEM: BOX BOUNDS pp pp pp
0.0000000000000000e+00 1.5000000000000000e+01
0.0000000000000000e+00 1.5000000000000000e+01
0.0000000000000000e+00 1.5000000000000000e+01
ITEM: ATOMS id type x y z
10 2 7.40697 5.85612 5.6127
4 1 7.44244 6.74622 6.28374
7 2 8.2713 7.81068 9.23935
8 2 8.08386 5.62967 8.04245
9 2 7.30911 7.74414 5.83686
1 1 7.04674 8.84297 7.97925
3 1 7.85793 6.57067 7.49885
2 1 7.76017 7.76544 8.30878
6 2 6.25776 8.80245 7.21695
5 2 7.1513 9.82516 8.51695
ITEM: TIMESTEP
5300
ITEM: NUMBER OF ATOMS
10
ITEM: BOX BOUNDS pp pp pp
0.0000000000000000e+00 1.5000000000000000e+01
0.0000000000000000e+00 1.5000000000000000e+01
0.0000000000000000e+00 1.5000000000000000e+01
ITEM: ATOMS id type x y z
10 2 7.41179 5.87054 5.57192
4 1 7.47504 6.71762 6.22715
7 2 8.12968 7.57776 9.48305
8 2 8.23307 5.71318 7.85592
9 2 7.1255 7.60595 5.77583
1 1 6.99805 8.81331 7.94948
3 1 7.89722 6.67057 7.5119
2 1 7.76944 7.78897 8.43142
6 2 6.44188 8.73917 7.04241
5 2 6.94355 9.7706 8.44016
ITEM: TIMESTEP
5400
ITEM: NUMBER OF ATOMS
10
ITEM: BOX BOUNDS pp pp pp
0.0000000000000000e+00 1.5000000000000000e+01
0.0000000000000000e+00 1.5000000000000000e+01
0.0000000000000000e+00 1.5000000000000000e+01
ITEM: ATOMS id type x y z
10 2 7.70168 5.92726 5.50374
4 1 7.59503 6.80523 6.20472
7 2 8.2655 7.96192 9.29683
8 2 8.11012 5.67277 8.06141
9 2 7.29344 7.80857 5.79806
1 1 6.91793 8.72198 7.99186
3 1 7.82607 6.60861 7.54824
2 1 7.76648 7.81529 8.3708
6 2 6.24337 8.40758 7.15205
5 2 6.87676 9.73525 8.38323
ITEM: TIMESTEP
5500
ITEM: NUMBER OF ATOMS
10
ITEM: BOX BOUNDS pp pp pp
0.0000000000000000e+00 1.5000000000000000e+01
0.0000000000000000e+00 1.5000000000000000e+01
0.0000000000000000e+00 1.5000000000000000e+01
ITEM: ATOMS id type x y z
10 2 7.75245 6.08578 5.4378
4 1 7.73133 6.7869 6.25708
7 2 8.48463 8.0296 9.17604
8 2 7.85119 5.63984 8.02122
9 2 7.58502 7.82566 5.91955
1 1 6.776 8.67655 7.96311
3 1 7.8319 6.61034 7.54887
2 1 7.80291 7.85539 8.32821
6 2 6.03752 8.44017 7.19262
5 2 6.56034 9.62389 8.55812
ITEM: TIMESTEP
5600
ITEM: NUMBER OF ATOMS
10
ITEM: BOX BOUNDS pp pp pp
0.0000000000000000e+00 1.5000000000000000e+01
0.0000000000000000e+00 1.5000000000000000e+01
0.0000000000000000e+00 1.5000000000000000e+01
ITEM: ATOMS id type x y z
10 2 7.89872 6.00365 5.52744
4 1 7.70511 6.78415 6.2488
7 2 8.12423 7.86702 9.36551
8 2 8.29535 5.70235 8.01697
9 2 7.33313 7.71578 5.88698
1 1 6.76964 8.74567 7.95703
3 1 7.99563 6.64533 7.54438
2 1 7.66683 7.79708 8.32816
6 2 6.24662 8.62806 7.00692
5 2 6.40265 9.46976 8.61497
ITEM: TIMESTEP
5700
ITEM: NUMBER OF ATOMS
10
ITEM: BOX BOUNDS pp pp pp
0.0000000000000000e+00 1.5000000000000000e+01
0.0000000000000000e+00 1.5000000000000000e+01
0.0000000000000000e+00 1.5000000000000000e+01
ITEM: ATOMS id type x y z
10 2 8.123 6.02249 5.49753
4 1 7.74565 6.78606 6.22239
7 2 7.96141 7.76486 9.43363
8 2 8.61457 5.86229 7.911
9 2 7.12744 7.59526 5.75034
1 1 6.80252 8.69757 7.92589
3 1 8.01165 6.70893 7.53
2 1 7.54281 7.76806 8.46276
6 2 6.27811 8.62472 6.96896
5 2 6.40361 9.58668 8.48132
ITEM: TIMESTEP
5800
ITEM: NUMBER OF ATOMS
10
ITEM: BOX BOUNDS pp pp pp
0.0000000000000000e+00 1.5000000000000000e+01
0.0000000000000000e+00 1.5000000000000000e+01
0.0000000000000000e+00 1.5000000000000000e+01
ITEM: ATOMS id type x y z
10 2 7.9034 5.95406 5.60577