LAMMPS (2 Aug 2023 - Update 2)
#13 Butadiene
units           metal
boundary        p p p
atom_style      atomic

neighbor        2.0 bin
neigh_modify    delay 0 every 1 check yes

read_data       restart.lmp
Reading data file ...
  orthogonal box = (0 0 0) to (15 15 15)
  1 by 1 by 3 MPI processor grid
  reading atoms ...
  10 atoms
  reading velocities ...
  10 velocities
  read_data CPU = 0.001 seconds
mass            1 12.0
mass            2 2

variable        sysvol          equal vol
variable        sysmass         equal mass(all)/6.0221367e+23
variable        sysdensity      equal v_sysmass/v_sysvol/1.0e-24
variable	out_freq 	equal 100

pair_style      deepmd ../files/frozen_model_1_compressed.pb ../files/frozen_model_2_compressed.pb ../files/frozen_model_3_compressed.pb ../files/frozen_model_3_compressed.pb out_file md.out out_freq 10 atomic relative 1.0
Summary of lammps deepmd module ...
  >>> Info of deepmd-kit:
  installed to:       /rs1/researchers/w/wjpfaend/rahul/MLP/DeePMD-kit/deepmd_cpu
  source:             v2.2.8-dirty
  source branch:      master
  source commit:      b875ea8
  source commit at:   2024-01-22 22:28:58 -0500
  support model ver.: 1.1 
  build variant:      cpu
  build with tf inc:  /rs1/researchers/w/wjpfaend/rahul/MLP/DeePMD-kit/tensorflow/lib/python3.11/site-packages/tensorflow/include;/rs1/researchers/w/wjpfaend/rahul/MLP/DeePMD-kit/tensorflow/lib/python3.11/site-packages/tensorflow/include
  build with tf lib:  /rs1/researchers/w/wjpfaend/rahul/MLP/DeePMD-kit/tensorflow/lib/python3.11/site-packages/tensorflow/libtensorflow_cc.so.2
  set tf intra_op_parallelism_threads: 0
  set tf inter_op_parallelism_threads: 0
  >>> Info of lammps module:
  use deepmd-kit at:  /rs1/researchers/w/wjpfaend/rahul/MLP/DeePMD-kit/deepmd_cpu
  source:             v2.2.8-dirty
  source branch:      master
  source commit:      b875ea8
  source commit at:   2024-01-22 22:28:58 -0500
  build float prec:   double
  build with tf inc:  /rs1/researchers/w/wjpfaend/rahul/MLP/DeePMD-kit/tensorflow/lib/python3.11/site-packages/tensorflow/include;/rs1/researchers/w/wjpfaend/rahul/MLP/DeePMD-kit/tensorflow/lib/python3.11/site-packages/tensorflow/include
  build with tf lib:  /rs1/researchers/w/wjpfaend/rahul/MLP/DeePMD-kit/tensorflow/lib/python3.11/site-packages/tensorflow/libtensorflow_cc.so.2
pair_coeff	* *

#
velocity        all create 300.0 2345678 rot no dist gaussian
fix             1 all nvt temp 300.0 300.0 0.05
fix             2 all plumed plumedfile plumed.dat outfile PLUMED.log

timestep        0.0005
thermo_style    custom step pe ke etotal v_sysdensity temp press vol
thermo          10

dump            10 all custom 100 btd.dump id type x y z
dump		101 all xyz 20 btd.xyz
dump_modify	101 element C H

fix		extra all print 20 "$(step), $(ke), $(pe), $(etotal), $(temp), $(press), $(vol)" file logfile screen no

restart	        20000 dump.restart

run             50000

CITE-CITE-CITE-CITE-CITE-CITE-CITE-CITE-CITE-CITE-CITE-CITE-CITE

Your simulation uses code contributions which should be cited:

- USER-DEEPMD package:

@article{Wang_ComputPhysCommun_2018_v228_p178,
  author = {Wang, Han and Zhang, Linfeng and Han, Jiequn and E, Weinan},
  doi = {10.1016/j.cpc.2018.03.016},
  url = {https://doi.org/10.1016/j.cpc.2018.03.016},
  year = 2018,
  month = {jul},
  publisher = {Elsevier {BV}},
  volume = 228,
  journal = {Comput. Phys. Commun.},
  title = {{DeePMD-kit: A deep learning package for many-body potential energy representation and molecular dynamics}},
  pages = {178--184}
}
@misc{Zeng_JChemPhys_2023_v159_p054801,
  title  = {{DeePMD-kit v2: A software package for deep potential models}},
  author =   {Jinzhe Zeng and Duo Zhang and Denghui Lu and Pinghui Mo and Zeyu Li
         and Yixiao Chen and Mari{\'a}n Rynik and Li'ang Huang and Ziyao Li and 
         Shaochen Shi and Yingze Wang and Haotian Ye and Ping Tuo and Jiabin
         Yang and Ye Ding and Yifan Li and Davide Tisi and Qiyu Zeng and Han 
         Bao and Yu Xia and Jiameng Huang and Koki Muraoka and Yibo Wang and 
         Junhan Chang and Fengbo Yuan and Sigbj{\o}rn L{\o}land Bore and Chun
         Cai and Yinnian Lin and Bo Wang and Jiayan Xu and Jia-Xin Zhu and 
         Chenxing Luo and Yuzhi Zhang and Rhys E A Goodall and Wenshuo Liang
         and Anurag Kumar Singh and Sikai Yao and Jingchao Zhang and Renata
         Wentzcovitch and Jiequn Han and Jie Liu and Weile Jia and Darrin M
         York and Weinan E and Roberto Car and Linfeng Zhang and Han Wang},
  journal =  {J. Chem. Phys.},
  volume =   159,
  issue =    5,  
  year =    2023,
  pages  =   054801,
  doi =      {10.1063/5.0155600},
}

CITE-CITE-CITE-CITE-CITE-CITE-CITE-CITE-CITE-CITE-CITE-CITE-CITE

Generated 0 of 1 mixed pair_coeff terms from geometric mixing rule
Neighbor list info ...
  update: every = 1 steps, delay = 0 steps, check = yes
  max neighbors/atom: 2000, page size: 100000
  master list distance cutoff = 8
  ghost atom cutoff = 8
  binsize = 4, bins = 4 4 4
  1 neighbor lists, perpetual/occasional/extra = 1 0 0
  (1) pair deepmd, perpetual
      attributes: full, newton on
      pair build: full/bin/atomonly
      stencil: full/bin/3d
      bin: standard
Per MPI rank memory allocation (min/avg/max) = 2.957 | 2.999 | 3.082 Mbytes
   Step         PotEng         KinEng         TotEng      v_sysdensity       Temp          Press          Volume    
         0  -56.320144      0.34900239    -55.971141      0.029520714    300           -1817.9852      3375         
        10  -56.09203       0.59416186    -55.497868      0.029520714    510.73735      820.82023      3375         
        20  -56.254496      0.72044067    -55.534056      0.029520714    619.28573      1104.2206      3375         
        30  -55.965131      0.41558114    -55.54955       0.029520714    357.23062      84.971733      3375         
        40  -56.150549      0.57589497    -55.574654      0.029520714    495.03527      155.80682      3375         
        50  -56.182481      0.54973619    -55.632744      0.029520714    472.54936     -158.88667      3375         
        60  -56.190654      0.56556273    -55.625092      0.029520714    486.15374     -1171.5159      3375         
        70  -56.178628      0.50272851    -55.6759        0.029520714    432.14189     -868.7046       3375         
        80  -55.977455      0.25486096    -55.722594      0.029520714    219.07669      510.27197      3375         
        90  -56.095286      0.3568103     -55.738476      0.029520714    306.71162      1745.7981      3375         
       100  -56.359347      0.57557183    -55.783775      0.029520714    494.75749      1043.7365      3375         
       110  -56.122978      0.3079316     -55.815047      0.029520714    264.69583     -1461.3567      3375         
       120  -56.216768      0.42386851    -55.792899      0.029520714    364.35439     -1038.9038      3375         
       130  -56.289297      0.44496238    -55.844335      0.029520714    382.48653      437.74968      3375         
       140  -56.126604      0.26987485    -55.856729      0.029520714    231.98252      496.21801      3375         
       150  -56.226175      0.35605926    -55.870115      0.029520714    306.06604     -375.12267      3375         
       160  -56.326062      0.42318569    -55.902876      0.029520714    363.76744     -469.74949      3375         
       170  -56.22845       0.36260362    -55.865846      0.029520714    311.69152      824.1856       3375         
       180  -56.302646      0.41047058    -55.892176      0.029520714    352.83762      868.44803      3375         
       190  -56.291337      0.38431872    -55.907018      0.029520714    330.35767     -264.14307      3375         
       200  -56.27932       0.36338723    -55.915933      0.029520714    312.36511     -732.71064      3375         
       210  -56.318655      0.39199903    -55.926656      0.029520714    336.95961     -570.06983      3375         
       220  -56.190031      0.24859501    -55.941436      0.029520714    213.69052     -150.75587      3375         
       230  -56.301165      0.37497266    -55.926193      0.029520714    322.32386      227.95597      3375         
       240  -56.327302      0.38702045    -55.940282      0.029520714    332.68006      548.19341      3375         
       250  -56.232137      0.28322971    -55.948907      0.029520714    243.46226      863.02557      3375         
       260  -56.24875       0.29464099    -55.954109      0.029520714    253.27132      238.58657      3375         
       270  -56.365912      0.3747233     -55.991189      0.029520714    322.10951     -1608.3213      3375         
       280  -56.227742      0.28640202    -55.94134       0.029520714    246.18916     -1346.1842      3375         
       290  -56.221161      0.27172476    -55.949437      0.029520714    233.57269      1181.3732      3375         
       300  -56.26881       0.30295213    -55.965857      0.029520714    260.41552      1740.2945      3375         
       310  -56.279948      0.31347643    -55.966472      0.029520714    269.46214      241.18073      3375         
       320  -56.308744      0.33088848    -55.977855      0.029520714    284.42941     -1366.508       3375         
       330  -56.310117      0.33953911    -55.970578      0.029520714    291.86543     -1449.5522      3375         
       340  -56.210537      0.25625542    -55.954282      0.029520714    220.27535      436.29766      3375         
       350  -56.260456      0.29702167    -55.963434      0.029520714    255.31774      1048.5169      3375         
       360  -56.292904      0.33162683    -55.961277      0.029520714    285.06409      505.82121      3375         
       370  -56.326921      0.3694487     -55.957472      0.029520714    317.5755       298.4426       3375         
       380  -56.277687      0.31199509    -55.965692      0.029520714    268.18878     -232.09878      3375         
       390  -56.279958      0.3305359     -55.949422      0.029520714    284.12634     -1054.4544      3375         
       400  -56.267948      0.33261637    -55.935332      0.029520714    285.91469     -745.39556      3375         
       410  -56.36369       0.43628055    -55.92741       0.029520714    375.02369      399.5887       3375         
       420  -56.287668      0.36044775    -55.927221      0.029520714    309.83835      1072.3038      3375         
       430  -56.214431      0.28729907    -55.927132      0.029520714    246.96026     -56.253615      3375         
       440  -56.265855      0.35277911    -55.913076      0.029520714    303.24644     -982.70957      3375         
       450  -56.312461      0.42352108    -55.888939      0.029520714    364.05574      567.90859      3375         
       460  -56.247294      0.36043981    -55.886854      0.029520714    309.83152      1410.3114      3375         
       470  -56.303007      0.4297404     -55.873267      0.029520714    369.40183     -76.617758      3375         
       480  -56.132458      0.2735695     -55.858889      0.029520714    235.15842     -1693.6542      3375         
       490  -56.166522      0.31122584    -55.855297      0.029520714    267.52754     -1423.8095      3375         
       500  -56.270528      0.45166944    -55.818859      0.029520714    388.25187      973.02728      3375         
       510  -56.201469      0.39790137    -55.803567      0.029520714    342.03322      1897.6189      3375         
       520  -56.135845      0.34287443    -55.792971      0.029520714    294.73244      424.55081      3375         
       530  -56.246698      0.4956294     -55.751069      0.029520714    426.03954     -425.95618      3375         
       540  -56.137515      0.40034175    -55.737173      0.029520714    344.13095     -860.72996      3375         
       550  -56.194076      0.47819874    -55.715877      0.029520714    411.05627     -1338.1253      3375         
       560  -56.118136      0.43646156    -55.681675      0.029520714    375.17929     -282.64091      3375         
       570  -56.148272      0.47592794    -55.672344      0.029520714    409.10431      1416.5958      3375         
       580  -56.259655      0.60793009    -55.651725      0.029520714    522.57243      1839.4145      3375         
       590  -56.207733      0.57006374    -55.637669      0.029520714    490.02278      11.623068      3375         
       600  -56.085303      0.43612838    -55.649174      0.029520714    374.89288     -2273.4618      3375         
       610  -56.161659      0.55216247    -55.609496      0.029520714    474.63497     -1278.6035      3375         
       620  -56.063064      0.43532095    -55.627743      0.029520714    374.19882      1528.4542      3375         
       630  -56.113122      0.47189631    -55.641226      0.029520714    405.63874      1645.2385      3375         
       640  -56.189162      0.54124837    -55.647914      0.029520714    465.25329     -410.30907      3375         
       650  -56.029011      0.37329754    -55.655713      0.029520714    320.88394     -1182.6579      3375         
       660  -56.17316       0.50218252    -55.670978      0.029520714    431.67256     -263.18483      3375         
       670  -56.294095      0.59344697    -55.700648      0.029520714    510.12284      231.68615      3375         
       680  -56.044336      0.30710467    -55.737231      0.029520714    263.98502     -151.45721      3375         
       690  -56.023111      0.27326233    -55.749849      0.029520714    234.89438     -16.22798       3375         
       700  -56.149365      0.37388443    -55.77548       0.029520714    321.38843      967.21114      3375         
       710  -56.205111      0.39506681    -55.810044      0.029520714    339.59665      367.35291      3375         
       720  -56.272973      0.43974084    -55.833233      0.029520714    377.99814     -807.70047      3375         
       730  -56.212596      0.34825923    -55.864336      0.029520714    299.36118     -475.22149      3375         
       740  -56.124196      0.23318072    -55.891015      0.029520714    200.4405       599.18289      3375         
       750  -56.30615       0.39463601    -55.911514      0.029520714    339.22634      315.03237      3375         
       760  -56.247797      0.31040572    -55.937391      0.029520714    266.82257     -1456.278       3375         
       770  -56.151713      0.22503201    -55.926681      0.029520714    193.43593     -634.74465      3375         
       780  -56.249304      0.30604056    -55.943264      0.029520714    263.07031      2052.247       3375         
       790  -56.322342      0.36504361    -55.957298      0.029520714    313.78892      1224.339       3375         
       800  -56.272598      0.29746412    -55.975133      0.029520714    255.69807     -868.09928      3375         
       810  -56.187442      0.22651092    -55.960931      0.029520714    194.70719     -1279.644       3375         
       820  -56.212412      0.24316936    -55.969243      0.029520714    209.02667     -657.08147      3375         
       830  -56.297406      0.32554035    -55.971865      0.029520714    279.83219      589.33683      3375         
       840  -56.331356      0.35710698    -55.974249      0.029520714    306.96664      461.93951      3375         
       850  -56.232139      0.2552444     -55.976895      0.029520714    219.40629      81.022717      3375         
       860  -56.238285      0.26981602    -55.968469      0.029520714    231.93196      1144.7902      3375         
       870  -56.237105      0.26185527    -55.975249      0.029520714    225.08895     -29.936031      3375         
       880  -56.2364        0.26869877    -55.967701      0.029520714    230.97157     -2241.5489      3375         
       890  -56.308668      0.36343652    -55.945232      0.029520714    312.40748     -736.91031      3375         
       900  -56.355116      0.40009609    -55.95502       0.029520714    343.91979      1578.1634      3375         
       910  -56.225933      0.27381911    -55.952114      0.029520714    235.37298      1624.1562      3375         
       920  -56.260114      0.30923965    -55.950874      0.029520714    265.82023     -158.97564      3375         
       930  -56.19811       0.26000097    -55.938109      0.029520714    223.495       -1845.5771      3375         
       940  -56.223146      0.29375972    -55.929387      0.029520714    252.51379     -642.03413      3375         
       950  -56.251732      0.32577466    -55.925957      0.029520714    280.0336       1484.7761      3375         
       960  -56.417017      0.48949696    -55.92752       0.029520714    420.76814      94.465881      3375         
       970  -56.297197      0.38811116    -55.909085      0.029520714    333.61762     -904.53566      3375         
       980  -56.259404      0.3667928     -55.892611      0.029520714    315.29251      879.68636      3375         
       990  -56.192378      0.29811269    -55.894265      0.029520714    256.25557      600.706        3375         
      1000  -56.304346      0.41290214    -55.891444      0.029520714    354.92778     -979.724        3375         
      1010  -56.232307      0.34500144    -55.887306      0.029520714    296.56081     -867.56033      3375         
      1020  -56.337467      0.46030386    -55.877163      0.029520714    395.67396      139.06719      3375         
      1030  -56.268731      0.39140996    -55.877321      0.029520714    336.45325      1264.125       3375         
      1040  -56.302282      0.42116384    -55.881119      0.029520714    362.02947     -53.62677       3375         
      1050  -56.142892      0.27748263    -55.865409      0.029520714    238.52211     -1262.3631      3375         
      1060  -56.177269      0.29907895    -55.87819       0.029520714    257.08616      688.6072       3375         
      1070  -56.141358      0.27600501    -55.865353      0.029520714    237.25196      1700.8931      3375         
      1080  -56.346793      0.46482648    -55.881966      0.029520714    399.56157     -784.96395      3375         
      1090  -56.23864       0.37687873    -55.861762      0.029520714    323.9623      -1889.5884      3375         
      1100  -56.266399      0.42922788    -55.837171      0.029520714    368.96127     -36.379293      3375         
      1110  -56.126022      0.27504423    -55.850978      0.029520714    236.42609      1462.5829      3375         
      1120  -56.180046      0.33543064    -55.844615      0.029520714    288.33382      1075.9099      3375         
      1130  -56.274914      0.42157752    -55.853336      0.029520714    362.38507     -635.49905      3375         
      1140  -56.310999      0.48427155    -55.826727      0.029520714    416.27642     -1206.285       3375         
      1150  -56.206479      0.38921398    -55.817265      0.029520714    334.5656       265.85178      3375         
      1160  -56.318346      0.5090774     -55.809269      0.029520714    437.59935     -45.454576      3375         
      1170  -56.214697      0.40318183    -55.811515      0.029520714    346.57227     -416.73642      3375         
      1180  -56.19396       0.3887681     -55.805192      0.029520714    334.18232      873.55668      3375         
      1190  -56.145505      0.33875606    -55.806749      0.029520714    291.19232      1101.3943      3375         
      1200  -56.144329      0.32896879    -55.81536       0.029520714    282.77926     -364.54798      3375         
      1210  -56.307396      0.50702989    -55.800366      0.029520714    435.83933     -1571.8119      3375         
      1220  -56.277272      0.502709      -55.774563      0.029520714    432.12512     -863.87326      3375         
      1230  -56.121809      0.32117518    -55.800634      0.029520714    276.07992      1196.7259      3375         
      1240  -56.208606      0.40437382    -55.804232      0.029520714    347.59689      1664.7086      3375         
      1250  -56.1971        0.37206891    -55.825031      0.029520714    319.82782     -827.80968      3375         
      1260  -56.109071      0.31430676    -55.794765      0.029520714    270.17588     -1325.5497      3375         
      1270  -56.232341      0.43891815    -55.793423      0.029520714    377.29096      632.14933      3375         
      1280  -56.178428      0.36227712    -55.81615       0.029520714    311.41086      462.80387      3375         
      1290  -56.151973      0.33465287    -55.817321      0.029520714    287.66525     -442.35373      3375         
      1300  -56.294397      0.4599635     -55.834433      0.029520714    395.38139     -350.59969      3375         
      1310  -56.187519      0.35364966    -55.83387       0.029520714    303.99476      501.2428       3375         
      1320  -56.162846      0.31795434    -55.844892      0.029520714    273.31132      728.33321      3375         
      1330  -56.222484      0.37669049    -55.845793      0.029520714    323.80049     -522.84567      3375         
      1340  -56.159225      0.30089029    -55.858335      0.029520714    258.64317     -869.54666      3375         
      1350  -56.257905      0.38666241    -55.871243      0.029520714    332.37229      463.32045      3375         
      1360  -56.246288      0.3555307     -55.890757      0.029520714    305.61169      735.58683      3375         
      1370  -56.166206      0.26599814    -55.900208      0.029520714    228.65013     -1121.7901      3375         
      1380  -56.326668      0.44694186    -55.879727      0.029520714    384.18807     -453.69148      3375         
      1390  -56.327856      0.4142889     -55.913567      0.029520714    356.11983      1568.4985      3375         
      1400  -56.136532      0.21300234    -55.92353       0.029520714    183.09531      636.792        3375         
      1410  -56.322965      0.3735837     -55.949381      0.029520714    321.12992     -971.45992      3375         
      1420  -56.331476      0.37966518    -55.951811      0.029520714    326.35752     -1375.3166      3375         
      1430  -56.220112      0.26604868    -55.954064      0.029520714    228.69358      44.479701      3375         
      1440  -56.301995      0.32622855    -55.975766      0.029520714    280.42376      1713.2227      3375         
      1450  -56.425138      0.43498128    -55.990157      0.029520714    373.90685      455.99635      3375         
      1460  -56.332152      0.32389185    -56.00826       0.029520714    278.41515     -1333.361       3375         
      1470  -56.345619      0.32439262    -56.021227      0.029520714    278.84561     -441.99746      3375         
      1480  -56.264269      0.23373295    -56.030536      0.029520714    200.9152       634.0208       3375         
      1490  -56.290439      0.24947554    -56.040964      0.029520714    214.44742     -265.98333      3375         
      1500  -56.284467      0.24551934    -56.038948      0.029520714    211.0467      -59.929319      3375         
      1510  -56.448186      0.39148212    -56.056704      0.029520714    336.51527      679.41976      3375         
      1520  -56.330453      0.26581934    -56.064634      0.029520714    228.49643      620.17169      3375         
      1530  -56.32524       0.24574176    -56.079498      0.029520714    211.23789     -293.99606      3375         
      1540  -56.269135      0.19091687    -56.078218      0.029520714    164.1108      -1536.2189      3375         
      1550  -56.322253      0.25220994    -56.070043      0.029520714    216.79789     -171.97723      3375         
      1560  -56.292493      0.21069088    -56.081802      0.029520714    181.1084       1804.8942      3375         
      1570  -56.400145      0.3153615     -56.084783      0.029520714    271.08253     -10.605332      3375         
      1580  -56.352042      0.26618319    -56.085859      0.029520714    228.8092      -1523.1041      3375         
      1590  -56.41758       0.34161923    -56.075961      0.029520714    293.65348      353.54202      3375         
      1600  -56.299988      0.22164805    -56.07834       0.029520714    190.5271       1318.1561      3375         
      1610  -56.342105      0.26324715    -56.078858      0.029520714    226.2854       147.26401      3375         
      1620  -56.339833      0.26909879    -56.070735      0.029520714    231.31543     -856.96843      3375         
      1630  -56.389148      0.33220603    -56.056942      0.029520714    285.56197     -1121.0766      3375         
      1640  -56.38518       0.34082179    -56.044358      0.029520714    292.96801      463.24367      3375         
      1650  -56.38741       0.35197113    -56.035438      0.029520714    302.55191      852.61157      3375         
      1660  -56.191812      0.17576012    -56.016051      0.029520714    151.08216     -367.92965      3375         
      1670  -56.337471      0.3451735     -55.992298      0.029520714    296.70872      571.7429       3375         
      1680  -56.299386      0.33004974    -55.969337      0.029520714    283.70843      610.19356      3375         
      1690  -56.195015      0.24423482    -55.95078       0.029520714    209.94253     -1531.6743      3375         
      1700  -56.235211      0.31869245    -55.916519      0.029520714    273.94579     -1259.782       3375         
      1710  -56.379827      0.50555035    -55.874277      0.029520714    434.56752      651.89459      3375         
      1720  -56.17913       0.33657743    -55.842553      0.029520714    289.31959      1901.5801      3375         
      1730  -56.206668      0.38244498    -55.824223      0.029520714    328.74701      1083.2199      3375         
      1740  -56.068639      0.26244207    -55.806197      0.029520714    225.59336     -1731.6928      3375         
      1750  -56.101897      0.33279096    -55.769106      0.029520714    286.06477     -1952.4883      3375         
      1760  -56.216089      0.45542356    -55.760665      0.029520714    391.47889      1058.9122      3375         
      1770  -56.266349      0.51519088    -55.751158      0.029520714    442.85446      1047.0213      3375         
      1780  -56.103869      0.3759968     -55.727872      0.029520714    323.20421     -450.03091      3375         
      1790  -56.139256      0.41873489    -55.720521      0.029520714    359.94157      413.7578       3375         
      1800  -56.129458      0.41463769    -55.71482       0.029520714    356.41964      250.67663      3375         
      1810  -56.1643        0.45133906    -55.712961      0.029520714    387.96788     -558.79482      3375         
      1820  -56.065331      0.3471187     -55.718213      0.029520714    298.38079     -676.7967       3375         
      1830  -56.127851      0.42217647    -55.705675      0.029520714    362.89992     -627.11439      3375         
      1840  -56.25092       0.54257307    -55.708347      0.029520714    466.39199      1320.2262      3375         
      1850  -56.204933      0.47785979    -55.727074      0.029520714    410.76491      1135.4083      3375         
      1860  -56.022299      0.30246779    -55.719832      0.029520714    259.99919     -1589.0611      3375         
      1870  -56.240181      0.51681825    -55.723363      0.029520714    444.25333     -474.87038      3375         
      1880  -56.261652      0.51538087    -55.746271      0.029520714    443.01777      1587.4666      3375         
      1890  -56.188901      0.41977649    -55.769124      0.029520714    360.83692     -94.272013      3375         
      1900  -56.200153      0.42049363    -55.77966       0.029520714    361.45337     -1453.1389      3375         
      1910  -56.227481      0.44375077    -55.78373       0.029520714    381.44504     -545.29715      3375         
      1920  -56.203959      0.37980864    -55.824151      0.029520714    326.48083      1010.0783      3375         
      1930  -56.290886      0.46255568    -55.82833       0.029520714    397.60961      1532.2098      3375         
      1940  -56.261093      0.38720499    -55.873888      0.029520714    332.83868     -318.65057      3375         
      1950  -56.162425      0.28598585    -55.876439      0.029520714    245.83142     -1396.8254      3375         
      1960  -56.22593       0.33254013    -55.89339       0.029520714    285.84915      212.88725      3375         
      1970  -56.359208      0.44872209    -55.910486      0.029520714    385.71835      66.277823      3375         
      1980  -56.216226      0.28381894    -55.932407      0.029520714    243.96877     -763.63669      3375         
      1990  -56.249955      0.30209522    -55.94786       0.029520714    259.67892      574.8863       3375         
      2000  -56.306829      0.35211617    -55.954713      0.029520714    302.67659      1705.7619      3375         
      2010  -56.313374      0.33763295    -55.975741      0.029520714    290.22691      168.59034      3375         
      2020  -56.254686      0.27772621    -55.97696       0.029520714    238.7315      -1520.0294      3375         
      2030  -56.290874      0.32111989    -55.969754      0.029520714    276.0324      -1236.8296      3375         
      2040  -56.308155      0.31913196    -55.989023      0.029520714    274.32359      437.03887      3375         
      2050  -56.348084      0.35201619    -55.996068      0.029520714    302.59064      1355.7062      3375         
      2060  -56.278097      0.27427089    -56.003826      0.029520714    235.76132     -163.59445      3375         
      2070  -56.336403      0.33406407    -56.002339      0.029520714    287.15913     -497.2037       3375         
      2080  -56.356786      0.35778812    -55.998998      0.029520714    307.55215      855.13304      3375         
      2090  -56.280782      0.27234891    -56.008433      0.029520714    234.1092       54.288833      3375         
      2100  -56.324584      0.30190849    -56.022676      0.029520714    259.51842     -1197.5447      3375         
      2110  -56.301804      0.29650216    -56.005302      0.029520714    254.87117     -562.23731      3375         
      2120  -56.267302      0.26219656    -56.005106      0.029520714    225.38232      828.50397      3375         
      2130  -56.355267      0.34096226    -56.014305      0.029520714    293.08876      893.29814      3375         
      2140  -56.325475      0.32879023    -55.996685      0.029520714    282.62577     -102.93296      3375         
      2150  -56.232162      0.22918831    -56.002974      0.029520714    197.00866     -954.67034      3375         
      2160  -56.316208      0.31256087    -56.003647      0.029520714    268.67512      118.48932      3375         
      2170  -56.317195      0.31913931    -55.998056      0.029520714    274.32991      603.49122      3375         
      2180  -56.286429      0.28814646    -55.998282      0.029520714    247.68867     -1149.242       3375         
      2190  -56.306251      0.33141421    -55.974837      0.029520714    284.88132     -191.21566      3375         
      2200  -56.237553      0.25213396    -55.985419      0.029520714    216.73258      1712.1951      3375         
      2210  -56.293823      0.32011078    -55.973712      0.029520714    275.16497      576.66844      3375         
      2220  -56.412111      0.42703742    -55.985074      0.029520714    367.07836     -837.11597      3375         
      2230  -56.213966      0.25577484    -55.958191      0.029520714    219.86225     -1347.0762      3375         
      2240  -56.196738      0.24503424    -55.951704      0.029520714    210.62971     -480.25072      3375         
      2250  -56.345104      0.39720903    -55.947895      0.029520714    341.43809      1369.2043      3375         
      2260  -56.33657       0.39005739    -55.946513      0.029520714    335.29059      278.70053      3375         
      2270  -56.297763      0.35422204    -55.943541      0.029520714    304.48677     -759.52638      3375         
      2280  -56.348347      0.41286092    -55.935486      0.029520714    354.89234      1074.2116      3375         
      2290  -56.231488      0.29374148    -55.937747      0.029520714    252.49811      203.82019      3375         
      2300  -56.190159      0.25673453    -55.933425      0.029520714    220.68719     -1517.3636      3375         
      2310  -56.240406      0.31369137    -55.926715      0.029520714    269.64689     -138.11666      3375         
      2320  -56.340657      0.4137762     -55.92688       0.029520714    355.67911      344.29223      3375         
      2330  -56.28028       0.35476836    -55.925512      0.029520714    304.95639      632.35164      3375         
      2340  -56.242494      0.30983646    -55.932657      0.029520714    266.33324      899.2249       3375         
      2350  -56.225049      0.3056019     -55.919447      0.029520714    262.69325     -725.79996      3375         
      2360  -56.242928      0.33395207    -55.908975      0.029520714    287.06285     -536.73084      3375         
      2370  -56.134342      0.21936003    -55.914982      0.029520714    188.56034      825.20171      3375         
      2380  -56.273794      0.35897297    -55.914821      0.029520714    308.57064     -997.29758      3375         
      2390  -56.354097      0.44407311    -55.910024      0.029520714    381.72212     -1042.2124      3375         
      2400  -56.216541      0.31013033    -55.906411      0.029520714    266.58585      1322.9504      3375         
      2410  -56.182695      0.27942871    -55.903266      0.029520714    240.19495      835.67189      3375         
      2420  -56.390238      0.48616648    -55.904072      0.029520714    417.90529      115.4456       3375         
      2430  -56.25352       0.34917662    -55.904343      0.029520714    300.14977      22.62257       3375         
      2440  -56.156599      0.25558022    -55.901019      0.029520714    219.69496     -1470.8927      3375         
      2450  -56.370781      0.46795691    -55.902824      0.029520714    402.25247     -214.74813      3375         
      2460  -56.317439      0.40816379    -55.909275      0.029520714    350.85472      1194.9319      3375         
      2470  -56.163242      0.26953986    -55.893702      0.029520714    231.69457     -338.03611      3375         
      2480  -56.315095      0.41514663    -55.899949      0.029520714    356.85712      274.22259      3375         
      2490  -56.293246      0.38895969    -55.904286      0.029520714    334.34701      885.56938      3375         
      2500  -56.172144      0.26732851    -55.904816      0.029520714    229.7937      -1161.7666      3375         
      2510  -56.283536      0.36848048    -55.915055      0.029520714    316.74323     -1242.593       3375         
      2520  -56.34057       0.44215766    -55.898412      0.029520714    380.07561      155.2103       3375         
      2530  -56.200391      0.30206169    -55.898329      0.029520714    259.6501       918.69748      3375         
      2540  -56.21243       0.30599894    -55.906431      0.029520714    263.03454      1430.0697      3375         
      2550  -56.239373      0.32905181    -55.910321      0.029520714    282.85062     -112.78633      3375         
      2560  -56.262106      0.35746641    -55.90464       0.029520714    307.27561     -1523.5139      3375         
      2570  -56.2422        0.3287829     -55.913417      0.029520714    282.61947      69.767105      3375         
      2580  -56.252455      0.3470267     -55.905429      0.029520714    298.30171      125.35226      3375         
      2590  -56.263705      0.36404531    -55.899659      0.029520714    312.93078     -854.04721      3375         
      2600  -56.281714      0.37605261    -55.905661      0.029520714    323.25218      455.30898      3375         
      2610  -56.176179      0.27604463    -55.900134      0.029520714    237.28602      1275.2793      3375         
      2620  -56.3107        0.40601949    -55.90468       0.029520714    349.01149      207.15155      3375         
      2630  -56.315951      0.39832934    -55.917622      0.029520714    342.4011      -724.48695      3375         
      2640  -56.136283      0.24728564    -55.888997      0.029520714    212.565       -943.92137      3375         
      2650  -56.249013      0.34394288    -55.90507       0.029520714    295.65088     -4.9546754      3375         
      2660  -56.39584       0.49064564    -55.905194      0.029520714    421.75554      922.18371      3375         
      2670  -56.223698      0.31392272    -55.909775      0.029520714    269.84577     -255.95308      3375         
      2680  -56.250979      0.33985123    -55.911127      0.029520714    292.13372     -514.67185      3375         
      2690  -56.329314      0.41425914    -55.915055      0.029520714    356.09424      1350.829       3375         
      2700  -56.178724      0.26058518    -55.918139      0.029520714    223.99718      636.54748      3375         
      2710  -56.20688       0.28153032    -55.92535       0.029520714    242.00148     -1459.4591      3375         
      2720  -56.315796      0.3945115     -55.921285      0.029520714    339.11931     -1116.4415      3375         
      2730  -56.284432      0.35981139    -55.924621      0.029520714    309.29134      198.30882      3375         
      2740  -56.179213      0.24655175    -55.932662      0.029520714    211.93415      1041.4922      3375         
      2750  -56.310951      0.37247151    -55.93848       0.029520714    320.17389      795.97184      3375         
      2760  -56.310613      0.37449909    -55.936114      0.029520714    321.91678     -417.71411      3375         
      2770  -56.296426      0.35538945    -55.941036      0.029520714    305.49027     -348.18931      3375         
      2780  -56.209729      0.26293888    -55.94679       0.029520714    226.02041      413.4452       3375         
      2790  -56.356967      0.4019171     -55.95505       0.029520714    345.48511     -978.73825      3375         
      2800  -56.314879      0.36686787    -55.948011      0.029520714    315.35704     -904.05629      3375         
      2810  -56.22454       0.27073163    -55.953808      0.029520714    232.719        1590.7387      3375         
      2820  -56.233026      0.27461995    -55.958406      0.029520714    236.06138      1514.5405      3375         
      2830  -56.41405       0.44683203    -55.967218      0.029520714    384.09367     -625.41757      3375         
      2840  -56.275687      0.30489727    -55.970789      0.029520714    262.08755     -1749.7289      3375         
      2850  -56.296712      0.33604583    -55.960667      0.029520714    288.86263     -1164.0259      3375         
      2860  -56.32366       0.35628502    -55.967375      0.029520714    306.2601       1150.7084      3375         
      2870  -56.275174      0.29895       -55.976224      0.029520714    256.97532      1577.8648      3375         
      2880  -56.193271      0.21708966    -55.976181      0.029520714    186.60874     -211.0097       3375         
      2890  -56.34316       0.37120944    -55.971951      0.029520714    319.08902     -81.003873      3375         
      2900  -56.351592      0.37410994    -55.977482      0.029520714    321.58227      45.457129      3375         
      2910  -56.183486      0.20519907    -55.978287      0.029520714    176.38767     -1202.9366      3375         
      2920  -56.24681       0.27653368    -55.970276      0.029520714    237.70641     -773.61935      3375         
      2930  -56.436155      0.46754618    -55.968608      0.029520714    401.89941      514.41564      3375         
      2940  -56.238814      0.27377281    -55.965041      0.029520714    235.33318      967.77608      3375         
      2950  -56.199838      0.23600929    -55.963829      0.029520714    202.87192      806.63462      3375         
      2960  -56.409327      0.44510406    -55.964223      0.029520714    382.60832     -635.18046      3375         
      2970  -56.280644      0.33696026    -55.943683      0.029520714    289.64867     -770.46658      3375         
      2980  -56.131135      0.18884747    -55.942288      0.029520714    162.33195      745.38476      3375         
      2990  -56.335547      0.39339382    -55.942154      0.029520714    338.15856     -95.634632      3375         
      3000  -56.330317      0.40186594    -55.928451      0.029520714    345.44113     -1374.3655      3375         
      3010  -56.236489      0.32521235    -55.911276      0.029520714    279.55025      81.047086      3375         
      3020  -56.32002       0.41560902    -55.904411      0.029520714    357.25459      1250.2147      3375         
      3030  -56.301009      0.4052783     -55.895731      0.029520714    348.37438      932.11823      3375         
      3040  -56.182931      0.29625325    -55.886678      0.029520714    254.65721     -25.155994      3375         
      3050  -56.244002      0.37536726    -55.868635      0.029520714    322.66306     -1405.5633      3375         
      3060  -56.197912      0.34041468    -55.857497      0.029520714    292.61806     -693.50298      3375         
      3070  -56.186279      0.33933144    -55.846948      0.029520714    291.68692      357.34344      3375         
      3080  -56.197027      0.3644125     -55.832615      0.029520714    313.24643      24.652454      3375         
      3090  -56.239782      0.41995583    -55.819826      0.029520714    360.99108      877.53663      3375         
      3100  -56.246709      0.44240709    -55.804302      0.029520714    380.29002      1341.625       3375         
      3110  -56.190764      0.39916174    -55.791602      0.029520714    343.11662     -887.63586      3375         
      3120  -56.096837      0.32505813    -55.771779      0.029520714    279.41769     -1723.2039      3375         
      3130  -56.162267      0.40827753    -55.753989      0.029520714    350.95249     -253.45507      3375         
      3140  -56.235495      0.49521208    -55.740283      0.029520714    425.68082      1184.7694      3375         
      3150  -56.232051      0.50119086    -55.730861      0.029520714    430.82014      1479.7981      3375         
      3160  -56.041674      0.31969954    -55.721974      0.029520714    274.81148     -272.16151      3375         
      3170  -56.208689      0.50739146    -55.701298      0.029520714    436.15013     -1418.17        3375         
      3180  -56.262938      0.56606733    -55.696871      0.029520714    486.5875      -118.31619      3375         
      3190  -56.075456      0.38186314    -55.693593      0.029520714    328.24687      172.1424       3375         
      3200  -56.198434      0.5028056     -55.695629      0.029520714    432.20816     -650.5815       3375         
      3210  -56.258934      0.56907485    -55.689859      0.029520714    489.17273      397.85579      3375         
      3220  -56.081428      0.3866786     -55.694749      0.029520714    332.3862       1448.3654      3375         
      3230  -56.0773        0.37127962    -55.706021      0.029520714    319.14934      396.08775      3375         
      3240  -56.285296      0.56610276    -55.719193      0.029520714    486.61795     -767.28966      3375         
      3250  -56.094794      0.36121137    -55.733582      0.029520714    310.49475     -1062.3928      3375         
      3260  -56.034722      0.28305921    -55.751663      0.029520714    243.3157      -444.11519      3375         
      3270  -56.362346      0.58878353    -55.773562      0.029520714    506.11418      631.34857      3375         
      3280  -56.286058      0.4810291     -55.805029      0.029520714    413.48923     -103.99543      3375         
      3290  -56.074376      0.24242249    -55.831953      0.029520714    208.38466     -111.19506      3375         
      3300  -56.257414      0.3981683     -55.859246      0.029520714    342.26267      1416.9084      3375         
      3310  -56.294651      0.40091375    -55.893737      0.029520714    344.62264      531.46769      3375         
      3320  -56.196043      0.25971642    -55.936326      0.029520714    223.2504      -1258.9531      3375         
      3330  -56.227982      0.29436701    -55.933615      0.029520714    253.03581     -1180.1471      3375         
      3340  -56.359057      0.39847644    -55.960581      0.029520714    342.52755     -253.81826      3375         
      3350  -56.322275      0.33273752    -55.989538      0.029520714    286.01883      868.40216      3375         
      3360  -56.319678      0.31137567    -56.008303      0.029520714    267.65634      1062.944       3375         
      3370  -56.346718      0.32304435    -56.023674      0.029520714    277.68665     -184.84727      3375         
      3380  -56.344373      0.30676383    -56.037609      0.029520714    263.69203     -324.40405      3375         
      3390  -56.292948      0.26073216    -56.032216      0.029520714    224.12353      49.234619      3375         
      3400  -56.374433      0.32760507    -56.046828      0.029520714    281.60701     -990.12976      3375         
      3410  -56.365833      0.31242213    -56.053411      0.029520714    268.55587     -389.07832      3375         
      3420  -56.270878      0.21276246    -56.058115      0.029520714    182.88911      1252.5029      3375         
      3430  -56.309753      0.24912741    -56.060625      0.029520714    214.14817      679.59898      3375         
      3440  -56.434587      0.36563087    -56.068956      0.029520714    314.29372     -282.71958      3375         
      3450  -56.328992      0.27382222    -56.05517       0.029520714    235.37565     -667.9291       3375         
      3460  -56.23702       0.17682713    -56.060192      0.029520714    151.99936     -783.43139      3375         
      3470  -56.360523      0.30061686    -56.059906      0.029520714    258.40814      641.67145      3375         
      3480  -56.385734      0.33010861    -56.055625      0.029520714    283.75904      675.32186      3375         
      3490  -56.215887      0.16087829    -56.055009      0.029520714    138.28985     -485.12317      3375         
      3500  -56.305551      0.26380973    -56.041741      0.029520714    226.76899      608.77111      3375         
      3510  -56.372394      0.33640974    -56.035984      0.029520714    289.17545      593.49317      3375         
      3520  -56.299305      0.26654184    -56.032763      0.029520714    229.11749     -1284.0502      3375         
      3530  -56.336592      0.31846447    -56.018128      0.029520714    273.74981     -688.45848      3375         
      3540  -56.453163      0.45192874    -56.001234      0.029520714    388.47477      158.06947      3375         
      3550  -56.269056      0.27536662    -55.99369       0.029520714    236.70321      332.15767      3375         
      3560  -56.236614      0.25674421    -55.97987       0.029520714    220.69552      1034.5225      3375         
      3570  -56.332424      0.36192584    -55.970498      0.029520714    311.1089       7.6001886      3375         
      3580  -56.268562      0.31139765    -55.957165      0.029520714    267.67523     -502.62365      3375         
      3590  -56.219061      0.27736037    -55.941701      0.029520714    238.41702      796.15231      3375         
      3600  -56.385154      0.45045587    -55.934698      0.029520714    387.2087      -992.88258      3375         
      3610  -56.263103      0.35248454    -55.910618      0.029520714    302.99323     -1889.6707      3375         
      3620  -56.195024      0.31371216    -55.881312      0.029520714    269.66476      1142.2765      3375         
      3630  -56.236653      0.35940811    -55.877245      0.029520714    308.94468      1641.322       3375         
      3640  -56.265243      0.39397999    -55.871263      0.029520714    338.66243      126.82593      3375         
      3650  -56.111431      0.2569845     -55.854446      0.029520714    220.90207     -304.9035       3375         
      3660  -56.180116      0.35610419    -55.824012      0.029520714    306.10465     -1200.5726      3375         
      3670  -56.240424      0.4203786     -55.820046      0.029520714    361.35449     -141.50317      3375         
      3680  -56.147475      0.34080839    -55.806666      0.029520714    292.9565       584.64505      3375         
      3690  -56.081266      0.29037187    -55.790894      0.029520714    249.60162     -702.79659      3375         
      3700  -56.34607       0.56554591    -55.780524      0.029520714    486.13929      771.86328      3375         
      3710  -56.284652      0.51076594    -55.773886      0.029520714    439.05081      1685.0916      3375         
      3720  -56.149285      0.39020939    -55.759076      0.029520714    335.42125     -1163.8317      3375         
      3730  -56.127547      0.37475589    -55.752791      0.029520714    322.13752     -1622.3596      3375         
      3740  -56.102359      0.36257921    -55.739779      0.029520714    311.67054      10.094359      3375         
      3750  -56.067158      0.32641327    -55.740745      0.029520714    280.58255      952.41418      3375         
      3760  -56.324177      0.57606281    -55.748114      0.029520714    495.17954      678.13358      3375         
      3770  -56.201664      0.46293239    -55.738732      0.029520714    397.93343     -550.93956      3375         
      3780  -56.237817      0.49821805    -55.739599      0.029520714    428.26473     -220.91141      3375         
      3790  -56.254464      0.50318328    -55.751281      0.029520714    432.5328       886.02867      3375         
      3800  -56.232563      0.46570095    -55.766862      0.029520714    400.31326     -513.67346      3375         
      3810  -56.064211      0.28965987    -55.774552      0.029520714    248.98958     -1805.6354      3375         
      3820  -56.3181        0.52840937    -55.789691      0.029520714    454.21698      455.37817      3375         
      3830  -56.227035      0.42301528    -55.80402       0.029520714    363.62096      2328.739       3375         
      3840  -56.109042      0.28566842    -55.823374      0.029520714    245.55856      466.1177       3375         
      3850  -56.20268       0.34598314    -55.856697      0.029520714    297.40467     -1336.244       3375         
      3860  -56.317131      0.48135401    -55.835777      0.029520714    413.76852     -955.06901      3375         
      3870  -56.105684      0.23021916    -55.875465      0.029520714    197.89477      170.92479      3375         
      3880  -56.306205      0.39634731    -55.909858      0.029520714    340.69736      139.31972      3375         
      3890  -56.330312      0.41121137    -55.9191        0.029520714    353.4744      -453.70487      3375         
      3900  -56.249693      0.2871821     -55.962511      0.029520714    246.85971      502.41313      3375         
      3910  -56.16843       0.17657091    -55.991859      0.029520714    151.77912      1615.8213      3375         
      3920  -56.364342      0.33489405    -56.029448      0.029520714    287.87257     -142.92809      3375         
      3930  -56.325812      0.25223574    -56.073577      0.029520714    216.82007     -1569.9668      3375         
      3940  -56.351208      0.25760174    -56.093606      0.029520714    221.43265     -227.78809      3375         
      3950  -56.422351      0.28578529    -56.136566      0.029520714    245.65903      838.00224      3375         
      3960  -56.476213      0.30889257    -56.167321      0.029520714    265.52188      140.98921      3375         
      3970  -56.347086      0.17309843    -56.173988      0.029520714    148.79419     -373.97025      3375         
      3980  -56.427807      0.25317046    -56.174636      0.029520714    217.62354     -33.633947      3375         
      3990  -56.433865      0.24613833    -56.187726      0.029520714    211.57877      453.01934      3375         
      4000  -56.363229      0.17817491    -56.185054      0.029520714    153.1579       188.70537      3375         
      4010  -56.343434      0.15766392    -56.18577       0.029520714    135.52679     -1057.2376      3375         
      4020  -56.442375      0.26053352    -56.181841      0.029520714    223.95278     -376.21664      3375         
      4030  -56.396084      0.22040954    -56.175674      0.029520714    189.46249      1365.121       3375         
      4040  -56.389534      0.21278498    -56.176749      0.029520714    182.90847      182.70295      3375         
      4050  -56.399322      0.23030438    -56.169018      0.029520714    197.96802     -619.64865      3375         
      4060  -56.388068      0.23388488    -56.154183      0.029520714    201.0458       164.22465      3375         
      4070  -56.305081      0.15301916    -56.152062      0.029520714    131.53419     -233.37288      3375         
      4080  -56.352972      0.20698675    -56.145985      0.029520714    177.92435     -356.5427       3375         
      4090  -56.35204       0.22439874    -56.127641      0.029520714    192.89157     -192.88905      3375         
      4100  -56.338354      0.22923697    -56.109117      0.029520714    197.05049      50.411539      3375         
      4110  -56.376234      0.28136796    -56.094866      0.029520714    241.86192      1569.5961      3375         
      4120  -56.398766      0.31705151    -56.081715      0.029520714    272.53524      381.15753      3375         
      4130  -56.246176      0.18571591    -56.06046       0.029520714    159.64009     -2056.379       3375         
      4140  -56.349721      0.31623643    -56.033484      0.029520714    271.83461     -521.07669      3375         
      4150  -56.431106      0.41271906    -56.018386      0.029520714    354.7704       844.40123      3375         
      4160  -56.314613      0.31870418    -55.995909      0.029520714    273.95587      157.65385      3375         
      4170  -56.216058      0.2401196     -55.975938      0.029520714    206.40512      373.7673       3375         
      4180  -56.331777      0.37312726    -55.958649      0.029520714    320.73757      138.06182      3375         
      4190  -56.260324      0.32176393    -55.93856       0.029520714    276.58601      236.87577      3375         
      4200  -56.276205      0.35222716    -55.923977      0.029520714    302.77199      142.20424      3375         
      4210  -56.319501      0.41124281    -55.908258      0.029520714    353.50142     -1670.8372      3375         
      4220  -56.310486      0.43449893    -55.875987      0.029520714    373.49222     -649.72878      3375         
      4230  -56.186523      0.31662503    -55.869898      0.029520714    272.16865      1876.1041      3375         
      4240  -56.209361      0.34817164    -55.86119       0.029520714    299.28589      292.55028      3375         
      4250  -56.149321      0.30568399    -55.843637      0.029520714    262.76381     -771.80057      3375         
      4260  -56.199023      0.36070975    -55.838313      0.029520714    310.06356      301.80245      3375         
      4270  -56.14932       0.33107676    -55.818243      0.029520714    284.59125      581.89477      3375         
      4280  -56.236038      0.42438004    -55.811658      0.029520714    364.79409     -15.709411      3375         
      4290  -56.198399      0.39221451    -55.806184      0.029520714    337.14483     -1157.8239      3375         
      4300  -56.251311      0.48574176    -55.765569      0.029520714    417.5402      -736.00876      3375         
      4310  -56.175059      0.39448895    -55.78057       0.029520714    339.09993      1589.8637      3375         
      4320  -56.224079      0.45672011    -55.767359      0.029520714    392.59339      1023.0974      3375         
      4330  -56.190353      0.42489532    -55.765457      0.029520714    365.23703     -1506.6099      3375         
      4340  -56.250253      0.49453817    -55.755715      0.029520714    425.10153     -874.11502      3375         
      4350  -56.159474      0.40199467    -55.75748       0.029520714    345.55179      831.16615      3375         
      4360  -56.196609      0.43752359    -55.759085      0.029520714    376.0922       592.81633      3375         
      4370  -56.226689      0.45715129    -55.769538      0.029520714    392.96403     -213.56149      3375         
      4380  -56.274272      0.5032683     -55.771003      0.029520714    432.60589     -160.10754      3375         
      4390  -56.081742      0.30644863    -55.775294      0.029520714    263.42109      891.89186      3375         
      4400  -56.253711      0.45423269    -55.799478      0.029520714    390.45522     -3.1862228      3375         
      4410  -56.282649      0.48002843    -55.80262       0.029520714    412.62906     -2013.7762      3375         
      4420  -56.12798       0.31884592    -55.809134      0.029520714    274.07771     -965.78438      3375         
      4430  -56.129694      0.29713821    -55.832555      0.029520714    255.41792      1773.9563      3375         
      4440  -56.298038      0.44715046    -55.850888      0.029520714    384.36739      1511.8906      3375         
      4450  -56.167092      0.29470128    -55.872391      0.029520714    253.32315     -657.80911      3375         
      4460  -56.156842      0.28180888    -55.875033      0.029520714    242.24093     -823.24342      3375         
      4470  -56.334853      0.44090585    -55.893947      0.029520714    378.99956      411.16943      3375         
      4480  -56.247334      0.33117126    -55.916163      0.029520714    284.67249      402.70519      3375         
      4490  -56.213124      0.26236705    -55.950757      0.029520714    225.52887     -983.18794      3375         
      4500  -56.31278       0.36968848    -55.943092      0.029520714    317.78162     -1095.9051      3375         
      4510  -56.34409       0.37381918    -55.970271      0.029520714    321.33234      1068.5628      3375         
      4520  -56.197444      0.20820475    -55.989239      0.029520714    178.97134      1567.8071      3375         
      4530  -56.266015      0.26736066    -55.998654      0.029520714    229.82134     -442.68271      3375         
      4540  -56.394445      0.38081203    -56.013633      0.029520714    327.34334     -1215.6798      3375         
      4550  -56.355367      0.33104846    -56.024319      0.029520714    284.56693      175.51543      3375         
      4560  -56.28616       0.2458033     -56.040357      0.029520714    211.29079      515.479        3375         
      4570  -56.385794      0.32856973    -56.057224      0.029520714    282.43623     -696.18767      3375         
      4580  -56.31295       0.25798731    -56.054963      0.029520714    221.76408     -225.06366      3375         
      4590  -56.361397      0.29242844    -56.068969      0.029520714    251.36943      847.87858      3375         
      4600  -56.415882      0.33638471    -56.079497      0.029520714    289.15393      659.22794      3375         
      4610  -56.355278      0.2648049     -56.090473      0.029520714    227.62443     -502.87083      3375         
      4620  -56.237293      0.15198858    -56.085304      0.029520714    130.64831     -1229.8808      3375         
      4630  -56.38078       0.30233717    -56.078443      0.029520714    259.88691      330.06555      3375         
      4640  -56.392106      0.3049477     -56.087158      0.029520714    262.1309       1663.2978      3375         
      4650  -56.298605      0.20603712    -56.092567      0.029520714    177.10806     -390.58938      3375         
      4660  -56.275219      0.18856456    -56.086654      0.029520714    162.08877     -1250.9145      3375         
      4670  -56.399679      0.3198737     -56.079805      0.029520714    274.96118      168.09441      3375         
      4680  -56.382514      0.30447231    -56.078042      0.029520714    261.72226      270.18536      3375         
      4690  -56.314824      0.24606084    -56.068764      0.029520714    211.51216     -20.064134      3375         
      4700  -56.236774      0.17542309    -56.06135       0.029520714    150.79245      95.529478      3375         
      4710  -56.324989      0.27450542    -56.050484      0.029520714    235.96293      153.11179      3375         
      4720  -56.390975      0.35868192    -56.032293      0.029520714    308.32045      945.87305      3375         
      4730  -56.415319      0.40423499    -56.011084      0.029520714    347.47755     -116.47136      3375         
      4740  -56.263563      0.28950289    -55.97406       0.029520714    248.85465     -1590.9835      3375         
      4750  -56.2741        0.34220371    -55.931897      0.029520714    294.1559       100.40949      3375         
      4760  -56.337153      0.43408764    -55.903065      0.029520714    373.13868      846.5302       3375         
      4770  -56.266086      0.40931799    -55.856768      0.029520714    351.84686     -693.12691      3375         
      4780  -56.120757      0.32444959    -55.796308      0.029520714    278.89458     -234.08906      3375         
      4790  -56.241697      0.47641107    -55.765286      0.029520714    409.51961      873.25846      3375         
      4800  -56.170471      0.43943054    -55.73104       0.029520714    377.7314       898.18847      3375         
      4810  -56.172378      0.46653505    -55.705843      0.029520714    401.03025      122.22817      3375         
      4820  -56.128777      0.43384593    -55.694931      0.029520714    372.93091     -1573.425       3375         
      4830  -56.129764      0.45317934    -55.676584      0.029520714    389.54977     -947.84668      3375         
      4840  -56.096857      0.42217634    -55.674681      0.029520714    362.89981      1149.8001      3375         
      4850  -56.229756      0.54447766    -55.685279      0.029520714    468.02916      62.462264      3375         
      4860  -56.079049      0.41275533    -55.666293      0.029520714    354.80158     -393.95865      3375         
      4870  -56.068526      0.39422472    -55.674302      0.029520714    338.8728       1052.9444      3375         
      4880  -56.040547      0.35558263    -55.684965      0.029520714    305.65633      533.39346      3375         
      4890  -56.177933      0.49415421    -55.683779      0.029520714    424.77148     -1058.2106      3375         
      4900  -56.108736      0.41928488    -55.689451      0.029520714    360.41433     -1317.2942      3375         
      4910  -56.185428      0.49212928    -55.693298      0.029520714    423.03087      80.218205      3375         
      4920  -56.171917      0.45545932    -55.716458      0.029520714    391.50963      2065.9571      3375         
      4930  -56.167027      0.43232638    -55.734701      0.029520714    371.62472      391.98484      3375         
      4940  -56.102587      0.35537799    -55.747209      0.029520714    305.48042     -2024.6217      3375         
      4950  -56.224455      0.47229835    -55.752157      0.029520714    405.98434     -515.97461      3375         
      4960  -56.206507      0.42484644    -55.78166       0.029520714    365.19501      1312.2164      3375         
      4970  -56.227565      0.4210065     -55.806559      0.029520714    361.89422      635.28342      3375         
      4980  -56.250621      0.42249165    -55.82813       0.029520714    363.17085     -578.48153      3375         
      4990  -56.252196      0.41277108    -55.839425      0.029520714    354.81511     -532.39248      3375         
      5000  -56.190857      0.32824148    -55.862615      0.029520714    282.15406      523.4497       3375         
      5010  -56.321589      0.43271034    -55.888878      0.029520714    371.95476      100.41009      3375         
      5020  -56.349773      0.43741521    -55.912357      0.029520714    375.99904     -1092.7977      3375         
      5030  -56.328998      0.39690636    -55.932091      0.029520714    341.17791     -182.30468      3375         
      5040  -56.230358      0.27692285    -55.953435      0.029520714    238.04093      1057.2672      3375         
      5050  -56.259684      0.29371451    -55.96597       0.029520714    252.47493      378.54711      3375         
      5060  -56.261238      0.28192484    -55.979313      0.029520714    242.34061     -161.91619      3375         
      5070  -56.341177      0.35013224    -55.991045      0.029520714    300.97121     -103.61851      3375         
      5080  -56.2491        0.25026281    -55.998837      0.029520714    215.12415      429.79774      3375         
      5090  -56.31471       0.29819725    -56.016512      0.029520714    256.32826     -62.364847      3375         
      5100  -56.263869      0.24791047    -56.015958      0.029520714    213.10209     -1394.3706      3375         
      5110  -56.304403      0.3006545     -56.003748      0.029520714    258.44049     -516.81184      3375         
      5120  -56.321589      0.30156293    -56.020026      0.029520714    259.22137      1472.6498      3375         
      5130  -56.378407      0.35340952    -56.024997      0.029520714    303.78834      1020.2123      3375         
      5140  -56.267038      0.23932122    -56.027717      0.029520714    205.71884     -543.63077      3375         
      5150  -56.339493      0.31257091    -56.026922      0.029520714    268.68376     -806.34492      3375         
      5160  -56.33659       0.31598378    -56.020606      0.029520714    271.61744      130.0201       3375         
      5170  -56.303569      0.27847576    -56.025093      0.029520714    239.37581      247.46804      3375         
      5180  -56.369775      0.34159583    -56.028179      0.029520714    293.63337     -320.39434      3375         
      5190  -56.401133      0.382208      -56.018925      0.029520714    328.5433      -138.20036      3375         
      5200  -56.292103      0.27080849    -56.021294      0.029520714    232.78508      588.43658      3375         
      5210  -56.243229      0.21791904    -56.02531       0.029520714    187.32167      482.42874      3375         
      5220  -56.378305      0.369985      -56.00832       0.029520714    318.0365      -522.95144      3375         
      5230  -56.269612      0.2627294     -56.006883      0.029520714    225.84034     -957.26508      3375         
      5240  -56.278973      0.28355577    -55.995417      0.029520714    243.74255      381.4356       3375         
      5250  -56.30892       0.32004004    -55.98888       0.029520714    275.10416      837.40442      3375         
      5260  -56.361402      0.37703963    -55.984362      0.029520714    324.10062     -563.81694      3375         
      5270  -56.181499      0.22529499    -55.956204      0.029520714    193.66199     -247.53251      3375         
      5280  -56.287237      0.34071487    -55.946522      0.029520714    292.8761       501.53605      3375         
      5290  -56.208988      0.27957141    -55.929416      0.029520714    240.31762      213.39782      3375         
      5300  -56.249536      0.34266221    -55.906874      0.029520714    294.55002     -343.01426      3375         
      5310  -56.204514      0.33461242    -55.869902      0.029520714    287.63048     -829.6146       3375         
      5320  -56.313315      0.47918272    -55.834132      0.029520714    411.90209      322.80338      3375         
      5330  -56.106588      0.31505903    -55.791529      0.029520714    270.82252      1540.4699      3375         
      5340  -56.176376      0.40966278    -55.766713      0.029520714    352.14324     -290.86428      3375         
      5350  -56.183865      0.4432857     -55.74058       0.029520714    381.04527     -1411.6172      3375         
      5360  -56.155257      0.4609869     -55.69427       0.029520714    396.2611      -112.52082      3375         
      5370  -56.144397      0.47180429    -55.672593      0.029520714    405.55965      356.10614      3375         
      5380  -56.169728      0.50753455    -55.662193      0.029520714    436.27313     -32.658779      3375         
      5390  -56.09422       0.44928445    -55.644935      0.029520714    386.20175      399.93627      3375         
      5400  -56.193345      0.55106426    -55.642281      0.029520714    473.69096      332.62782      3375         
      5410  -56.247455      0.60352717    -55.643928      0.029520714    518.78771      292.75194      3375         
      5420  -56.112027      0.46246769    -55.649559      0.029520714    397.53397      77.170559      3375         
      5430  -56.126102      0.46837078    -55.657731      0.029520714    402.60822     -1423.1686      3375         
      5440  -56.01971       0.35973313    -55.659976      0.029520714    309.22407     -421.7002       3375         
      5450  -56.129247      0.45750997    -55.671737      0.029520714    393.27235      1485.8756      3375         
      5460  -56.337915      0.64207297    -55.695842      0.029520714    551.92141     -93.73667       3375         
      5470  -56.201439      0.49097788    -55.710462      0.029520714    422.04113     -906.02887      3375         
      5480  -55.909344      0.18956779    -55.719776      0.029520714    162.95114      584.47236      3375         
      5490  -56.081734      0.35101479    -55.730719      0.029520714    301.72985      424.80649      3375         
      5500  -56.29039       0.54221305    -55.748177      0.029520714    466.08252      152.34063      3375         
      5510  -56.168173      0.40099642    -55.767176      0.029520714    344.6937      -328.16702      3375         
      5520  -56.229161      0.45401816    -55.775143      0.029520714    390.27082     -863.5784       3375         
      5530  -56.270789      0.47219324    -55.798596      0.029520714    405.89399      854.72358      3375         
      5540  -56.166189      0.34497918    -55.821209      0.029520714    296.54168      630.05618      3375         
      5550  -56.115776      0.28909735    -55.826678      0.029520714    248.50605     -906.51922      3375         
      5560  -56.345247      0.50244856    -55.842798      0.029520714    431.90125     -133.55955      3375         
      5570  -56.297188      0.43304077    -55.864147      0.029520714    372.2388       447.99492      3375         
      5580  -56.287072      0.40643802    -55.880634      0.029520714    349.37126     -129.7025       3375         
      5590  -56.288106      0.38585095    -55.902255      0.029520714    331.67476     -252.98327      3375         
      5600  -56.302618      0.39372577    -55.908893      0.029520714    338.4439      -161.24752      3375         
      5610  -56.155372      0.23180724    -55.923565      0.029520714    199.25987      749.93961      3375         
      5620  -56.277173      0.33941773    -55.937755      0.029520714    291.76109      593.92608      3375         
      5630  -56.310436      0.36286721    -55.947569      0.029520714    311.9181      -899.40196      3375         
      5640  -56.284236      0.33662762    -55.947609      0.029520714    289.36273     -985.82758      3375         
      5650  -56.258151      0.2968918     -55.961259      0.029520714    255.2061       410.21335      3375         
      5660  -56.317946      0.35450256    -55.963444      0.029520714    304.72791      724.90771      3375         
      5670  -56.238951      0.26712969    -55.971822      0.029520714    229.62281      19.888871      3375         
      5680  -56.16741       0.18961061    -55.977799      0.029520714    162.98795     -214.66499      3375         
      5690  -56.283322      0.31221278    -55.971109      0.029520714    268.37591      149.22659      3375         
      5700  -56.344886      0.36831483    -55.976571      0.029520714    316.60083      14.600438      3375         
      5710  -56.28259       0.30068179    -55.981908      0.029520714    258.46395     -505.72216      3375         
      5720  -56.189335      0.22035802    -55.968977      0.029520714    189.4182      -389.08123      3375         
      5730  -56.327101      0.35418292    -55.972918      0.029520714    304.45314      589.57853      3375         
      5740  -56.236918      0.26129033    -55.975628      0.029520714    224.60333      905.21402      3375         
      5750  -56.231993      0.26027428    -55.971719      0.029520714    223.72994     -465.52862      3375         
      5760  -56.292887      0.33129017    -55.961597      0.029520714    284.7747      -854.29435      3375         
      5770  -56.350647      0.3982993     -55.952348      0.029520714    342.37528      132.93851      3375         
      5780  -56.160621      0.21190574    -55.948715      0.029520714    182.15268      436.97903      3375         
      5790  -56.297397      0.35056347    -55.946833      0.029520714    301.34189     -19.462597      3375         
      5800  -56.331762      0.39494647    -55.936816      0.029520714    339.49321     -230.73511      3375         
      5810  -56.207484      0.28205171    -55.925432      0.029520714    242.44967      173.90141      3375         
      5820  -56.237221      0.31534095    -55.92188       0.029520714    271.06487      311.82439      3375         
      5830  -56.402917      0.49132249    -55.911594      0.029520714    422.33735     -436.73817      3375         
      5840  -56.236019      0.34081775    -55.895201      0.029520714    292.96454     -465.5413       3375         
      5850  -56.234286      0.34554345    -55.888743      0.029520714    297.02672      344.70787      3375         
      5860  -56.397432      0.51896678    -55.878465      0.029520714    446.10019      645.92982      3375         
      5870  -56.279239      0.41282286    -55.866416      0.029520714    354.85962     -38.023039      3375         
      5880  -56.118843      0.26522274    -55.853621      0.029520714    227.9836      -709.73455      3375         
      5890  -56.190842      0.35008126    -55.840761      0.029520714    300.92739     -58.032907      3375         
      5900  -56.261455      0.43681526    -55.824639      0.029520714    375.48332      654.09648      3375         
      5910  -56.152777      0.35009087    -55.802686      0.029520714    300.93565     -115.72683      3375         
      5920  -56.169474      0.39314232    -55.776332      0.029520714    337.94237     -659.7953       3375         
      5930  -56.192933      0.45477574    -55.738157      0.029520714    390.92203      205.627        3375         
      5940  -56.129243      0.42986217    -55.699381      0.029520714    369.5065       933.75679      3375         
      5950  -56.026377      0.3586119     -55.667765      0.029520714    308.26027      336.03571      3375         
      5960  -56.169353      0.54349855    -55.625855      0.029520714    467.18753     -820.44367      3375         
      5970  -56.222522      0.65296409    -55.569558      0.029520714    561.28333     -597.35171      3375         
      5980  -56.10743       0.56912289    -55.538307      0.029520714    489.21403      162.81811      3375         
      5990  -56.097135      0.59336343    -55.503772      0.029520714    510.05103      279.22117      3375         
      6000  -56.120447      0.63880224    -55.481644      0.029520714    549.10991      276.06934      3375         
      6010  -56.127697      0.64829644    -55.479401      0.029520714    557.27106      171.12428      3375         
      6020  -55.930229      0.45068704    -55.479542      0.029520714    387.40741      373.04345      3375         
      6030  -56.126806      0.63562418    -55.491182      0.029520714    546.37807     -365.41072      3375         
      6040  -56.20125       0.69077203    -55.510478      0.029520714    593.78278     -1379.8975      3375         
      6050  -56.105245      0.57982048    -55.525425      0.029520714    498.4096      -183.05842      3375         
      6060  -55.973244      0.40979678    -55.563447      0.029520714    352.25842      1281.9361      3375         
      6070  -56.191134      0.59393801    -55.597196      0.029520714    510.54494      746.45736      3375         
      6080  -56.085164      0.44405515    -55.641109      0.029520714    381.70668     -279.49256      3375         
      6090  -56.048512      0.38612578    -55.662386      0.029520714    331.911       -907.8391       3375         
      6100  -56.195527      0.51237957    -55.683147      0.029520714    440.43788     -289.59349      3375         
      6110  -56.272364      0.54737301    -55.724991      0.029520714    470.51799      512.4729       3375         
      6120  -56.081788      0.32244106    -55.759347      0.029520714    277.16807     -138.23467      3375         
      6130  -56.311273      0.53036772    -55.780905      0.029520714    455.90036     -106.95842      3375         
      6140  -56.392474      0.57770199    -55.814772      0.029520714    496.58857      777.93363      3375         
      6150  -56.197866      0.35294959    -55.844917      0.029520714    303.39299     -328.92979      3375         
      6160  -56.178508      0.32148256    -55.857025      0.029520714    276.34415     -931.17837      3375         
      6170  -56.28512       0.41285572    -55.872265      0.029520714    354.88787      38.19129       3375         
      6180  -56.283114      0.39330634    -55.889808      0.029520714    338.08336      598.01798      3375         
      6190  -56.272843      0.36704065    -55.905802      0.029520714    315.50556      652.70113      3375         
      6200  -56.350097      0.42930905    -55.920788      0.029520714    369.03104      14.770373      3375         
      6210  -56.206308      0.28241993    -55.923888      0.029520714    242.76618     -662.13882      3375         
      6220  -56.161604      0.23003689    -55.931567      0.029520714    197.73809     -16.762246      3375         
      6230  -56.222278      0.28410389    -55.938174      0.029520714    244.2137       555.12396      3375         
      6240  -56.360456      0.41259743    -55.947858      0.029520714    354.66584     -506.62802      3375         
      6250  -56.260467      0.30737904    -55.953088      0.029520714    264.22086     -730.85996      3375         
      6260  -56.206322      0.26095082    -55.945372      0.029520714    224.31149      399.86507      3375         
      6270  -56.286172      0.3326307     -55.953541      0.029520714    285.92701      656.77577      3375         
      6280  -56.342324      0.38384661    -55.958477      0.029520714    329.95184      369.00252      3375         
      6290  -56.300979      0.34041555    -55.960563      0.029520714    292.61881      59.93136       3375         
      6300  -56.371973      0.40728697    -55.964686      0.029520714    350.10101     -425.53281      3375         
      6310  -56.385049      0.41271982    -55.97233       0.029520714    354.77105     -198.76041      3375         
      6320  -56.244067      0.27185792    -55.972209      0.029520714    233.68715     -368.95702      3375         
      6330  -56.26187       0.2886475     -55.973223      0.029520714    248.11936     -544.82088      3375         
      6340  -56.348316      0.36920667    -55.97911       0.029520714    317.36746      924.68788      3375         
      6350  -56.33252       0.34715911    -55.985361      0.029520714    298.41553      1062.4273      3375         
      6360  -56.22708       0.23200985    -55.99507       0.029520714    199.43403     -700.79474      3375         
[...]
     48420  -56.192387      0.29466521    -55.897722      0.029520714    253.29214      84.260844      3375         
     48430  -56.283861      0.40597321    -55.877887      0.029520714    348.97172      826.0954       3375         
     48440  -56.196061      0.32827595    -55.867785      0.029520714    282.18369      668.55771      3375         
     48450  -56.210655      0.33741221    -55.873242      0.029520714    290.03716     -133.79518      3375         
     48460  -56.272026      0.45007318    -55.821952      0.029520714    386.87974     -1522.1311      3375         
     48470  -56.234526      0.42241157    -55.812114      0.029520714    363.10201     -461.69714      3375         
     48480  -56.088794      0.29027263    -55.798521      0.029520714    249.51631      1495.8191      3375         
     48490  -56.236263      0.4529059     -55.783357      0.029520714    389.31472      767.39937      3375         
     48500  -56.342434      0.57707133    -55.765363      0.029520714    496.04645     -688.73612      3375         
     48510  -56.059623      0.30046606    -55.759157      0.029520714    258.27851     -584.02093      3375         
     48520  -56.134622      0.41627725    -55.718345      0.029520714    357.82899     -473.68136      3375         
     48530  -56.289605      0.57046187    -55.719144      0.029520714    490.36501     -59.742879      3375         
     48540  -56.055145      0.35515111    -55.699994      0.029520714    305.2854       1180.9469      3375         
     48550  -56.165442      0.47203044    -55.693412      0.029520714    405.75405      858.7385       3375         
     48560  -56.322915      0.63095852    -55.691957      0.029520714    542.36751     -483.89909      3375         
     48570  -56.032858      0.35586645    -55.676991      0.029520714    305.9003      -1244.9702      3375         
     48580  -56.070327      0.4226675     -55.647659      0.029520714    363.32201     -1324.0037      3375         
     48590  -56.232108      0.57635485    -55.655753      0.029520714    495.43057      488.72071      3375         
     48600  -56.108324      0.45635784    -55.651966      0.029520714    392.28199      2554.8459      3375         
     48610  -56.126672      0.47496975    -55.651702      0.029520714    408.28066      447.55314      3375         
     48620  -56.085894      0.40909862    -55.676796      0.029520714    351.65829     -1961.1826      3375         
     48630  -56.138207      0.50426086    -55.633946      0.029520714    433.45909     -933.41577      3375         
     48640  -56.132403      0.46924224    -55.66316       0.029520714    403.35733      166.86522      3375         
     48650  -56.124578      0.44431564    -55.680262      0.029520714    381.93059      1062.7843      3375         
     48660  -56.176264      0.47436054    -55.701904      0.029520714    407.75698      1131.1514      3375         
     48670  -56.152845      0.4132951     -55.73955       0.029520714    355.26556     -1147.2438      3375         
     48680  -56.102738      0.35218286    -55.750555      0.029520714    302.73391     -887.27748      3375         
     48690  -56.288859      0.51149881    -55.77736       0.029520714    439.68078      577.00247      3375         
     48700  -56.153258      0.32567313    -55.827585      0.029520714    279.94633     -220.86379      3375         
     48710  -56.208973      0.36255113    -55.846422      0.029520714    311.6464       573.46325      3375         
     48720  -56.351606      0.46746567    -55.88414       0.029520714    401.8302       1032.8441      3375         
     48730  -56.179057      0.24944072    -55.929617      0.029520714    214.41748     -1260.823       3375         
     48740  -56.261443      0.33480078    -55.926642      0.029520714    287.7924      -962.14061      3375         
     48750  -56.371461      0.4175849     -55.953877      0.029520714    358.95304      599.54902      3375         
     48760  -56.21803       0.23787674    -55.980153      0.029520714    204.47717      556.5591       3375         
     48770  -56.328884      0.3331123     -55.995771      0.029520714    286.34099      765.75021      3375         
     48780  -56.343418      0.32415399    -56.019264      0.029520714    278.64049     -555.29317      3375         
     48790  -56.218224      0.20996058    -56.008263      0.029520714    180.48064     -1546.0699      3375         
     48800  -56.372228      0.34851428    -56.023714      0.029520714    299.58042      719.49154      3375         
     48810  -56.343904      0.30793445    -56.03597       0.029520714    264.69828      1320.4946      3375         
     48820  -56.298888      0.25720926    -56.041679      0.029520714    221.09527      5.4485497      3375         
     48830  -56.32286       0.27003396    -56.052826      0.029520714    232.11929     -239.71861      3375         
     48840  -56.324746      0.26638836    -56.058357      0.029520714    228.98556     -1160.5793      3375         
     48850  -56.397782      0.36008023    -56.037702      0.029520714    309.52243     -843.11608      3375         
     48860  -56.34613       0.29172802    -56.054402      0.029520714    250.76735      1042.5801      3375         
     48870  -56.199033      0.14314109    -56.055892      0.029520714    123.04307      1098.4553      3375         
     48880  -56.445786      0.39179342    -56.053992      0.029520714    336.78286      501.05044      3375         
     48890  -56.417354      0.35209808    -56.065256      0.029520714    302.66103     -345.96692      3375         
     48900  -56.206327      0.16299581    -56.043331      0.029520714    140.11005     -1777.0121      3375         
     48910  -56.352748      0.31330302    -56.039445      0.029520714    269.31307     -552.49238      3375         
     48920  -56.397082      0.35727951    -56.039802      0.029520714    307.11495      1353.3534      3375         
     48930  -56.278036      0.24239088    -56.035645      0.029520714    208.35749      954.39314      3375         
     48940  -56.318603      0.28879675    -56.029806      0.029520714    248.24765     -41.556241      3375         
     48950  -56.382147      0.34820878    -56.033939      0.029520714    299.31781     -1004.9125      3375         
     48960  -56.259446      0.27644142    -55.983005      0.029520714    237.6271      -739.58403      3375         
     48970  -56.240834      0.24824081    -55.992593      0.029520714    213.38605      671.43111      3375         
     48980  -56.353059      0.37076942    -55.98229       0.029520714    318.71079      887.53119      3375         
     48990  -56.351318      0.39275504    -55.958563      0.029520714    337.60947     -87.850749      3375         
     49000  -56.133387      0.18714743    -55.94624       0.029520714    160.87061     -518.17955      3375         
     49010  -56.343253      0.41860284    -55.92465       0.029520714    359.82806     -721.71262      3375         
     49020  -56.326301      0.43599783    -55.890303      0.029520714    374.78066     -95.26486       3375         
     49030  -56.067335      0.19015477    -55.87718       0.029520714    163.4557       750.80009      3375         
     49040  -56.33041       0.46513004    -55.86528       0.029520714    399.82251      813.36809      3375         
     49050  -56.327032      0.49229869    -55.834733      0.029520714    423.17649     -111.21837      3375         
     49060  -56.067435      0.24411678    -55.823318      0.029520714    209.84106     -1335.6331      3375         
     49070  -56.279121      0.50085157    -55.778269      0.029520714    430.52849     -581.87557      3375         
     49080  -56.287533      0.50167634    -55.785856      0.029520714    431.23745      1294.6505      3375         
     49090  -56.078611      0.32010894    -55.758502      0.029520714    275.16339      1239.3399      3375         
     49100  -56.324711      0.55594333    -55.768768      0.029520714    477.88498     -595.29473      3375         
     49110  -56.136852      0.38652925    -55.750323      0.029520714    332.25782     -1593.341       3375         
     49120  -56.085556      0.35656487    -55.728991      0.029520714    306.50065     -675.47427      3375         
     49130  -56.306557      0.57249063    -55.734066      0.029520714    492.10891      1132.9927      3375         
     49140  -56.148567      0.41447995    -55.734087      0.029520714    356.28405      1336.0745      3375         
     49150  -56.113634      0.37369041    -55.739943      0.029520714    321.22164      285.52354      3375         
     49160  -56.255382      0.51036696    -55.745015      0.029520714    438.70785     -563.01695      3375         
     49170  -56.139897      0.38856951    -55.751327      0.029520714    334.01162     -1181.3932      3375         
     49180  -56.150817      0.41847906    -55.732338      0.029520714    359.72166     -850.02085      3375         
     49190  -56.160244      0.39882204    -55.761422      0.029520714    342.82462      699.29157      3375         
     49200  -56.220383      0.45825396    -55.762129      0.029520714    393.91188      1233.7636      3375         
     49210  -56.258253      0.4783313     -55.779921      0.029520714    411.17022      536.92532      3375         
     49220  -56.110018      0.30561237    -55.804406      0.029520714    262.70224     -599.6106       3375         
     49230  -56.204782      0.41699114    -55.787791      0.029520714    358.44265     -1250.7395      3375         
     49240  -56.306374      0.50270045    -55.803673      0.029520714    432.11777      300.02433      3375         
     49250  -56.169225      0.34500775    -55.824217      0.029520714    296.56624      1079.067       3375         
     49260  -56.182521      0.33733775    -55.845184      0.029520714    289.97315     -39.691474      3375         
     49270  -56.214869      0.36302428    -55.851845      0.029520714    312.05312     -789.26129      3375         
     49280  -56.294236      0.42133018    -55.872906      0.029520714    362.17246     -528.4088       3375         
     49290  -56.221222      0.36165687    -55.859565      0.029520714    310.8777       418.65468      3375         
     49300  -56.141775      0.2527934     -55.888981      0.029520714    217.29943      952.82441      3375         
     49310  -56.336946      0.43690838    -55.900037      0.029520714    375.56337     -17.392392      3375         
     49320  -56.292724      0.39523361    -55.89749       0.029520714    339.74003     -634.85627      3375         
     49330  -56.142522      0.2374017     -55.90512       0.029520714    204.06883     -180.16407      3375         
     49340  -56.351548      0.42844455    -55.923104      0.029520714    368.28792     -478.93062      3375         
     49350  -56.266751      0.36872817    -55.898023      0.029520714    316.95614      485.02207      3375         
     49360  -56.134739      0.21911376    -55.915625      0.029520714    188.34865      945.28836      3375         
     49370  -56.406319      0.4760265     -55.930292      0.029520714    409.18903     -134.1418       3375         
     49380  -56.287832      0.37059894    -55.917233      0.029520714    318.56424     -733.17352      3375         
     49390  -56.136642      0.21269053    -55.923951      0.029520714    182.82728     -990.25439      3375         
     49400  -56.358369      0.44415622    -55.914213      0.029520714    381.79356      6.6430201      3375         
     49410  -56.281059      0.35255802    -55.928501      0.029520714    303.0564       1883.9076      3375         
     49420  -56.191615      0.27191258    -55.919702      0.029520714    233.73414      651.75607      3375         
     49430  -56.359892      0.42369505    -55.936197      0.029520714    364.20529     -1009.2784      3375         
     49440  -56.283914      0.36274971    -55.921164      0.029520714    311.8171      -826.51365      3375         
     49450  -56.161248      0.23055426    -55.930694      0.029520714    198.18282     -828.83231      3375         
     49460  -56.324822      0.40564367    -55.919179      0.029520714    348.68844      339.57113      3375         
     49470  -56.322527      0.3937284     -55.928799      0.029520714    338.44616      1420.6618      3375         
     49480  -56.219377      0.28470265    -55.934674      0.029520714    244.7284       187.68271      3375         
     49490  -56.25318       0.32352257    -55.929658      0.029520714    278.09773     -314.6887       3375         
     49500  -56.346847      0.41647872    -55.930369      0.029520714    358.00218     -494.01906      3375         
     49510  -56.181633      0.25833447    -55.923298      0.029520714    222.06249     -883.23759      3375         
     49520  -56.260129      0.33169228    -55.928436      0.029520714    285.12035      915.77224      3375         
     49530  -56.405166      0.47956173    -55.925605      0.029520714    412.22789      1178.1534      3375         
     49540  -56.190489      0.25625055    -55.934239      0.029520714    220.27117     -1026.8132      3375         
     49550  -56.232605      0.31067741    -55.921928      0.029520714    267.05612     -852.54468      3375         
     49560  -56.445937      0.52343841    -55.922499      0.029520714    449.94398      196.01751      3375         
     49570  -56.138037      0.22372837    -55.914308      0.029520714    192.31533      592.07516      3375         
     49580  -56.264422      0.34615366    -55.918268      0.029520714    297.55125      1097.2373      3375         
     49590  -56.450301      0.5226744     -55.927626      0.029520714    449.28723     -339.18801      3375         
     49600  -56.137138      0.23114359    -55.905994      0.029520714    198.6894      -1627.7037      3375         
     49610  -56.21554       0.30470047    -55.91084       0.029520714    261.91838      105.36833      3375         
     49620  -56.360551      0.45315733    -55.907394      0.029520714    389.53085      443.42027      3375         
     49630  -56.209949      0.30886735    -55.901082      0.029520714    265.5002       169.55777      3375         
     49640  -56.306192      0.40496237    -55.90123       0.029520714    348.10281      983.27682      3375         
     49650  -56.285275      0.3858042     -55.899471      0.029520714    331.63457     -232.49892      3375         
     49660  -56.099815      0.21300065    -55.886815      0.029520714    183.09386     -1220.354       3375         
     49670  -56.333025      0.44126345    -55.891762      0.029520714    379.30695     -209.7674       3375         
     49680  -56.331359      0.46800909    -55.86335       0.029520714    402.29732      441.07709      3375         
     49690  -56.04407       0.1717695     -55.8723        0.029520714    147.65185      885.40613      3375         
     49700  -56.290402      0.41570763    -55.874694      0.029520714    357.33936      585.91701      3375         
     49710  -56.412419      0.5702303     -55.842188      0.029520714    490.16595     -1334.8939      3375         
     49720  -56.072139      0.23354642    -55.838593      0.029520714    200.75486     -1083.6941      3375         
     49730  -56.234706      0.3976054     -55.8371        0.029520714    341.7788       641.777        3375         
     49740  -56.376123      0.56264385    -55.813479      0.029520714    483.64469      946.75328      3375         
     49750  -56.118454      0.30947034    -55.808984      0.029520714    266.01853      287.63888      3375         
     49760  -56.140091      0.32631306    -55.813778      0.029520714    280.49641     -113.87999      3375         
     49770  -56.320868      0.55091716    -55.769951      0.029520714    473.56452     -620.04689      3375         
     49780  -56.185367      0.40798627    -55.777381      0.029520714    350.70213     -509.43432      3375         
     49790  -56.07316       0.30686652    -55.766294      0.029520714    263.78031      386.3168       3375         
     49800  -56.238697      0.48294355    -55.755753      0.029520714    415.13488      340.06925      3375         
     49810  -56.221093      0.46636164    -55.754732      0.029520714    400.88119     -138.9469       3375         
     49820  -56.056372      0.30993548    -55.746436      0.029520714    266.41836      58.062742      3375         
     49830  -56.219841      0.48527434    -55.734567      0.029520714    417.13841     -466.30525      3375         
     49840  -56.175251      0.43407815    -55.741173      0.029520714    373.13052     -331.03651      3375         
     49850  -56.05681       0.32207874    -55.734731      0.029520714    276.85662      1718.09        3375         
     49860  -56.240418      0.50070906    -55.739709      0.029520714    430.40599      776.10732      3375         
     49870  -56.240818      0.47606818    -55.76475       0.029520714    409.22486     -1851.709       3375         
     49880  -56.121115      0.39062962    -55.730485      0.029520714    335.78247     -1263.4748      3375         
     49890  -56.284803      0.53046087    -55.754342      0.029520714    455.98044      201.02051      3375         
     49900  -56.19441       0.42424686    -55.770163      0.029520714    364.67962      1067.0463      3375         
     49910  -56.168818      0.38358688    -55.785232      0.029520714    329.72859      1504.5756      3375         
     49920  -56.302122      0.49349462    -55.808627      0.029520714    424.2045      -536.34921      3375         
     49930  -56.186172      0.36917994    -55.816992      0.029520714    317.34448     -1291.5619      3375         
     49940  -56.170876      0.33405234    -55.836824      0.029520714    287.14904      170.2667       3375         
     49950  -56.311465      0.44409547    -55.86737       0.029520714    381.74134     -519.87529      3375         
     49960  -56.264177      0.37733953    -55.886838      0.029520714    324.3584      -44.844605      3375         
     49970  -56.177654      0.26797357    -55.909681      0.029520714    230.34819      1807.2037      3375         
     49980  -56.326634      0.37994856    -55.946685      0.029520714    326.60111      75.379157      3375         
     49990  -56.373768      0.41884156    -55.954926      0.029520714    360.03326     -1290.1377      3375         
     50000  -56.176483      0.20484728    -55.971635      0.029520714    176.08528     -379.44532      3375         
Loop time of 81.9468 on 3 procs for 50000 steps with 10 atoms

Performance: 26.359 ns/day, 0.911 hours/ns, 610.152 timesteps/s, 6.102 katom-step/s
167.8% CPU use with 3 MPI tasks x no OpenMP threads

MPI task timing breakdown:
Section |  min time  |  avg time  |  max time  |%varavg| %total
---------------------------------------------------------------
Pair    | 26.816     | 44.011     | 77.966     | 361.9 | 53.71
Neigh   | 0.00047555 | 0.00059489 | 0.00083287 |   0.0 |  0.00
Comm    | 1.036      | 34.912     | 52.099     | 405.4 | 42.60
Output  | 0.57458    | 0.64014    | 0.76661    |  11.2 |  0.78
Modify  | 1.8989     | 2.0039     | 2.1494     |   7.5 |  2.45
Other   |            | 0.3792     |            |       |  0.46

Nlocal:        3.33333 ave          10 max           0 min
Histogram: 2 0 0 0 0 0 0 0 0 1
Nghost:        78.6667 ave          95 max          48 min
Histogram: 1 0 0 0 0 0 0 0 0 2
Neighs:              0 ave           0 max           0 min
Histogram: 3 0 0 0 0 0 0 0 0 0
FullNghs:           30 ave          90 max           0 min
Histogram: 2 0 0 0 0 0 0 0 0 1

Total # of neighbors = 90
Ave neighs/atom = 9
Neighbor list builds = 92
Dangerous builds = 0

write_data	restart.data
System init for write_data ...
Generated 0 of 1 mixed pair_coeff terms from geometric mixing rule
#
Total wall time: 0:01:23
