LAMMPS data file via write_data, version 2 Aug 2023, timestep = 50000, units = metal

10 atoms
2 atom types

0 15 xlo xhi
0 15 ylo yhi
0 15 zlo zhi

Masses

1 12
2 2

Atoms # atomic

10 2 5.941959888337435 8.472590077681856 9.288475569369 0 0 0
4 1 6.596031276377095 8.282677356274716 8.41479322108389 0 0 0
7 2 7.671001450763993 5.906199798355614 6.314412650760043 0 0 0
8 2 6.217108712799072 6.228397115638942 8.155056472348342 0 0 0
9 2 7.089119260184378 9.298876985129285 8.091040359769613 0 0 0
1 1 8.804096592543816 7.64334591591845 6.724881768135482 0 0 0
3 1 6.798077898644044 7.066123110750931 7.939849074749346 0 0 0
2 1 7.761521029677327 6.857301179276024 6.8590134209641604 0 0 0
6 2 8.817862422315397 8.52456736549769 7.371000217309908 0 0 0
5 2 9.628587482817908 7.6926832858362575 6.037789819337942 0 0 0

Velocities

10 -3.616279176352913 -7.431817864026364 -11.030264665135057
4 4.254876451394374 -3.3409325760137554 3.725100475144805
7 2.9333952690596745 3.5047693723398927 -1.411807586751763
8 2.8667241707679048 8.708546301110694 19.64460470351265
9 4.132369482962862 1.7125562488732813 -11.495728292979363
1 -4.608642856780326 -2.4878906867552386 -9.209301983273672
3 -2.1037857795387995 -0.7300367171273157 4.799258968662605
2 -1.0741244057882187 6.582949188076427 1.7291676819652178
6 18.32561798220708 -3.3716528365670873 -6.245557471918558
5 -3.451768184369146 -3.266936470812083 4.273402458279549
