10
 Atoms. Timestep: 0
C 6.96061 8.46927 8.51931
C 7.80594 8.40677 7.43948
C 8.12502 7.10797 6.86287
C 7.25054 6.11858 7.11464
H 6.60795 9.47242 8.77544
H 6.54631 7.71343 9.08197
H 8.20539 9.21348 6.85705
H 9.05473 6.90425 6.21312
H 6.36063 6.20956 7.61439
H 7.49633 5.09135 6.72925
10
 Atoms. Timestep: 20
C 6.94629 8.38916 8.43576
C 7.83494 8.42292 7.44414
C 8.14982 7.12149 6.90316
C 7.25856 6.16361 7.12113
H 6.61468 9.37491 8.79497
H 6.52434 7.59559 9.066
H 8.17268 9.32046 6.94041
H 9.01666 6.85715 6.39876
H 6.30148 6.27911 7.58381
H 7.3565 5.20968 6.67985
10
 Atoms. Timestep: 40
C 6.92724 8.43253 8.40185
C 7.83958 8.40603 7.45009
C 8.18345 7.10256 6.93996
C 7.22494 6.14524 7.09787
H 6.52127 9.34943 8.89565
H 6.71429 7.38291 8.84796
H 8.13981 9.45738 7.17187
H 9.14989 6.93748 6.45033
H 6.1775 6.45746 7.52794
H 7.36993 5.11728 6.65664
10
 Atoms. Timestep: 60
C 6.9025 8.41072 8.44212
C 7.82567 8.46018 7.471
C 8.1807 7.06314 6.95983
C 7.22648 6.17838 7.03189
H 6.43705 9.24271 8.90105
H 6.70545 7.4599 8.83201
H 8.3459 9.35858 7.10949
H 9.22864 6.93354 6.50377
H 6.22343 6.42136 7.28728
H 7.37144 5.1294 6.82635
10
 Atoms. Timestep: 80
C 6.90097 8.34805 8.45574
C 7.85049 8.42718 7.46591
C 8.20878 7.17806 6.97592
C 7.20883 6.20093 6.99115
H 6.38841 9.2344 8.8778
H 6.543 7.46704 8.96383
H 8.40088 9.21596 7.03371
H 9.16345 6.81279 6.66715
H 6.1829 6.43683 7.10604
H 7.43094 5.12769 6.90818
10
 Atoms. Timestep: 100
C 6.90583 8.37988 8.45622
C 7.83841 8.40033 7.52353
C 8.18565 7.08532 6.96371
C 7.23633 6.22749 6.95299
H 6.45011 9.34592 8.79106
H 6.54847 7.39632 8.9456
H 8.2478 9.3841 7.1392
H 9.22819 6.85734 6.82995
H 6.13164 6.51131 6.95786
H 7.5205 5.16686 6.8466
10
 Atoms. Timestep: 120
C 6.87611 8.38693 8.44612
C 7.83712 8.39504 7.52966
C 8.24924 7.10064 7.00554
C 7.20245 6.19762 6.92438
H 6.52373 9.32391 8.80166
H 6.58003 7.4643 8.88438
H 8.10339 9.43393 7.24613
H 9.36344 6.82822 6.9158
H 6.15144 6.53057 6.9362
H 7.41246 5.1577 6.6706
10
 Atoms. Timestep: 140
C 6.83761 8.33073 8.42441
C 7.84173 8.41457 7.50782
C 8.25829 7.09819 7.07291
C 7.25286 6.26027 6.91004
H 6.45847 9.25131 8.883
H 6.49228 7.46162 8.93343
H 8.25414 9.31331 7.1309
H 9.25162 6.76654 6.9056
H 6.25936 6.55765 6.98647
H 7.26518 5.24694 6.55852
10
 Atoms. Timestep: 160
C 6.8362 8.37375 8.4361
C 7.8205 8.40488 7.55826
C 8.2727 7.07722 7.09656
C 7.24331 6.25137 6.85039
H 6.28843 9.27987 8.877
H 6.48961 7.38916 8.8763
H 8.38547 9.22857 7.08369
H 9.29242 6.80841 6.87534
H 6.23873 6.70717 7.04058
H 7.39308 5.16351 6.48822
10
 Atoms. Timestep: 180
C 6.81745 8.36877 8.41753
C 7.8783 8.34718 7.60061
C 8.25391 7.07131 7.0885
C 7.228 6.28799 6.86318
H 6.29014 9.22248 8.72224
H 6.52067 7.39203 8.78193
H 8.31018 9.34019 7.22936
H 9.35921 6.90292 6.87861
H 6.164 6.60059 6.92454
H 7.41386 5.31033 6.53345
10
 Atoms. Timestep: 200
C 6.80265 8.33931 8.40636
C 7.92107 8.39436 7.64988
C 8.27259 7.12626 7.0715
C 7.21497 6.2466 6.84381
H 6.30391 9.27658 8.64564
H 6.39823 7.44283 8.80969
H 8.29611 9.33861 7.40231
H 9.29156 6.78217 6.86678
H 6.19164 6.51338 6.81615
H 7.37485 5.22724 6.51917
10
 Atoms. Timestep: 220
C 6.78447 8.3355 8.39528
C 7.90253 8.42027 7.68598
C 8.2458 7.08943 7.0393
C 7.26749 6.25743 6.82604
H 6.31191 9.32993 8.71997
H 6.24687 7.44567 8.80256
H 8.45822 9.34863 7.47549
H 9.22037 6.73236 6.88186
H 6.22464 6.58093 6.8136
H 7.46029 5.16673 6.51593
10
 Atoms. Timestep: 240
C 6.74913 8.36476 8.37434
C 7.88104 8.32555 7.65003
C 8.27169 7.12729 7.07203
C 7.24502 6.28183 6.82376
H 6.37514 9.23402 8.87532
H 6.24261 7.42862 8.60217
H 8.55692 9.25831 7.56727
H 9.36771 6.81972 6.9347
H 6.18389 6.60678 6.87603
H 7.51649 5.27601 6.51258
10
 Atoms. Timestep: 260
C 6.73224 8.37225 8.36106
C 7.87299 8.3571 7.67338
C 8.28308 7.08305 7.08619
C 7.27044 6.28487 6.80032
H 6.43166 9.2125 8.94582
H 6.19161 7.45986 8.46367
H 8.54017 9.17011 7.64829
H 9.37154 6.94095 6.96155
H 6.23947 6.55003 6.87678
H 7.39704 5.30291 6.46721
10
 Atoms. Timestep: 280
C 6.72826 8.33845 8.34622
C 7.90822 8.39676 7.71997
C 8.28747 7.10637 7.10155
C 7.28485 6.25197 6.77681
H 6.39176 9.27262 8.91646
H 6.01777 7.49996 8.4728
H 8.55446 9.25589 7.71467
H 9.27645 6.84487 6.92287
H 6.25785 6.60517 6.84901
H 7.37287 5.18026 6.34591
10
 Atoms. Timestep: 300
C 6.72494 8.32948 8.3335
C 7.92244 8.32939 7.76179
C 8.2749 7.11714 7.08417
C 7.27024 6.30285 6.79664
H 6.32179 9.24888 8.73373
H 6.04124 7.49646 8.47076
H 8.53174 9.31838 7.79002
H 9.31843 6.73541 6.90095
H 6.22398 6.6094 6.78214
H 7.53174 5.33835 6.35475
10
 Atoms. Timestep: 320
C 6.68662 8.38488 8.36659
C 7.91892 8.2957 7.80667
C 8.2952 7.10123 7.08632
C 7.26386 6.31215 6.73672
H 6.24625 9.33274 8.63865
H 6.18746 7.43921 8.46073
H 8.54021 9.17439 7.78654
H 9.38113 6.7889 6.93882
H 6.21787 6.54791 6.73311
H 7.56351 5.37309 6.35333
10
 Atoms. Timestep: 340
C 6.69885 8.33629 8.31052
C 7.92753 8.33106 7.82704
C 8.29306 7.09862 7.15248
C 7.29025 6.33936 6.70114
H 6.2171 9.27027 8.65419
H 6.09985 7.42518 8.54709
H 8.61573 9.11391 7.75741
H 9.28685 6.88136 6.98983
H 6.21843 6.59217 6.72639
H 7.42789 5.3051 6.26698
10
 Atoms. Timestep: 360
C 6.67518 8.31088 8.30029
C 7.93715 8.33135 7.80058
C 8.28004 7.07873 7.20736
C 7.29596 6.33601 6.67908
H 6.22299 9.21646 8.74249
H 6.06699 7.44137 8.49945
H 8.64448 9.27284 7.79468
H 9.35133 6.83668 7.03859
H 6.30085 6.76938 6.71508
H 7.40732 5.34151 6.17489
10
 Atoms. Timestep: 380
C 6.67833 8.34883 8.33884
C 7.87255 8.31636 7.80009
C 8.32513 7.04094 7.1846
C 7.29398 6.36054 6.67414
H 6.25204 9.23602 8.78434
H 6.1566 7.42633 8.36313
H 8.46286 9.23224 7.84218
H 9.42382 6.66386 7.16755
H 6.33373 6.81769 6.5611
H 7.47506 5.4438 6.18465
10
 Atoms. Timestep: 400
C 6.65706 8.31846 8.35868
C 7.90498 8.30156 7.79629
C 8.34796 7.06976 7.18823
C 7.3122 6.41036 6.65604
H 6.25903 9.25022 8.78157
H 6.01312 7.38831 8.38757
H 8.46153 9.17014 7.80167
H 9.25894 6.60055 7.31068
H 6.31833 6.8068 6.39039
H 7.47989 5.40319 6.22163
10
 Atoms. Timestep: 420
C 6.67689 8.26684 8.33263
C 7.89935 8.32207 7.852
C 8.28899 7.08753 7.20931
C 7.3302 6.4038 6.5703
H 6.2612 9.19129 8.72506
H 5.96036 7.47285 8.50916
H 8.61422 9.24029 7.78664
H 9.26509 6.61592 7.42998
H 6.37832 6.89112 6.33975
H 7.47217 5.32711 6.31292
10
 Atoms. Timestep: 440
C 6.65538 8.28844 8.31918
C 7.91989 8.30887 7.85439
C 8.25826 7.05385 7.24546
C 7.33543 6.42074 6.53504
H 6.20656 9.22494 8.72186
H 6.14318 7.36062 8.47068
H 8.55484 9.23679 7.91955
H 9.32629 6.66375 7.48288
H 6.42877 6.91373 6.27962
H 7.45061 5.38878 6.28997
10
 Atoms. Timestep: 460
C 6.64358 8.30841 8.2896
C 7.89896 8.30767 7.85261
C 8.33579 7.03869 7.2949
C 7.31759 6.46183 6.58114
H 6.11279 9.14695 8.71604
H 6.2337 7.28961 8.36314
H 8.49742 9.10901 7.9737
H 9.25997 6.56142 7.4127
H 6.39512 6.95475 6.19964
H 7.4495 5.45865 6.11431
10
 Atoms. Timestep: 480
C 6.60469 8.3059 8.30879
C 7.90718 8.31398 7.88817
C 8.32195 7.00785 7.27132
C 7.36353 6.44582 6.5699
H 6.02788 9.13988 8.69716
H 5.99805 7.37875 8.30675
H 8.65315 9.20572 7.96673
H 9.26982 6.49334 7.38919
H 6.49399 7.05385 6.30698
H 7.49702 5.5071 5.99311
10
 Atoms. Timestep: 500
C 6.61772 8.27794 8.28077
C 7.89053 8.25042 7.95005
C 8.30488 7.04727 7.28514
C 7.37261 6.45796 6.5084
H 6.16466 9.22611 8.65077
H 5.89789 7.49375 8.24346
H 8.56655 9.17163 7.96809
H 9.36624 6.57053 7.47347
H 6.4892 7.03408 6.38928
H 7.52502 5.52231 6.01778
10
 Atoms. Timestep: 520
C 6.57763 8.30356 8.25442
C 7.89742 8.18423 7.98305
C 8.33304 7.03358 7.28866
C 7.39829 6.5276 6.49627
H 6.34117 9.32221 8.6252
H 5.90195 7.45049 8.19337
H 8.42859 9.03115 8.11843
H 9.31245 6.71218 7.4762
H 6.37125 6.89135 6.29382
H 7.53033 5.5188 6.04753
10
 Atoms. Timestep: 540
C 6.56766 8.34218 8.24183
C 7.85591 8.19736 8.02661
C 8.35411 7.01891 7.28137
C 7.40747 6.49974 6.47435
H 6.18086 9.2613 8.64518
H 5.8308 7.534 8.18721
H 8.59578 9.01609 8.34585
H 9.35071 6.60686 7.34673
H 6.41561 6.9272 6.23402
H 7.6394 5.52541 5.98504
10
 Atoms. Timestep: 560
C 6.55428 8.3202 8.19227
C 7.90764 8.21789 8.04879
C 8.29986 7.05462 7.29121
C 7.4092 6.47527 6.5067
H 6.02217 9.14782 8.69463
H 5.79051 7.55661 8.01106
H 8.7114 8.90692 8.52733
H 9.34437 6.51188 7.2705
H 6.55339 7.03122 6.25094
H 7.67629 5.65763 5.90073
10
 Atoms. Timestep: 580
C 6.56465 8.30862 8.184
C 7.90237 8.20381 8.08687
C 8.30848 7.0534 7.30826
C 7.39544 6.4997 6.48623
H 6.11045 9.16011 8.73927
H 6.00608 7.51948 7.72317
H 8.55863 8.80991 8.55648
H 9.30147 6.67455 7.47041
H 6.4761 7.03848 6.19487
H 7.64566 5.6243 5.8126
10
 Atoms. Timestep: 600
C 6.56563 8.33193 8.20549
C 7.86796 8.15989 8.12442
C 8.31656 7.02781 7.30969
C 7.4431 6.54951 6.40325
H 6.1081 9.15164 8.72417
H 5.98071 7.606 7.6416
H 8.55663 8.86852 8.64884
H 9.27569 6.69165 7.56788
H 6.43622 6.92822 6.15365
H 7.60717 5.55911 5.89577
10
 Atoms. Timestep: 620
C 6.53603 8.31395 8.15843
C 7.87997 8.12722 8.15384
C 8.30006 7.05237 7.32262
C 7.48469 6.58361 6.384
H 6.05041 9.1315 8.69304
H 5.68101 7.71299 7.76525
H 8.63554 8.83082 8.70715
H 9.30714 6.43388 7.47922
H 6.53431 6.98931 6.15348
H 7.71109 5.65864 5.97752
10
 Atoms. Timestep: 640
C 6.51138 8.32212 8.13903
C 7.82784 8.11885 8.16821
C 8.34116 7.02617 7.34168
C 7.49736 6.6026 6.39789
H 6.15715 9.22228 8.71857
H 5.74111 7.64905 7.83168
H 8.49023 8.68717 8.69539
H 9.22302 6.40396 7.46972
H 6.61059 7.17408 6.06955
H 7.83548 5.66499 5.82322
10
 Atoms. Timestep: 660
C 6.4991 8.33586 8.16222
C 7.81344 8.07583 8.14845
C 8.3294 6.96856 7.3694
C 7.51303 6.62366 6.38954
H 6.17942 9.24615 8.67203
H 5.86882 7.56749 7.76823
H 8.42803 8.75529 8.77282
H 9.23901 6.55114 7.64904
H 6.74466 7.26697 5.96617
H 7.73419 5.80951 5.64298
10
 Atoms. Timestep: 680
C 6.5251 8.28611 8.14592
C 7.82787 8.07813 8.17334
C 8.28629 6.95319 7.43406
C 7.52623 6.66522 6.31498
H 6.02748 9.14108 8.56051
H 5.74708 7.6102 7.69375
H 8.55796 8.79188 8.74462
H 9.33826 6.51786 7.77395
H 6.77619 7.39007 6.03344
H 7.68409 5.87299 5.67299
10
 Atoms. Timestep: 700
C 6.47622 8.27798 8.13881
C 7.8403 8.097 8.22018
C 8.2716 6.93733 7.41955
C 7.60608 6.72917 6.31799
H 5.95787 9.16788 8.55826
H 5.78764 7.55548 7.67631
H 8.56503 8.71541 8.65279
H 9.12362 6.29744 7.65591
H 6.80208 7.44138 6.06823
H 7.72257 5.79357 5.69837
10
 Atoms. Timestep: 720
C 6.48854 8.28637 8.13985
C 7.78247 8.06577 8.21949
C 8.30659 6.93682 7.44179
C 7.60553 6.77286 6.29939
H 6.01788 9.16575 8.5806
H 5.92644 7.50635 7.73964
H 8.46004 8.75184 8.69525
H 8.96668 6.16686 7.68422
H 6.85612 7.44039 5.88212
H 7.79802 5.81783 5.70404
10
 Atoms. Timestep: 740
C 6.48768 8.26877 8.14046
C 7.82325 8.04326 8.22537
C 8.26297 6.94463 7.42567
C 7.60532 6.76782 6.27072
H 6.03538 9.16218 8.59784
H 5.79468 7.4914 7.73133
H 8.40252 8.84433 8.83322
H 8.98427 6.15227 7.89696
H 6.99834 7.48345 5.76949
H 7.83348 5.93953 5.68683
10
 Atoms. Timestep: 760
C 6.49567 8.23965 8.14498
C 7.78927 8.08918 8.24098
C 8.22872 6.93245 7.44298
C 7.64581 6.75326 6.25063
H 6.04243 9.1083 8.59964
H 5.71538 7.59041 7.70781
H 8.48464 8.66329 8.82677
H 8.9737 6.25557 7.88307
H 7.09823 7.64 5.80561
H 7.85277 5.87524 5.58868
10
 Atoms. Timestep: 780
C 6.44343 8.26627 8.12177
C 7.79472 8.04026 8.21267
C 8.24181 6.91671 7.47089
C 7.67306 6.80715 6.28575
H 5.99198 9.12225 8.65532
H 5.83029 7.5552 7.61337
H 8.50107 8.56272 8.81239
H 8.95777 6.24861 7.79469
H 7.10495 7.62423 5.85941
H 7.81987 5.92466 5.60729
10
 Atoms. Timestep: 800
C 6.47687 8.29399 8.09702
C 7.74481 8.00225 8.24336
C 8.28388 6.88863 7.47134
C 7.65728 6.8503 6.26372
H 5.92507 9.08889 8.61653
H 5.89347 7.57096 7.54714
H 8.41224 8.64599 8.89453
H 9.05982 6.09774 7.82868
H 7.03071 7.59999 5.89058
H 7.82567 6.00534 5.65888
10
 Atoms. Timestep: 820
C 6.46398 8.28991 8.09094
C 7.77278 7.98555 8.33458
C 8.27172 6.90564 7.43502
C 7.69955 6.81626 6.2416
H 5.94818 9.14788 8.54927
H 5.76708 7.65757 7.48436
H 8.33062 8.67689 8.99108
H 8.98928 6.15313 7.8059
H 6.97692 7.6243 5.92496
H 7.8637 5.9761 5.52058
10
 Atoms. Timestep: 840
C 6.47672 8.25928 8.07202
C 7.73336 7.9719 8.34187
C 8.25883 6.94902 7.46332
C 7.69822 6.814 6.24936
H 6.10415 9.15963 8.5035
H 5.77596 7.72256 7.47017
H 8.34097 8.48465 9.03434
H 8.95659 6.24778 7.7596
H 6.99937 7.59716 5.86898
H 7.94417 6.04299 5.49298
10
 Atoms. Timestep: 860
C 6.43535 8.30846 8.08601
C 7.71953 7.92598 8.30003
C 8.26032 6.92439 7.46017
C 7.68913 6.85343 6.24173
H 6.05498 9.24457 8.58353
H 5.84634 7.69559 7.41831
H 8.36565 8.33445 9.12728
H 9.12029 6.25619 7.81116
H 7.05544 7.54191 5.80425
H 8.05535 6.0737 5.6169
10
 Atoms. Timestep: 880
C 6.47764 8.33973 8.07368
C 7.69069 7.91581 8.3259
C 8.25823 6.88862 7.4493
C 7.71676 6.86549 6.25124
H 5.90577 9.11266 8.60644
H 5.80284 7.79608 7.3876
H 8.28909 8.31637 9.16599
H 9.14883 6.29457 7.76147
H 7.02492 7.59765 5.78753
H 8.09262 6.04478 5.57923
10
 Atoms. Timestep: 900
C 6.4654 8.32303 8.0169
C 7.71141 7.90073 8.39079
C 8.25546 6.92305 7.48426
C 7.74841 6.84526 6.22443
H 5.96589 9.0217 8.67467
H 5.80579 7.89013 7.27189
H 8.22023 8.35531 9.19667
H 9.02813 6.27095 7.7117
H 7.0073 7.62291 5.90298
H 8.01263 6.1066 5.43283
10
 Atoms. Timestep: 920
C 6.45441 8.29685 8.0342
C 7.66063 7.90008 8.37705
C 8.28462 6.92184 7.44708
C 7.75107 6.87741 6.22648
H 6.04168 9.0791 8.66963
H 5.92498 7.912 7.1917
H 8.18033 8.31924 9.26468
H 9.01561 6.14972 7.82747
H 7.0586 7.59916 5.91814
H 7.9985 6.18365 5.50857
10
 Atoms. Timestep: 940
C 6.4322 8.30831 8.0836
C 7.67076 7.85685 8.32673
C 8.29741 6.91624 7.46284
C 7.76173 6.92304 6.23197
H 5.9154 9.17596 8.56835
H 5.89664 7.93498 7.19568
H 8.15302 8.18374 9.28882
H 9.00001 6.12885 7.86692
H 7.0932 7.69052 5.8219
H 8.09314 6.07925 5.51649
10
 Atoms. Timestep: 960
C 6.44913 8.30602 8.02139
C 7.66294 7.8606 8.38657
C 8.2455 6.90335 7.47036
C 7.79755 6.93802 6.24215
H 5.94691 9.08265 8.57685
H 5.75883 7.89435 7.27654
H 8.20369 8.09483 9.26517
H 8.95846 6.21165 7.76352
H 7.2327 7.76543 5.7607
H 8.09269 6.12314 5.5234
10
 Atoms. Timestep: 980
C 6.44568 8.32474 8.00112
C 7.63441 7.85224 8.42835
C 8.19577 6.8906 7.5019
C 7.83432 6.93668 6.15534
H 6.00992 9.06124 8.69046
H 5.84764 7.76979 7.30997
H 8.18178 8.20704 9.30722
H 8.98117 6.15241 7.78086
H 7.32987 7.80416 5.80388
H 8.11256 6.19979 5.47631
10
 Atoms. Timestep: 1000
C 6.46998 8.30247 8.03286
C 7.6344 7.81713 8.38847
C 8.19321 6.8493 7.46329
C 7.84076 7.00447 6.22412
H 5.91823 9.08683 8.56471
H 5.92023 7.76356 7.24915
H 8.09165 8.33596 9.28248
H 8.8615 6.05008 7.89902
H 7.32245 7.86392 5.7948
H 8.17985 6.27948 5.44643
10
 Atoms. Timestep: 1020
C 6.40579 8.26358 8.04635
C 7.64744 7.8383 8.37699
C 8.22572 6.81943 7.52606
C 7.86882 7.04832 6.20967
H 5.87584 9.15298 8.44062
H 5.87001 7.87112 7.1764
H 8.2193 8.21955 9.21143
H 8.7185 5.91842 7.83494
H 7.30472 7.94709 5.88051
H 8.24898 6.29302 5.39061
10
 Atoms. Timestep: 1040
C 6.38316 8.24872 8.00775
C 7.61325 7.85375 8.40503
C 8.18927 6.82576 7.48298
C 7.94225 7.04346 6.23204
H 5.98884 9.12076 8.5147
H 5.82255 7.8196 7.1993
H 8.2567 8.16456 9.19934
H 8.66101 5.90399 7.78102
H 7.47871 7.94342 5.97083
H 8.14862 6.43755 5.45704
10
 Atoms. Timestep: 1060
C 6.43425 8.28086 7.99918
C 7.59231 7.77358 8.38087
C 8.14943 6.82177 7.53536
C 7.95895 7.09161 6.17972
H 5.94759 9.05607 8.59973
H 5.81773 7.71666 7.29074
H 8.06073 8.28586 9.2847
H 8.69794 5.90194 7.89874
H 7.61744 8.12119 5.89864
H 8.17301 6.33139 5.34565
10
 Atoms. Timestep: 1080
C 6.43051 8.29629 7.98573
C 7.58231 7.76737 8.4218
C 8.16169 6.77795 7.45371
C 7.9544 7.12896 6.23098
H 5.86404 9.03763 8.57717
H 5.79648 7.72403 7.27801
H 8.00236 8.2023 9.34646
H 8.66474 5.94672 7.91772
H 7.78432 8.12957 5.79466
H 8.2386 6.35631 5.4217
10
 Atoms. Timestep: 1100
C 6.37641 8.2693 8.00088
C 7.56437 7.78404 8.43185
C 8.15806 6.8246 7.53949
C 8.00242 7.1128 6.17013
H 5.84984 9.09477 8.5224
H 5.87731 7.865 7.15537
H 8.11205 7.95059 9.31784
H 8.60944 5.82869 7.72001
H 7.76932 8.10262 5.88654
H 8.29849 6.4339 5.43276
10
 Atoms. Timestep: 1120
C 6.39881 8.2413 7.97615
C 7.55134 7.74322 8.42835
C 8.1456 6.8449 7.48325
C 8.01545 7.14215 6.255
H 5.91585 9.04018 8.45954
H 6.00286 7.96712 6.98211
H 8.07187 7.90891 9.42488
H 8.50335 5.84977 7.75801
H 7.62078 8.12357 5.95568
H 8.34208 6.50108 5.45231
10
 Atoms. Timestep: 1140
C 6.4195 8.28126 7.98255
C 7.51811 7.68339 8.45385
C 8.16073 6.77473 7.50315
C 8.05366 7.20769 6.18387
H 5.84368 9.06387 8.55448
H 6.07224 8.00727 6.9663
H 7.7989 8.00077 9.47222
H 8.56092 5.85002 7.924
H 7.51751 8.17119 5.91639
H 8.4188 6.44446 5.31511
10
 Atoms. Timestep: 1160
C 6.44786 8.33414 7.9394
C 7.44629 7.64831 8.47482
C 8.16135 6.78396 7.47475
C 8.07743 7.17707 6.22679
H 5.84396 8.98867 8.59073
H 5.94505 8.07602 7.05036
H 7.72729 7.84732 9.47467
H 8.72086 5.89557 7.79039
H 7.69291 8.06926 5.89481
H 8.39631 6.68226 5.39356
10
 Atoms. Timestep: 1180
C 6.39623 8.36949 7.92546
C 7.42865 7.59552 8.43448
C 8.16146 6.80744 7.54785
C 8.08177 7.1778 6.2176
H 5.90204 9.04125 8.60056
H 5.88217 8.16708 6.97681
H 7.79488 7.56573 9.50159
H 8.82049 5.93948 7.65397
H 7.74433 8.21808 5.9926
H 8.57143 6.58689 5.41112
10
 Atoms. Timestep: 1200
C 6.41182 8.31124 7.96508
C 7.38231 7.58338 8.41456
C 8.18537 6.79524 7.45389
C 8.08054 7.23103 6.25422
H 5.95971 9.11734 8.55227
H 6.02522 8.27649 6.90413
H 7.63747 7.51302 9.48596
H 8.75365 5.94457 7.88848
H 7.73216 8.26724 5.98581
H 8.65558 6.57599 5.5458
10
 Atoms. Timestep: 1220
C 6.40204 8.31441 7.94713
C 7.3923 7.52081 8.44893
C 8.14303 6.79105 7.51635
C 8.15417 7.26994 6.20736
H 5.89391 9.10575 8.59975
H 6.1881 8.32818 6.91014
H 7.50758 7.58278 9.49911
H 8.65542 5.90042 7.89746
H 7.69749 8.1503 5.89465
H 8.63228 6.77536 5.36925
10
 Atoms. Timestep: 1240
C 6.45264 8.33439 7.90227
C 7.31442 7.54394 8.49956
C 8.13877 6.78087 7.49089
C 8.19022 7.27359 6.25739
H 5.84387 8.89384 8.53881
H 6.18772 8.3445 6.87926
H 7.56697 7.50396 9.58904
H 8.63823 5.85849 7.66538
H 7.66887 8.17943 5.93616
H 8.64205 6.84305 5.3797
10
 Atoms. Timestep: 1260
C 6.41395 8.3761 7.93881
C 7.34309 7.50521 8.45926
C 8.13707 6.7757 7.47487
C 8.20335 7.30028 6.25814
H 5.66813 8.95458 8.5334
H 6.16971 8.31502 6.82182
H 7.51159 7.42708 9.55706
H 8.64981 5.78495 7.6223
H 7.7615 8.33264 6.06429
H 8.77854 6.662 5.50365
10
 Atoms. Timestep: 1280
C 6.42002 8.30691 7.94892
C 7.33097 7.51397 8.40315
C 8.12159 6.77346 7.48098
C 8.20209 7.33742 6.28287
H 5.77824 8.99047 8.52707
H 6.1499 8.33472 6.89981
H 7.42761 7.36501 9.43919
H 8.5725 5.81036 7.77639
H 8.02182 8.34087 6.00276
H 8.72595 6.78807 5.54827
10
 Atoms. Timestep: 1300
C 6.35635 8.30861 7.88931
C 7.32385 7.49045 8.45245
C 8.10017 6.76915 7.49369
C 8.26929 7.34654 6.26334
H 5.93506 8.98221 8.65431
H 6.12107 8.34106 6.8685
H 7.45574 7.32552 9.54785
H 8.48826 5.83498 7.79094
H 8.10313 8.39002 6.05376
H 8.72275 6.85765 5.38093
10
 Atoms. Timestep: 1320
C 6.42548 8.28801 7.89627
C 7.26967 7.48612 8.44778
C 8.10233 6.76616 7.46627
C 8.28743 7.3691 6.30533
H 5.86276 8.98164 8.52131
H 6.08586 8.32868 6.83728
H 7.46546 7.42703 9.5268
H 8.47095 5.7276 7.63677
H 8.01837 8.45876 6.24719
H 8.71111 6.83995 5.42566
10
 Atoms. Timestep: 1340
C 6.39088 8.34832 7.91565
C 7.31324 7.43188 8.42122
C 8.09622 6.71747 7.468
C 8.30473 7.41227 6.34268
H 5.69718 9.04208 8.43792
H 6.16978 8.21898 6.81389
H 7.45028 7.50865 9.48868
H 8.4202 5.64142 7.50699
H 8.00405 8.43983 6.258
H 8.7521 6.90938 5.49821
10
 Atoms. Timestep: 1360
C 6.38664 8.29893 7.89621
C 7.26024 7.50291 8.43877
C 8.07282 6.6812 7.44425
C 8.33138 7.42746 6.34872
H 5.80494 8.9739 8.4711
H 6.18783 8.23019 6.87917
H 7.52185 7.39331 9.50608
H 8.35248 5.66507 7.561
H 8.10638 8.46661 6.22198
H 8.84405 7.02794 5.482
10
 Atoms. Timestep: 1380
C 6.35932 8.26748 7.87201
C 7.30381 7.45232 8.44262
C 8.00892 6.75522 7.4392
C 8.36395 7.41115 6.33734
H 5.84746 9.00177 8.5709
H 6.10704 8.30265 6.80348
H 7.48881 7.34661 9.53398
H 8.29555 5.72272 7.64565
H 8.21272 8.5134 6.32315
H 8.95648 7.01584 5.46477
10
 Atoms. Timestep: 1400
C 6.40048 8.26232 7.9034
C 7.2558 7.45221 8.40644
C 8.03818 6.75099 7.42947
C 8.36098 7.44997 6.35161
H 5.82263 8.9552 8.50707
H 6.06255 8.2994 6.84036
H 7.39156 7.3526 9.44796
H 8.30446 5.658 7.59509
H 8.29373 8.53626 6.36075
H 8.91643 6.92564 5.59228
10
 Atoms. Timestep: 1420
C 6.34512 8.35793 7.88785
C 7.24157 7.40737 8.41123
C 8.08898 6.6878 7.44284
C 8.38422 7.4728 6.37989
H 5.73792 8.95623 8.55188
H 6.14348 8.24927 6.83379
H 7.36155 7.32067 9.51858
H 8.34049 5.64853 7.4317
H 8.30288 8.52885 6.28105
H 8.87829 6.96104 5.54113
10
 Atoms. Timestep: 1440
C 6.41897 8.30024 7.87069
C 7.19648 7.41192 8.40943
C 8.06898 6.71692 7.46023
C 8.39249 7.45851 6.4043
H 5.75117 8.93288 8.47564
H 6.19264 8.37827 6.81956
H 7.32255 7.25753 9.49106
H 8.33908 5.67314 7.42534
H 8.20655 8.55064 6.33395
H 8.85053 7.10199 5.47552
10
 Atoms. Timestep: 1460
C 6.38142 8.28823 7.86451
C 7.22475 7.36386 8.42403
C 8.04528 6.75337 7.42912
C 8.42675 7.47644 6.36816
H 5.76233 8.99378 8.51361
H 6.31778 8.49986 6.77574
H 7.21569 7.19125 9.4855
H 8.30416 5.65484 7.6384
H 8.12821 8.51873 6.49287
H 8.92655 7.07016 5.46793
10
 Atoms. Timestep: 1480
C 6.38204 8.30668 7.88873
C 7.18096 7.39675 8.38224
C 8.07434 6.70304 7.42079
C 8.39742 7.49454 6.39499
H 5.80335 8.90709 8.50211
H 6.36661 8.47621 6.83319
H 7.15765 7.06586 9.4323
H 8.35142 5.68981 7.64127
H 8.24623 8.56022 6.37855
H 8.99023 7.1148 5.58106
10
 Atoms. Timestep: 1500
C 6.38287 8.36872 7.89398
C 7.17019 7.33569 8.3551
C 8.06316 6.70869 7.46442
C 8.41614 7.48641 6.40952
H 5.6785 8.91674 8.56888
H 6.26976 8.51325 6.82033
H 7.12314 7.00166 9.40923
H 8.45798 5.70905 7.45882
H 8.31211 8.56623 6.27355
H 9.08835 7.11603 5.62008
10
 Atoms. Timestep: 1520
C 6.43461 8.33693 7.88455
C 7.09412 7.31143 8.38355
C 8.07398 6.76239 7.4091
C 8.46114 7.49972 6.41864
H 5.70955 8.87132 8.56388
H 6.20891 8.62468 6.84544
H 7.05566 7.0238 9.41091
H 8.46549 5.67675 7.44535
H 8.19533 8.56108 6.36186
H 9.10599 6.99952 5.68652
10
 Atoms. Timestep: 1540
C 6.39729 8.32586 7.87972
C 7.10527 7.27273 8.35497
C 8.04655 6.73399 7.42975
C 8.49304 7.55231 6.41752
H 5.80816 8.8699 8.57882
H 6.42291 8.63353 6.8465
H 6.98034 7.02398 9.42828
H 8.35335 5.71258 7.5778
H 8.18098 8.58091 6.33934
H 9.12537 7.08975 5.62652
10
 Atoms. Timestep: 1560
C 6.38278 8.3139 7.87885
C 7.09461 7.30134 8.32935
C 8.06003 6.70618 7.42223
C 8.46598 7.53304 6.47314
H 5.79164 8.95473 8.5269
H 6.5486 8.62342 6.86345
H 6.99625 6.88578 9.34128
H 8.36744 5.70916 7.55404
H 8.29716 8.59362 6.33566
H 9.10247 7.32649 5.6463
10
 Atoms. Timestep: 1580
C 6.38744 8.34848 7.8751
C 7.07812 7.28085 8.35403
C 8.06349 6.70495 7.4166
C 8.48859 7.54614 6.45381
H 5.64371 9.01048 8.47277
H 6.43788 8.68057 6.81498
H 6.98356 6.79541 9.29382
H 8.46029 5.60345 7.42914
H 8.2804 8.63325 6.62154
H 9.21235 7.21434 5.65951
10
 Atoms. Timestep: 1600
C 6.42028 8.36066 7.86381
C 7.07784 7.24872 8.31842
C 8.05118 6.7244 7.38762
C 8.50975 7.57301 6.50192
H 5.68537 8.80691 8.46673
H 6.33237 8.63758 6.82477
H 6.86087 6.86689 9.34652
H 8.34853 5.67963 7.3837
H 8.35704 8.60988 6.69315
H 9.18556 7.17834 5.74347
10
 Atoms. Timestep: 1620
C 6.38488 8.32009 7.87539
C 7.05387 7.26615 8.27449
C 8.00446 6.68995 7.40143
C 8.60235 7.60796 6.53845
H 5.70068 8.72634 8.61457
H 6.3802 8.59414 6.84408
H 6.84386 6.94245 9.31067
H 8.20197 5.66896 7.36116
H 8.52145 8.68187 6.5358
H 9.20249 7.3013 5.68417
10
 Atoms. Timestep: 1640
C 6.35884 8.29728 7.83793
C 7.0378 7.24464 8.31207
C 8.02719 6.72249 7.34122
C 8.60015 7.60456 6.60055
H 5.68444 8.8615 8.58278
H 6.40669 8.72421 6.80866
H 6.96662 6.83455 9.29544
H 8.13339 5.57417 7.26735
H 8.55253 8.72675 6.62308
H 9.23642 7.28497 5.76109
10
 Atoms. Timestep: 1660
C 6.37268 8.29228 7.83809
C 7.04536 7.22239 8.29512
C 7.97826 6.71244 7.3657
C 8.59599 7.64855 6.58573
H 5.70824 8.93831 8.3566
H 6.45197 8.70178 6.84597
H 6.99577 6.77074 9.29432
H 8.19106 5.64027 7.0912
H 8.47124 8.6764 6.94004
H 9.35201 7.2385 5.85305
10
 Atoms. Timestep: 1680
C 6.37283 8.32719 7.85074
C 7.01196 7.21227 8.28213
C 7.99554 6.69264 7.29249
C 8.61418 7.63709 6.63085
H 5.66217 8.90032 8.44974
H 6.54561 8.48265 6.79378
H 6.84785 6.81692 9.31461
H 8.16172 5.69897 7.1331
H 8.58226 8.62012 6.97621
H 9.35732 7.4859 5.88431
10
 Atoms. Timestep: 1700
C 6.40293 8.30898 7.83993
C 6.97448 7.21004 8.26657
C 7.96574 6.65126 7.29692
C 8.68342 7.68174 6.66958
H 5.66183 8.8417 8.51887
H 6.4236 8.57283 6.75556
H 6.76657 6.80553 9.22869
H 8.11298 5.53243 7.16749
H 8.64949 8.76963 6.98482
H 9.35006 7.58583 5.79555
10
 Atoms. Timestep: 1720
C 6.37728 8.31798 7.80502
C 7.00154 7.14984 8.21103
C 7.9921 6.72505 7.32168
C 8.68469 7.66271 6.72612
H 5.7283 8.84302 8.47489
H 6.32251 8.81411 6.8448
H 6.76526 6.69344 9.18663
H 8.09881 5.62118 7.07499
H 8.58113 8.69075 7.08981
H 9.29428 7.42396 5.8348
10
 Atoms. Timestep: 1740
C 6.34166 8.30609 7.83086
C 6.94067 7.1957 8.17039
C 8.0135 6.69015 7.33768
C 8.70386 7.68778 6.72137
H 5.70708 8.79141 8.55696
H 6.51311 8.79895 6.88669
H 6.76419 6.60544 9.09643
H 8.14747 5.72268 6.97171
H 8.60831 8.66211 7.08419
H 9.38567 7.36107 5.93124
10
 Atoms. Timestep: 1760
C 6.37436 8.32547 7.84426
C 6.92099 7.13309 8.17755
C 8.00425 6.69095 7.29311
C 8.67363 7.69801 6.7375
H 5.58527 8.76417 8.54295
H 6.71421 8.77582 6.88997
H 6.60146 6.64346 9.08365
H 8.1561 5.63534 7.01575
H 8.71719 8.7836 6.98561
H 9.51041 7.53246 6.05658
10
 Atoms. Timestep: 1780
C 6.41977 8.30041 7.8748
C 6.8891 7.1035 8.17659
C 7.96409 6.73 7.25536
C 8.72514 7.70773 6.74006
H 5.59069 8.80772 8.33272
H 6.67001 8.86212 6.99853
H 6.4865 6.56331 9.03194
H 8.21096 5.60794 7.1378
H 8.57519 8.78864 7.04495
H 9.602 7.54043 6.06215
10
 Atoms. Timestep: 1800
C 6.39688 8.34321 7.87626
C 6.87449 7.10462 8.13226
C 7.98534 6.73059 7.2734
C 8.75075 7.71179 6.77195
H 5.57019 8.78609 8.42754
H 6.70785 8.88216 6.99234
H 6.49608 6.36386 8.88204
H 8.25241 5.72543 7.12324
H 8.51387 8.66314 7.06774
H 9.53884 7.45811 6.0729
10
 Atoms. Timestep: 1820
C 6.38949 8.34056 7.86432
C 6.86582 7.11863 8.05644
C 8.01553 6.68518 7.32919
C 8.71024 7.72402 6.81365
H 5.62358 8.72368 8.57803
H 6.74 8.92695 6.99451
H 6.47369 6.38635 8.73067
H 8.254 5.67637 7.05372
H 8.65041 8.79255 7.05121
H 9.49585 7.50373 6.09927
10
 Atoms. Timestep: 1840
C 6.37158 8.32692 7.86414
C 6.83758 7.07387 8.03012
C 8.04606 6.70352 7.3247
C 8.74839 7.72304 6.80825
H 5.64258 8.74717 8.56565
H 6.6568 9.0467 7.11609
H 6.30388 6.49051 8.78177
H 8.2241 5.59952 7.03872
H 8.70073 8.81664 7.14669
H 9.57422 7.55535 6.0768
10
 Atoms. Timestep: 1860
C 6.40523 8.32583 7.85871
C 6.80873 7.0708 8.04656
C 8.02387 6.72201 7.26831
C 8.7778 7.73133 6.82717
H 5.58949 8.66939 8.47206
H 6.71149 9.0612 7.13704
H 6.28791 6.44126 8.8175
H 8.25256 5.69773 7.05978
H 8.59323 8.67884 7.24664
H 9.59554 7.57184 6.15142
10
 Atoms. Timestep: 1880
C 6.40438 8.33884 7.87311
C 6.84806 7.0917 8.04198
C 7.96075 6.69618 7.24105
C 8.76354 7.74073 6.88249
H 5.48023 8.66226 8.40697
H 6.85605 8.95048 7.06618
H 6.4276 6.3577 8.69861
H 8.25672 5.70608 6.99929
H 8.60044 8.73188 7.25272
H 9.64258 7.60687 6.23344
10
 Atoms. Timestep: 1900
C 6.3633 8.32199 7.87996
C 6.85302 7.08688 8.03693
C 7.99353 6.72734 7.20656
C 8.77098 7.72383 6.92369
H 5.50094 8.78874 8.37256
H 6.77238 8.92152 7.07921
H 6.42762 6.33 8.68081
H 8.15626 5.63194 6.90814
H 8.70291 8.78987 7.26696
H 9.67884 7.59768 6.29847
10
 Atoms. Timestep: 1920
C 6.37903 8.30216 7.83658
C 6.81253 7.05316 8.02638
C 7.97979 6.7329 7.22964
C 8.83048 7.7674 6.9204
H 5.60483 8.73793 8.45827
H 6.66354 8.97798 7.06187
H 6.34163 6.35974 8.77553
H 8.10636 5.72116 6.81066
H 8.70279 8.73994 7.40559
H 9.69383 7.5495 6.2991
10
 Atoms. Timestep: 1940
C 6.39352 8.30561 7.81046
C 6.79545 7.04255 7.99701
C 7.98205 6.74607 7.23387
C 8.80427 7.74993 6.96399
H 5.66317 8.61826 8.57543
H 6.70128 8.9567 6.96065
H 6.34538 6.44709 8.77981
H 8.15627 5.84258 6.75665
H 8.7692 8.66104 7.49193
H 9.63699 7.62935 6.29259
10
 Atoms. Timestep: 1960
C 6.34591 8.3073 7.83447
C 6.81248 7.07567 7.97331
C 7.98075 6.70365 7.20109
C 8.82159 7.75349 7.01324
H 5.60228 8.7574 8.51396
H 6.70746 8.89742 7.00465
H 6.41506 6.42707 8.72929
H 8.18401 5.71026 6.68457
H 8.80804 8.70416 7.59489
H 9.64281 7.68305 6.22897
10
 Atoms. Timestep: 1980
C 6.36436 8.32689 7.83286
C 6.83405 7.05118 7.98873
C 8.00012 6.72318 7.14488
C 8.80123 7.74508 7.03908
H 5.55618 8.81421 8.35694
H 6.69911 8.96222 7.03361
H 6.43536 6.30143 8.72513
H 8.08405 5.69289 6.73347
H 8.7365 8.64654 7.65828
H 9.61427 7.72467 6.34834
10
 Atoms. Timestep: 2000
C 6.38891 8.30083 7.82499
C 6.82097 7.06105 7.99445
C 7.92797 6.72974 7.1667
C 8.85578 7.76631 7.01987
H 5.5075 8.67141 8.38222
H 6.78349 8.9435 7.01969
H 6.39379 6.32087 8.66218
H 8.07547 5.79635 6.69844
H 8.64267 8.57691 7.68241
H 9.75925 7.76342 6.40797
10
 Atoms. Timestep: 2020
C 6.36907 8.3011 7.82528
C 6.79434 7.04752 7.97879
C 7.99468 6.76983 7.15997
C 8.8261 7.73574 7.03781
H 5.52727 8.60224 8.45525
H 6.81391 8.92584 7.04777
H 6.27431 6.38041 8.63989
H 8.07757 5.81897 6.61618
H 8.74727 8.64696 7.64274
H 9.77857 7.72044 6.47607
10
 Atoms. Timestep: 2040
C 6.35486 8.29657 7.83476
C 6.79157 7.02807 7.9232
C 7.98216 6.71493 7.17988
C 8.85378 7.79652 7.08148
H 5.55807 8.72728 8.43927
H 6.71653 9.02166 7.14727
H 6.25021 6.33506 8.59886
H 8.1402 5.77506 6.54017
H 8.84212 8.76598 7.63064
H 9.72266 7.57848 6.41683
10
 Atoms. Timestep: 2060
C 6.3737 8.3069 7.84565
C 6.75212 7.02308 7.87527
C 8.00514 6.76896 7.18526
C 8.84064 7.74648 7.09944
H 5.54954 8.69551 8.4739
H 6.75934 9.07009 7.14377
H 6.31579 6.2195 8.49425
H 8.2134 5.8681 6.70379
H 8.8124 8.65212 7.62218
H 9.64393 7.64216 6.41734
10
 Atoms. Timestep: 2080
C 6.38227 8.31661 7.86303
C 6.73274 7.03118 7.85378
C 7.95432 6.75396 7.1839
C 8.88326 7.77432 7.08364
H 5.52583 8.57782 8.49316
H 6.89909 8.98216 7.16828
H 6.25566 6.22515 8.3659
H 8.22496 5.75994 6.81322
H 8.69824 8.6591 7.72404
H 9.80468 7.7594 6.41831
10
 Atoms. Timestep: 2100
C 6.4017 8.30589 7.87939
C 6.75264 7.00414 7.84487
C 8.02666 6.74608 7.13831
C 8.81778 7.78952 7.08848
H 5.54621 8.67951 8.39574
H 6.90278 9.04999 7.29382
H 6.04008 6.27928 8.29328
H 8.15335 5.64449 6.8262
H 8.68999 8.69414 7.7297
H 9.79888 7.79885 6.644
10
 Atoms. Timestep: 2120
C 6.3538 8.31455 7.89249
C 6.75726 7.01898 7.81882
C 8.0141 6.70199 7.15708