ITEM: TIMESTEP
0
ITEM: NUMBER OF ATOMS
10
ITEM: BOX BOUNDS pp pp pp
0.0000000000000000e+00 1.5000000000000000e+01
0.0000000000000000e+00 1.5000000000000000e+01
0.0000000000000000e+00 1.5000000000000000e+01
ITEM: ATOMS id type x y z
10 2 7.49633 5.09135 6.72925
4 1 7.25054 6.11858 7.11464
7 2 8.20539 9.21348 6.85705
8 2 9.05473 6.90425 6.21312
9 2 6.36063 6.20956 7.61439
1 1 6.96061 8.46927 8.51931
3 1 8.12502 7.10797 6.86287
2 1 7.80594 8.40677 7.43948
6 2 6.54631 7.71343 9.08197
5 2 6.60795 9.47242 8.77544
ITEM: TIMESTEP
100
ITEM: NUMBER OF ATOMS
10
ITEM: BOX BOUNDS pp pp pp
0.0000000000000000e+00 1.5000000000000000e+01
0.0000000000000000e+00 1.5000000000000000e+01
0.0000000000000000e+00 1.5000000000000000e+01
ITEM: ATOMS id type x y z
10 2 7.5205 5.16686 6.8466
4 1 7.23633 6.22749 6.95299
7 2 8.2478 9.3841 7.1392
8 2 9.22819 6.85734 6.82995
9 2 6.13164 6.51131 6.95786
1 1 6.90583 8.37988 8.45622
3 1 8.18565 7.08532 6.96371
2 1 7.83841 8.40033 7.52353
6 2 6.54847 7.39632 8.9456
5 2 6.45011 9.34592 8.79106
ITEM: TIMESTEP
200
ITEM: NUMBER OF ATOMS
10
ITEM: BOX BOUNDS pp pp pp
0.0000000000000000e+00 1.5000000000000000e+01
0.0000000000000000e+00 1.5000000000000000e+01
0.0000000000000000e+00 1.5000000000000000e+01
ITEM: ATOMS id type x y z
10 2 7.37485 5.22724 6.51917
4 1 7.21497 6.2466 6.84381
7 2 8.29611 9.33861 7.40231
8 2 9.29156 6.78217 6.86678
9 2 6.19164 6.51338 6.81615
1 1 6.80265 8.33931 8.40636
3 1 8.27259 7.12626 7.0715
2 1 7.92107 8.39436 7.64988
6 2 6.39823 7.44283 8.80969
5 2 6.30391 9.27658 8.64564
ITEM: TIMESTEP
300
ITEM: NUMBER OF ATOMS
10
ITEM: BOX BOUNDS pp pp pp
0.0000000000000000e+00 1.5000000000000000e+01
0.0000000000000000e+00 1.5000000000000000e+01
0.0000000000000000e+00 1.5000000000000000e+01
ITEM: ATOMS id type x y z
10 2 7.53174 5.33835 6.35475
4 1 7.27024 6.30285 6.79664
7 2 8.53174 9.31838 7.79002
8 2 9.31843 6.73541 6.90095
9 2 6.22398 6.6094 6.78214
1 1 6.72494 8.32948 8.3335
3 1 8.2749 7.11714 7.08417
2 1 7.92244 8.32939 7.76179
6 2 6.04124 7.49646 8.47076
5 2 6.32179 9.24888 8.73373
ITEM: TIMESTEP
400
ITEM: NUMBER OF ATOMS
10
ITEM: BOX BOUNDS pp pp pp
0.0000000000000000e+00 1.5000000000000000e+01
0.0000000000000000e+00 1.5000000000000000e+01
0.0000000000000000e+00 1.5000000000000000e+01
ITEM: ATOMS id type x y z
10 2 7.47989 5.40319 6.22163
4 1 7.3122 6.41036 6.65604
7 2 8.46153 9.17014 7.80167
8 2 9.25894 6.60055 7.31068
9 2 6.31833 6.8068 6.39039
1 1 6.65706 8.31846 8.35868
3 1 8.34796 7.06976 7.18823
2 1 7.90498 8.30156 7.79629
6 2 6.01312 7.38831 8.38757
5 2 6.25903 9.25022 8.78157
ITEM: TIMESTEP
500
ITEM: NUMBER OF ATOMS
10
ITEM: BOX BOUNDS pp pp pp
0.0000000000000000e+00 1.5000000000000000e+01
0.0000000000000000e+00 1.5000000000000000e+01
0.0000000000000000e+00 1.5000000000000000e+01
ITEM: ATOMS id type x y z
10 2 7.52502 5.52231 6.01778
4 1 7.37261 6.45796 6.5084
7 2 8.56655 9.17163 7.96809
8 2 9.36624 6.57053 7.47347
9 2 6.4892 7.03408 6.38928
1 1 6.61772 8.27794 8.28077
3 1 8.30488 7.04727 7.28514
2 1 7.89053 8.25042 7.95005
6 2 5.89789 7.49375 8.24346
5 2 6.16466 9.22611 8.65077
ITEM: TIMESTEP
600
ITEM: NUMBER OF ATOMS
10
ITEM: BOX BOUNDS pp pp pp
0.0000000000000000e+00 1.5000000000000000e+01
0.0000000000000000e+00 1.5000000000000000e+01
0.0000000000000000e+00 1.5000000000000000e+01
ITEM: ATOMS id type x y z
10 2 7.60717 5.55911 5.89577
4 1 7.4431 6.54951 6.40325
7 2 8.55663 8.86852 8.64884
8 2 9.27569 6.69165 7.56788
9 2 6.43622 6.92822 6.15365
1 1 6.56563 8.33193 8.20549
3 1 8.31656 7.02781 7.30969
2 1 7.86796 8.15989 8.12442
6 2 5.98071 7.606 7.6416
5 2 6.1081 9.15164 8.72417
ITEM: TIMESTEP
700
ITEM: NUMBER OF ATOMS
10
ITEM: BOX BOUNDS pp pp pp
0.0000000000000000e+00 1.5000000000000000e+01
0.0000000000000000e+00 1.5000000000000000e+01
0.0000000000000000e+00 1.5000000000000000e+01
ITEM: ATOMS id type x y z
10 2 7.72257 5.79357 5.69837
4 1 7.60608 6.72917 6.31799
7 2 8.56503 8.71541 8.65279
8 2 9.12362 6.29744 7.65591
9 2 6.80208 7.44138 6.06823
1 1 6.47622 8.27798 8.13881
3 1 8.2716 6.93733 7.41955
2 1 7.8403 8.097 8.22018
6 2 5.78764 7.55548 7.67631
5 2 5.95787 9.16788 8.55826
ITEM: TIMESTEP
800
ITEM: NUMBER OF ATOMS
10
ITEM: BOX BOUNDS pp pp pp
0.0000000000000000e+00 1.5000000000000000e+01
0.0000000000000000e+00 1.5000000000000000e+01
0.0000000000000000e+00 1.5000000000000000e+01
ITEM: ATOMS id type x y z
10 2 7.82567 6.00534 5.65888
4 1 7.65728 6.8503 6.26372
7 2 8.41224 8.64599 8.89453
8 2 9.05982 6.09774 7.82868
9 2 7.03071 7.59999 5.89058
1 1 6.47687 8.29399 8.09702
3 1 8.28388 6.88863 7.47134
2 1 7.74481 8.00225 8.24336
6 2 5.89347 7.57096 7.54714
5 2 5.92507 9.08889 8.61653
ITEM: TIMESTEP
900
ITEM: NUMBER OF ATOMS
10
ITEM: BOX BOUNDS pp pp pp
0.0000000000000000e+00 1.5000000000000000e+01
0.0000000000000000e+00 1.5000000000000000e+01
0.0000000000000000e+00 1.5000000000000000e+01
ITEM: ATOMS id type x y z
10 2 8.01263 6.1066 5.43283
4 1 7.74841 6.84526 6.22443
7 2 8.22023 8.35531 9.19667
8 2 9.02813 6.27095 7.7117
9 2 7.0073 7.62291 5.90298
1 1 6.4654 8.32303 8.0169
3 1 8.25546 6.92305 7.48426
2 1 7.71141 7.90073 8.39079
6 2 5.80579 7.89013 7.27189
5 2 5.96589 9.0217 8.67467
ITEM: TIMESTEP
1000
ITEM: NUMBER OF ATOMS
10
ITEM: BOX BOUNDS pp pp pp
0.0000000000000000e+00 1.5000000000000000e+01
0.0000000000000000e+00 1.5000000000000000e+01
0.0000000000000000e+00 1.5000000000000000e+01
ITEM: ATOMS id type x y z
10 2 8.17985 6.27948 5.44643
4 1 7.84076 7.00447 6.22412
7 2 8.09165 8.33596 9.28248
8 2 8.8615 6.05008 7.89902
9 2 7.32245 7.86392 5.7948
1 1 6.46998 8.30247 8.03286
3 1 8.19321 6.8493 7.46329
2 1 7.6344 7.81713 8.38847
6 2 5.92023 7.76356 7.24915
5 2 5.91823 9.08683 8.56471
ITEM: TIMESTEP
1100
ITEM: NUMBER OF ATOMS
10
ITEM: BOX BOUNDS pp pp pp
0.0000000000000000e+00 1.5000000000000000e+01
0.0000000000000000e+00 1.5000000000000000e+01
0.0000000000000000e+00 1.5000000000000000e+01
ITEM: ATOMS id type x y z
10 2 8.29849 6.4339 5.43276
4 1 8.00242 7.1128 6.17013
7 2 8.11205 7.95059 9.31784
8 2 8.60944 5.82869 7.72001
9 2 7.76932 8.10262 5.88654
1 1 6.37641 8.2693 8.00088
3 1 8.15806 6.8246 7.53949
2 1 7.56437 7.78404 8.43185
6 2 5.87731 7.865 7.15537
5 2 5.84984 9.09477 8.5224
ITEM: TIMESTEP
1200
ITEM: NUMBER OF ATOMS
10
ITEM: BOX BOUNDS pp pp pp
0.0000000000000000e+00 1.5000000000000000e+01
0.0000000000000000e+00 1.5000000000000000e+01
0.0000000000000000e+00 1.5000000000000000e+01
ITEM: ATOMS id type x y z
10 2 8.65558 6.57599 5.5458
4 1 8.08054 7.23103 6.25422
7 2 7.63747 7.51302 9.48596
8 2 8.75365 5.94457 7.88848
9 2 7.73216 8.26724 5.98581
1 1 6.41182 8.31124 7.96508
3 1 8.18537 6.79524 7.45389
2 1 7.38231 7.58338 8.41456
6 2 6.02522 8.27649 6.90413
5 2 5.95971 9.11734 8.55227
ITEM: TIMESTEP
1300
ITEM: NUMBER OF ATOMS
10
ITEM: BOX BOUNDS pp pp pp
0.0000000000000000e+00 1.5000000000000000e+01
0.0000000000000000e+00 1.5000000000000000e+01
0.0000000000000000e+00 1.5000000000000000e+01
ITEM: ATOMS id type x y z
10 2 8.72275 6.85765 5.38093
4 1 8.26929 7.34654 6.26334
7 2 7.45574 7.32552 9.54785
8 2 8.48826 5.83498 7.79094
9 2 8.10313 8.39002 6.05376
1 1 6.35635 8.30861 7.88931
3 1 8.10017 6.76915 7.49369
2 1 7.32385 7.49045 8.45245
6 2 6.12107 8.34106 6.8685
5 2 5.93506 8.98221 8.65431
ITEM: TIMESTEP
1400
ITEM: NUMBER OF ATOMS
10
ITEM: BOX BOUNDS pp pp pp
0.0000000000000000e+00 1.5000000000000000e+01
0.0000000000000000e+00 1.5000000000000000e+01
0.0000000000000000e+00 1.5000000000000000e+01
ITEM: ATOMS id type x y z
10 2 8.91643 6.92564 5.59228
4 1 8.36098 7.44997 6.35161
7 2 7.39156 7.3526 9.44796
8 2 8.30446 5.658 7.59509
9 2 8.29373 8.53626 6.36075
1 1 6.40048 8.26232 7.9034
3 1 8.03818 6.75099 7.42947
2 1 7.2558 7.45221 8.40644
6 2 6.06255 8.2994 6.84036
5 2 5.82263 8.9552 8.50707
ITEM: TIMESTEP
1500
ITEM: NUMBER OF ATOMS
10
ITEM: BOX BOUNDS pp pp pp
0.0000000000000000e+00 1.5000000000000000e+01
0.0000000000000000e+00 1.5000000000000000e+01
0.0000000000000000e+00 1.5000000000000000e+01
ITEM: ATOMS id type x y z
10 2 9.08835 7.11603 5.62008
4 1 8.41614 7.48641 6.40952
7 2 7.12314 7.00166 9.40923
8 2 8.45798 5.70905 7.45882
9 2 8.31211 8.56623 6.27355
1 1 6.38287 8.36872 7.89398
3 1 8.06316 6.70869 7.46442
2 1 7.17019 7.33569 8.3551
6 2 6.26976 8.51325 6.82033
5 2 5.6785 8.91674 8.56888
ITEM: TIMESTEP
1600
ITEM: NUMBER OF ATOMS
10
ITEM: BOX BOUNDS pp pp pp
0.0000000000000000e+00 1.5000000000000000e+01
0.0000000000000000e+00 1.5000000000000000e+01
0.0000000000000000e+00 1.5000000000000000e+01
ITEM: ATOMS id type x y z
10 2 9.18556 7.17834 5.74347
4 1 8.50975 7.57301 6.50192
7 2 6.86087 6.86689 9.34652
8 2 8.34853 5.67963 7.3837
9 2 8.35704 8.60988 6.69315
1 1 6.42028 8.36066 7.86381
3 1 8.05118 6.7244 7.38762
2 1 7.07784 7.24872 8.31842
6 2 6.33237 8.63758 6.82477
5 2 5.68537 8.80691 8.46673
ITEM: TIMESTEP
1700
ITEM: NUMBER OF ATOMS
10
ITEM: BOX BOUNDS pp pp pp
0.0000000000000000e+00 1.5000000000000000e+01
0.0000000000000000e+00 1.5000000000000000e+01
0.0000000000000000e+00 1.5000000000000000e+01
ITEM: ATOMS id type x y z
10 2 9.35006 7.58583 5.79555
4 1 8.68342 7.68174 6.66958
7 2 6.76657 6.80553 9.22869
8 2 8.11298 5.53243 7.16749
9 2 8.64949 8.76963 6.98482
1 1 6.40293 8.30898 7.83993
3 1 7.96574 6.65126 7.29692
2 1 6.97448 7.21004 8.26657
6 2 6.4236 8.57283 6.75556
5 2 5.66183 8.8417 8.51887
ITEM: TIMESTEP
1800
ITEM: NUMBER OF ATOMS
10
ITEM: BOX BOUNDS pp pp pp
0.0000000000000000e+00 1.5000000000000000e+01
0.0000000000000000e+00 1.5000000000000000e+01
0.0000000000000000e+00 1.5000000000000000e+01
ITEM: ATOMS id type x y z
10 2 9.53884 7.45811 6.0729
4 1 8.75075 7.71179 6.77195
7 2 6.49608 6.36386 8.88204
8 2 8.25241 5.72543 7.12324
9 2 8.51387 8.66314 7.06774
1 1 6.39688 8.34321 7.87626
3 1 7.98534 6.73059 7.2734
2 1 6.87449 7.10462 8.13226
6 2 6.70785 8.88216 6.99234
5 2 5.57019 8.78609 8.42754
ITEM: TIMESTEP
1900
ITEM: NUMBER OF ATOMS
10
ITEM: BOX BOUNDS pp pp pp
0.0000000000000000e+00 1.5000000000000000e+01
0.0000000000000000e+00 1.5000000000000000e+01
0.0000000000000000e+00 1.5000000000000000e+01
ITEM: ATOMS id type x y z
10 2 9.67884 7.59768 6.29847
4 1 8.77098 7.72383 6.92369
7 2 6.42762 6.33 8.68081
8 2 8.15626 5.63194 6.90814
9 2 8.70291 8.78987 7.26696
1 1 6.3633 8.32199 7.87996
3 1 7.99353 6.72734 7.20656
2 1 6.85302 7.08688 8.03693
6 2 6.77238 8.92152 7.07921
5 2 5.50094 8.78874 8.37256
ITEM: TIMESTEP
2000
ITEM: NUMBER OF ATOMS
10
ITEM: BOX BOUNDS pp pp pp
0.0000000000000000e+00 1.5000000000000000e+01
0.0000000000000000e+00 1.5000000000000000e+01
0.0000000000000000e+00 1.5000000000000000e+01
ITEM: ATOMS id type x y z
10 2 9.75925 7.76342 6.40797
4 1 8.85578 7.76631 7.01987
7 2 6.39379 6.32087 8.66218
8 2 8.07547 5.79635 6.69844
9 2 8.64267 8.57691 7.68241
1 1 6.38891 8.30083 7.82499
3 1 7.92797 6.72974 7.1667
2 1 6.82097 7.06105 7.99445
6 2 6.78349 8.9435 7.01969
5 2 5.5075 8.67141 8.38222
ITEM: TIMESTEP
2100
ITEM: NUMBER OF ATOMS
10
ITEM: BOX BOUNDS pp pp pp
0.0000000000000000e+00 1.5000000000000000e+01
0.0000000000000000e+00 1.5000000000000000e+01
0.0000000000000000e+00 1.5000000000000000e+01
ITEM: ATOMS id type x y z
10 2 9.79888 7.79885 6.644
4 1 8.81778 7.78952 7.08848
7 2 6.04008 6.27928 8.29328
8 2 8.15335 5.64449 6.8262
9 2 8.68999 8.69414 7.7297
1 1 6.4017 8.30589 7.87939
3 1 8.02666 6.74608 7.13831
2 1 6.75264 7.00414 7.84487
6 2 6.90278 9.04999 7.29382
5 2 5.54621 8.67951 8.39574
ITEM: TIMESTEP
2200
ITEM: NUMBER OF ATOMS
10
ITEM: BOX BOUNDS pp pp pp
0.0000000000000000e+00 1.5000000000000000e+01
0.0000000000000000e+00 1.5000000000000000e+01
0.0000000000000000e+00 1.5000000000000000e+01
ITEM: ATOMS id type x y z
10 2 9.92759 7.73584 6.85032
4 1 8.88533 7.80039 7.24688
7 2 6.04655 6.12045 7.82376
8 2 8.38499 5.95045 6.59867
9 2 8.69672 8.52959 8.01892
1 1 6.38616 8.32415 7.90184
3 1 7.98008 6.77758 7.10891
2 1 6.67777 6.96443 7.70231
6 2 7.05775 9.04792 7.40446
5 2 5.43439 8.63647 8.43325
ITEM: TIMESTEP
2300
ITEM: NUMBER OF ATOMS
10
ITEM: BOX BOUNDS pp pp pp
0.0000000000000000e+00 1.5000000000000000e+01
0.0000000000000000e+00 1.5000000000000000e+01
0.0000000000000000e+00 1.5000000000000000e+01
ITEM: ATOMS id type x y z
10 2 9.90902 7.69414 7.15042
4 1 8.90808 7.74715 7.51358
7 2 6.05582 6.15597 7.83162
8 2 8.24603 6.15471 6.11643
9 2 8.72948 8.20762 8.48262
1 1 6.32467 8.22796 7.84881
3 1 8.04044 6.87532 6.95681
2 1 6.70256 7.03293 7.60398
6 2 6.86881 9.05602 7.42433
5 2 5.46032 8.65136 8.34449
ITEM: TIMESTEP
2400
ITEM: NUMBER OF ATOMS
10
ITEM: BOX BOUNDS pp pp pp
0.0000000000000000e+00 1.5000000000000000e+01
0.0000000000000000e+00 1.5000000000000000e+01
0.0000000000000000e+00 1.5000000000000000e+01
ITEM: ATOMS id type x y z
10 2 10.0694 7.72694 7.37538
4 1 8.94191 7.69302 7.58175
7 2 6.00035 6.21165 7.34198
8 2 8.32385 6.15769 6.23218
9 2 8.67486 8.24733 8.48678
1 1 6.31747 8.25465 7.9143
3 1 8.04151 6.91852 6.98872
2 1 6.67772 7.04604 7.41304
6 2 6.92817 9.13315 7.84515
5 2 5.25573 8.26992 8.22062
ITEM: TIMESTEP
2500
ITEM: NUMBER OF ATOMS
10
ITEM: BOX BOUNDS pp pp pp
0.0000000000000000e+00 1.5000000000000000e+01
0.0000000000000000e+00 1.5000000000000000e+01
0.0000000000000000e+00 1.5000000000000000e+01
ITEM: ATOMS id type x y z
10 2 9.9359 7.69688 7.42463
4 1 8.91318 7.67944 7.70042
7 2 5.95434 6.30064 7.04197
8 2 8.28754 6.25605 6.19695
9 2 8.64427 8.1613 8.63025
1 1 6.31232 8.17803 7.90506
3 1 8.10176 6.95742 6.97461
2 1 6.69072 7.07796 7.30355
6 2 6.92881 9.10543 8.06305
5 2 5.26529 8.34262 8.2303
ITEM: TIMESTEP
2600
ITEM: NUMBER OF ATOMS
10
ITEM: BOX BOUNDS pp pp pp
0.0000000000000000e+00 1.5000000000000000e+01
0.0000000000000000e+00 1.5000000000000000e+01
0.0000000000000000e+00 1.5000000000000000e+01
ITEM: ATOMS id type x y z
10 2 9.95327 7.74439 7.60437
4 1 8.88848 7.59088 7.86333
7 2 6.14083 6.17857 6.96961
8 2 8.52723 6.62189 5.95369
9 2 8.59533 7.79553 8.89193
1 1 6.30397 8.20757 7.87282
3 1 8.05474 7.0514 6.90491
2 1 6.6921 7.06968 7.24883
6 2 6.93758 9.05036 7.8115
5 2 5.33403 8.31208 8.31857
ITEM: TIMESTEP
2700
ITEM: NUMBER OF ATOMS
10
ITEM: BOX BOUNDS pp pp pp
0.0000000000000000e+00 1.5000000000000000e+01
0.0000000000000000e+00 1.5000000000000000e+01
0.0000000000000000e+00 1.5000000000000000e+01
ITEM: ATOMS id type x y z
10 2 9.94705 7.63996 7.76736
4 1 8.8345 7.56737 7.93246
7 2 6.02571 6.45177 6.53676
8 2 8.58536 6.62535 6.12169
9 2 8.43466 7.77127 8.9456
1 1 6.30314 8.10013 7.92499
3 1 8.14481 7.09963 6.928
2 1 6.70779 7.15361 7.05786
6 2 6.91976 8.9816 8.17234
5 2 5.26999 8.22565 8.28534
ITEM: TIMESTEP
2800
ITEM: NUMBER OF ATOMS
10
ITEM: BOX BOUNDS pp pp pp
0.0000000000000000e+00 1.5000000000000000e+01
0.0000000000000000e+00 1.5000000000000000e+01
0.0000000000000000e+00 1.5000000000000000e+01
ITEM: ATOMS id type x y z
10 2 9.89761 7.60258 8.12037
4 1 8.84221 7.51306 8.03295
7 2 6.01632 6.82361 6.26551
8 2 8.67886 6.77107 5.97207
9 2 8.38565 7.59134 9.01395
1 1 6.24169 8.02266 7.94441
3 1 8.18636 7.14592 6.90398
2 1 6.75843 7.2441 6.95705
6 2 6.81957 8.72469 8.58559
5 2 5.15386 8.15232 7.90122
ITEM: TIMESTEP
2900
ITEM: NUMBER OF ATOMS
10
ITEM: BOX BOUNDS pp pp pp
0.0000000000000000e+00 1.5000000000000000e+01
0.0000000000000000e+00 1.5000000000000000e+01
0.0000000000000000e+00 1.5000000000000000e+01
ITEM: ATOMS id type x y z
10 2 9.89123 7.34859 8.27862
4 1 8.78481 7.34558 8.1303
7 2 6.22012 6.68344 6.26285
8 2 8.90574 7.33774 5.99631
9 2 8.14205 7.1094 8.9447
1 1 6.22007 8.00323 7.87264
3 1 8.23183 7.34385 6.8976
2 1 6.78938 7.30168 6.93353
6 2 6.68155 8.76672 8.43772
5 2 5.12674 8.00808 7.96443
ITEM: TIMESTEP
3000
ITEM: NUMBER OF ATOMS
10
ITEM: BOX BOUNDS pp pp pp
0.0000000000000000e+00 1.5000000000000000e+01
0.0000000000000000e+00 1.5000000000000000e+01
0.0000000000000000e+00 1.5000000000000000e+01
ITEM: ATOMS id type x y z
10 2 9.81829 7.31172 8.34778
4 1 8.72216 7.28577 8.17659
7 2 6.3807 6.95988 5.90085
8 2 8.92361 7.54551 6.10886
9 2 8.15002 7.01682 9.12849
1 1 6.14367 7.9279 7.84418
3 1 8.31339 7.3921 6.94985
2 1 6.82535 7.38482 6.8286
6 2 6.76755 8.44948 8.61406
5 2 5.05647 7.993 7.99363
ITEM: TIMESTEP
3100
ITEM: NUMBER OF ATOMS
10
ITEM: BOX BOUNDS pp pp pp
0.0000000000000000e+00 1.5000000000000000e+01
0.0000000000000000e+00 1.5000000000000000e+01
0.0000000000000000e+00 1.5000000000000000e+01
ITEM: ATOMS id type x y z
10 2 9.79042 7.2036 8.47533
4 1 8.72684 7.23658 8.25856
7 2 6.52777 7.38232 5.71243
8 2 9.00053 7.54864 6.13512
9 2 8.04328 7.04353 9.01884
1 1 6.14553 7.82264 7.85111
3 1 8.27409 7.42578 7.00649
2 1 6.86582 7.53074 6.72355
6 2 6.62946 8.08195 8.74365
5 2 5.05884 7.86555 7.76541
ITEM: TIMESTEP
3200
ITEM: NUMBER OF ATOMS
10
ITEM: BOX BOUNDS pp pp pp
0.0000000000000000e+00 1.5000000000000000e+01
0.0000000000000000e+00 1.5000000000000000e+01
0.0000000000000000e+00 1.5000000000000000e+01
ITEM: ATOMS id type x y z
10 2 9.6049 7.09354 8.77118
4 1 8.62548 7.09895 8.26129
7 2 6.45461 7.28631 5.78631
8 2 9.01853 7.96436 6.21645
9 2 7.82017 6.57038 8.82235
1 1 6.16843 7.80673 7.77243
3 1 8.38741 7.60411 7.0103
2 1 6.92952 7.56075 6.75717
6 2 6.5047 8.23726 8.72505
5 2 5.0561 7.64492 7.76054
ITEM: TIMESTEP
3300
ITEM: NUMBER OF ATOMS
10
ITEM: BOX BOUNDS pp pp pp
0.0000000000000000e+00 1.5000000000000000e+01
0.0000000000000000e+00 1.5000000000000000e+01
0.0000000000000000e+00 1.5000000000000000e+01
ITEM: ATOMS id type x y z
10 2 9.54905 7.10463 8.84679
4 1 8.60411 7.0572 8.24654
7 2 6.65406 7.65424 5.69664
8 2 9.20066 8.11355 6.62098
9 2 7.77298 6.44978 8.64538
1 1 6.10496 7.7405 7.76847
3 1 8.36565 7.63992 7.07989
2 1 6.99288 7.61283 6.6902
6 2 6.47954 7.87635 8.81364
5 2 5.06215 7.7187 7.55495
ITEM: TIMESTEP
3400
ITEM: NUMBER OF ATOMS
10
ITEM: BOX BOUNDS pp pp pp
0.0000000000000000e+00 1.5000000000000000e+01
0.0000000000000000e+00 1.5000000000000000e+01
0.0000000000000000e+00 1.5000000000000000e+01
ITEM: ATOMS id type x y z
10 2 9.5189 6.74587 8.61304
4 1 8.54428 7.0019 8.30534
7 2 6.75069 8.10072 5.63982
8 2 9.33213 8.06387 6.60827
9 2 7.87131 6.53292 8.96186
1 1 6.07316 7.57819 7.59572
3 1 8.41279 7.71459 7.19569
2 1 7.04261 7.84119 6.7377
6 2 6.24701 7.42211 8.59173
5 2 4.96687 7.53927 7.46756
ITEM: TIMESTEP
3500
ITEM: NUMBER OF ATOMS
10
ITEM: BOX BOUNDS pp pp pp
0.0000000000000000e+00 1.5000000000000000e+01
0.0000000000000000e+00 1.5000000000000000e+01
0.0000000000000000e+00 1.5000000000000000e+01
ITEM: ATOMS id type x y z
10 2 9.527 6.76249 8.87544
4 1 8.55787 6.87465 8.30336
7 2 6.90438 8.25003 5.73043
8 2 9.16136 8.44215 7.12995
9 2 7.71065 6.16241 8.46282
1 1 6.0929 7.52011 7.50559
3 1 8.36198 7.79355 7.31097
2 1 7.05842 7.92118 6.70107
6 2 6.32316 7.2972 8.61472
5 2 5.07041 7.64878 7.14965
ITEM: TIMESTEP
3600
ITEM: NUMBER OF ATOMS
10
ITEM: BOX BOUNDS pp pp pp
0.0000000000000000e+00 1.5000000000000000e+01
0.0000000000000000e+00 1.5000000000000000e+01
0.0000000000000000e+00 1.5000000000000000e+01
ITEM: ATOMS id type x y z
10 2 9.31187 6.61815 8.96261
4 1 8.51384 6.78959 8.21109
7 2 6.98519 8.24715 5.6463
8 2 9.10327 8.77066 7.42147
9 2 7.81658 5.92026 8.17173
1 1 6.07426 7.50208 7.44092
3 1 8.42144 7.88789 7.48858
2 1 7.11387 7.96848 6.72721
6 2 6.09216 7.35928 8.4887
5 2 5.07444 7.41628 6.99142
ITEM: TIMESTEP
3700
ITEM: NUMBER OF ATOMS
10
ITEM: BOX BOUNDS pp pp pp
0.0000000000000000e+00 1.5000000000000000e+01
0.0000000000000000e+00 1.5000000000000000e+01
0.0000000000000000e+00 1.5000000000000000e+01
ITEM: ATOMS id type x y z
10 2 9.352 6.69377 8.91212
4 1 8.47201 6.78023 8.25332
7 2 7.1093 8.71755 5.91657
8 2 9.25814 8.56672 7.44187
9 2 7.69245 6.10194 8.21413
1 1 6.06889 7.38952 7.30903
3 1 8.41308 7.88567 7.49118
2 1 7.12526 8.08002 6.85271
6 2 6.07663 6.93038 8.28707
5 2 5.16003 7.39694 6.67989
ITEM: TIMESTEP
3800
ITEM: NUMBER OF ATOMS
10
ITEM: BOX BOUNDS pp pp pp
0.0000000000000000e+00 1.5000000000000000e+01
0.0000000000000000e+00 1.5000000000000000e+01
0.0000000000000000e+00 1.5000000000000000e+01
ITEM: ATOMS id type x y z
10 2 9.20469 6.60519 9.00084
4 1 8.47479 6.73525 8.21865
7 2 7.17356 8.7884 6.02568
8 2 9.06806 8.74419 7.78788
9 2 7.86501 5.74022 8.08636
1 1 6.11136 7.41037 7.21501
3 1 8.3641 7.92009 7.60164
2 1 7.15582 8.1263 6.81917
6 2 6.01188 6.85398 8.17509
5 2 5.16436 7.33603 6.68632
ITEM: TIMESTEP
3900
ITEM: NUMBER OF ATOMS
10
ITEM: BOX BOUNDS pp pp pp
0.0000000000000000e+00 1.5000000000000000e+01
0.0000000000000000e+00 1.5000000000000000e+01
0.0000000000000000e+00 1.5000000000000000e+01
ITEM: ATOMS id type x y z
10 2 9.33535 6.51534 8.8474
4 1 8.4659 6.68612 8.15399
7 2 7.26143 8.67217 5.87449
8 2 8.8282 8.76773 8.17716
9 2 7.94006 5.88156 7.78431
1 1 6.13783 7.40391 7.13245
3 1 8.24046 7.93613 7.76997
2 1 7.21731 8.15533 6.90845
6 2 6.01428 6.93696 8.08333
5 2 5.37564 7.35726 6.33314
ITEM: TIMESTEP
4000
ITEM: NUMBER OF ATOMS
10
ITEM: BOX BOUNDS pp pp pp
0.0000000000000000e+00 1.5000000000000000e+01
0.0000000000000000e+00 1.5000000000000000e+01
0.0000000000000000e+00 1.5000000000000000e+01
ITEM: ATOMS id type x y z
10 2 9.11176 6.37233 8.97521
4 1 8.43822 6.68262 8.21608
7 2 7.11749 9.15513 6.39781
8 2 8.84048 8.69483 8.37529
9 2 7.99759 5.73628 7.78629
1 1 6.21194 7.33606 6.93836
3 1 8.27095 7.95318 7.83864
2 1 7.18763 8.26473 6.95408
6 2 6.00532 6.39018 7.4367
5 2 5.39888 7.45172 6.23471
ITEM: TIMESTEP
4100
ITEM: NUMBER OF ATOMS
10
ITEM: BOX BOUNDS pp pp pp
0.0000000000000000e+00 1.5000000000000000e+01
0.0000000000000000e+00 1.5000000000000000e+01
0.0000000000000000e+00 1.5000000000000000e+01
ITEM: ATOMS id type x y z
10 2 9.08344 6.37627 8.99281
4 1 8.36203 6.62494 8.15064
7 2 7.06326 9.26863 6.644
8 2 8.69758 8.67739 8.79221
9 2 7.99124 5.91303 7.40508
1 1 6.31019 7.32641 6.70664
3 1 8.21279 7.96395 8.04011
2 1 7.15289 8.2765 7.11174
6 2 6.28543 6.33882 7.27083
5 2 5.77565 7.49504 5.72933
ITEM: TIMESTEP
4200
ITEM: NUMBER OF ATOMS
10
ITEM: BOX BOUNDS pp pp pp
0.0000000000000000e+00 1.5000000000000000e+01
0.0000000000000000e+00 1.5000000000000000e+01
0.0000000000000000e+00 1.5000000000000000e+01
ITEM: ATOMS id type x y z
10 2 8.93121 6.07935 8.89633
4 1 8.44657 6.61938 8.11347
7 2 7.27684 9.40324 6.65267
8 2 8.12999 8.40838 9.16882
9 2 8.42315 6.09901 7.20615
1 1 6.40094 7.3459 6.60263
3 1 8.01534 7.87792 8.24969
2 1 7.16811 8.38481 7.08586
6 2 6.19981 6.43007 7.06048
5 2 5.97721 7.43194 5.59465
ITEM: TIMESTEP
4300
ITEM: NUMBER OF ATOMS
10
ITEM: BOX BOUNDS pp pp pp
0.0000000000000000e+00 1.5000000000000000e+01
0.0000000000000000e+00 1.5000000000000000e+01
0.0000000000000000e+00 1.5000000000000000e+01
ITEM: ATOMS id type x y z
10 2 8.93395 6.10788 9.02736
4 1 8.43057 6.59133 8.15135
7 2 6.9974 9.36846 6.88684
8 2 7.95699 8.40688 9.2385
9 2 8.36609 6.02491 7.15252
1 1 6.52277 7.4462 6.44695
3 1 7.95574 7.82597 8.27581
2 1 7.13551 8.33765 7.16647
6 2 6.62642 6.36593 6.7747
5 2 5.97562 7.739 5.56556
ITEM: TIMESTEP
4400
ITEM: NUMBER OF ATOMS
10
ITEM: BOX BOUNDS pp pp pp
0.0000000000000000e+00 1.5000000000000000e+01
0.0000000000000000e+00 1.5000000000000000e+01
0.0000000000000000e+00 1.5000000000000000e+01
ITEM: ATOMS id type x y z
10 2 9.06288 6.08775 8.89089
4 1 8.41927 6.6147 8.15816
7 2 7.10144 9.4234 7.05887
8 2 7.9262 8.2519 9.31508
9 2 8.34821 6.1275 7.25241
1 1 6.61837 7.4471 6.35283
3 1 7.84591 7.79741 8.3767
2 1 7.10655 8.3231 7.21774
6 2 6.57851 6.40766 6.36832
5 2 6.16609 7.82789 5.37084
ITEM: TIMESTEP
4500
ITEM: NUMBER OF ATOMS
10
ITEM: BOX BOUNDS pp pp pp
0.0000000000000000e+00 1.5000000000000000e+01
0.0000000000000000e+00 1.5000000000000000e+01
0.0000000000000000e+00 1.5000000000000000e+01
ITEM: ATOMS id type x y z
10 2 8.67087 5.98985 8.9323
4 1 8.43026 6.63708 8.09955
7 2 7.05232 9.4048 7.12152
8 2 7.4299 8.01846 9.46898
9 2 8.7405 6.33142 7.08306
1 1 6.69442 7.49612 6.30031
3 1 7.76005 7.73007 8.39948
2 1 7.15442 8.34236 7.25259
6 2 6.76082 6.41166 6.56924
5 2 6.23466 7.83005 5.40234
ITEM: TIMESTEP
4600
ITEM: NUMBER OF ATOMS
10
ITEM: BOX BOUNDS pp pp pp
0.0000000000000000e+00 1.5000000000000000e+01
0.0000000000000000e+00 1.5000000000000000e+01
0.0000000000000000e+00 1.5000000000000000e+01
ITEM: ATOMS id type x y z
10 2 8.80938 5.8718 8.87757
4 1 8.43944 6.60508 8.12376
7 2 6.89421 9.46025 7.3241
8 2 7.53717 7.97288 9.43158
9 2 8.62835 6.30694 7.05635
1 1 6.88486 7.54358 6.25339
3 1 7.62056 7.67997 8.43637
2 1 7.00841 8.36653 7.308
6 2 6.88613 6.44957 6.21901
5 2 6.64916 7.98761 5.25131
ITEM: TIMESTEP
4700
ITEM: NUMBER OF ATOMS
10
ITEM: BOX BOUNDS pp pp pp
0.0000000000000000e+00 1.5000000000000000e+01
0.0000000000000000e+00 1.5000000000000000e+01
0.0000000000000000e+00 1.5000000000000000e+01
ITEM: ATOMS id type x y z
10 2 8.69374 5.86118 8.85879
4 1 8.39506 6.61782 8.11811
7 2 6.63051 9.3319 7.29996
8 2 7.24852 7.84017 9.50949
9 2 8.71641 6.37687 7.15504
1 1 7.04474 7.68827 6.17436
3 1 7.53419 7.55855 8.46007
2 1 6.98528 8.29405 7.35792
6 2 7.32182 6.66904 6.11995
5 2 6.75744 8.1887 5.28296
ITEM: TIMESTEP
4800
ITEM: NUMBER OF ATOMS
10
ITEM: BOX BOUNDS pp pp pp
0.0000000000000000e+00 1.5000000000000000e+01
0.0000000000000000e+00 1.5000000000000000e+01
0.0000000000000000e+00 1.5000000000000000e+01
ITEM: ATOMS id type x y z
10 2 8.68186 5.80836 8.81088
4 1 8.3927 6.63411 8.20375
7 2 6.76738 9.35498 7.49472
8 2 6.84203 7.25268 9.42761
9 2 8.98969 6.77406 7.23764
1 1 7.13051 7.76214 6.12755
3 1 7.37862 7.45211 8.43663
2 1 7.02909 8.32585 7.36158
6 2 7.41852 6.68953 5.94358
5 2 6.83897 8.29517 5.19754
ITEM: TIMESTEP
4900
ITEM: NUMBER OF ATOMS
10
ITEM: BOX BOUNDS pp pp pp
0.0000000000000000e+00 1.5000000000000000e+01
0.0000000000000000e+00 1.5000000000000000e+01
0.0000000000000000e+00 1.5000000000000000e+01
ITEM: ATOMS id type x y z
10 2 8.74316 5.88916 8.93212
4 1 8.37879 6.61892 8.16289
7 2 6.62505 9.28478 7.53104
8 2 6.77553 7.29217 9.35364
9 2 8.94945 6.73571 7.30479
1 1 7.25471 7.86705 6.13467
3 1 7.30653 7.36374 8.47105
2 1 6.94896 8.25376 7.33264
6 2 7.54457 6.86414 5.91072
5 2 7.15226 8.53321 5.24922
ITEM: TIMESTEP
5000
ITEM: NUMBER OF ATOMS
10
ITEM: BOX BOUNDS pp pp pp
0.0000000000000000e+00 1.5000000000000000e+01
0.0000000000000000e+00 1.5000000000000000e+01
0.0000000000000000e+00 1.5000000000000000e+01
ITEM: ATOMS id type x y z
10 2 8.59798 5.71433 8.87212
4 1 8.36541 6.55507 8.19776
7 2 6.23626 9.18967 7.53805
8 2 6.58056 7.1793 9.29223
9 2 9.11551 6.73233 7.35793
1 1 7.37395 7.93994 6.13576
3 1 7.31279 7.35597 8.39892
2 1 6.86801 8.28202 7.35971
6 2 7.90996 7.02266 5.97235
5 2 7.1628 8.58369 5.3034
ITEM: TIMESTEP
5100
ITEM: NUMBER OF ATOMS
10
ITEM: BOX BOUNDS pp pp pp
0.0000000000000000e+00 1.5000000000000000e+01
0.0000000000000000e+00 1.5000000000000000e+01
0.0000000000000000e+00 1.5000000000000000e+01
ITEM: ATOMS id type x y z
10 2 8.65933 5.81194 8.80463
4 1 8.37001 6.64435 8.21673
7 2 6.45975 9.17822 7.63199
8 2 6.44499 6.9118 9.05486
9 2 9.12621 7.03416 7.5825
1 1 7.43007 7.99976 6.16874
3 1 7.15793 7.1921 8.35728
2 1 6.88164 8.24695 7.34972
6 2 7.79036 6.97157 5.83263
5 2 7.60549 8.8134 5.42754
ITEM: TIMESTEP
5200
ITEM: NUMBER OF ATOMS
10
ITEM: BOX BOUNDS pp pp pp
0.0000000000000000e+00 1.5000000000000000e+01
0.0000000000000000e+00 1.5000000000000000e+01
0.0000000000000000e+00 1.5000000000000000e+01
ITEM: ATOMS id type x y z
10 2 8.52599 5.64178 8.81488
4 1 8.31643 6.62777 8.23906
7 2 6.13198 8.94967 7.51346
8 2 6.30319 6.64381 8.94242
9 2 9.17663 7.10403 7.75845
1 1 7.55861 8.13665 6.19884
3 1 7.08891 7.16298 8.28743
2 1 6.91639 8.17299 7.34498
6 2 8.14998 7.26079 5.96026
5 2 7.55416 9.01757 5.47766
ITEM: TIMESTEP
5300
ITEM: NUMBER OF ATOMS
10
ITEM: BOX BOUNDS pp pp pp
0.0000000000000000e+00 1.5000000000000000e+01
0.0000000000000000e+00 1.5000000000000000e+01
0.0000000000000000e+00 1.5000000000000000e+01
ITEM: ATOMS id type x y z
10 2 8.48308 5.73418 8.88732
4 1 8.26602 6.56151 8.26591
7 2 5.96581 8.80567 7.35971
8 2 6.27318 6.63989 8.8086
9 2 9.14201 6.97886 7.78759
1 1 7.70665 8.27502 6.2821
3 1 7.05467 7.0593 8.2046
2 1 6.82125 8.15073 7.31581
6 2 8.55597 7.70305 5.96753
5 2 7.61235 9.07895 5.66772
ITEM: TIMESTEP
5400
ITEM: NUMBER OF ATOMS
10
ITEM: BOX BOUNDS pp pp pp
0.0000000000000000e+00 1.5000000000000000e+01
0.0000000000000000e+00 1.5000000000000000e+01
0.0000000000000000e+00 1.5000000000000000e+01
ITEM: ATOMS id type x y z
10 2 8.48159 5.72223 8.91942
4 1 8.2791 6.60782 8.28625
7 2 6.05512 8.9461 7.43774
8 2 6.12953 6.38376 8.4459
9 2 9.1448 7.22877 8.04877
1 1 7.76678 8.31797 6.37194
3 1 6.98863 6.94977 8.07674
2 1 6.82303 8.14164 7.27843
6 2 8.44087 7.48592 6.11406
5 2 7.72684 9.34997 5.84293
ITEM: TIMESTEP
5500
ITEM: NUMBER OF ATOMS
10
ITEM: BOX BOUNDS pp pp pp
0.0000000000000000e+00 1.5000000000000000e+01
0.0000000000000000e+00 1.5000000000000000e+01
0.0000000000000000e+00 1.5000000000000000e+01
ITEM: ATOMS id type x y z
10 2 8.51683 5.59755 8.73962
4 1 8.25862 6.58192 8.3143
7 2 5.91812 8.78884 7.39508
8 2 6.13016 6.20585 8.21742
9 2 9.06119 7.32966 8.26656
1 1 7.82077 8.38047 6.42706
3 1 6.97506 6.92286 8.04895
2 1 6.77323 8.17936 7.25662
6 2 8.60739 7.66279 6.18427
5 2 7.92428 9.2476 5.80443
ITEM: TIMESTEP
5600
ITEM: NUMBER OF ATOMS
10
ITEM: BOX BOUNDS pp pp pp
0.0000000000000000e+00 1.5000000000000000e+01
0.0000000000000000e+00 1.5000000000000000e+01
0.0000000000000000e+00 1.5000000000000000e+01
ITEM: ATOMS id type x y z
10 2 8.44882 5.6949 8.85925
4 1 8.18172 6.56963 8.29616
7 2 5.87688 8.65583 7.20496
8 2 6.10406 6.28324 8.3308
9 2 8.97315 7.29458 8.08373
1 1 7.89592 8.5376 6.51407
3 1 6.93236 6.85857 8.00939
2 1 6.83574 8.02342 7.16468
6 2 8.71453 7.83471 6.44813
5 2 7.93216 9.5214 6.0563
ITEM: TIMESTEP
5700
ITEM: NUMBER OF ATOMS
10
ITEM: BOX BOUNDS pp pp pp
0.0000000000000000e+00 1.5000000000000000e+01
0.0000000000000000e+00 1.5000000000000000e+01
0.0000000000000000e+00 1.5000000000000000e+01
ITEM: ATOMS id type x y z
10 2 8.59864 5.5646 8.74019
4 1 8.14363 6.55985 8.38274
7 2 5.86119 8.62804 7.17239
8 2 6.12786 6.03751 7.86135
9 2 8.83266 7.37549 8.47294
1 1 7.91753 8.53069 6.61505
3 1 6.95432 6.81734 7.83423
2 1 6.78398 8.10943 7.18155
6 2 8.87183 8.00252 6.4947
5 2 8.03503 9.50795 6.06603
ITEM: TIMESTEP
5800
ITEM: NUMBER OF ATOMS
10
ITEM: BOX BOUNDS pp pp pp
0.0000000000000000e+00 1.5000000000000000e+01
0.0000000000000000e+00 1.5000000000000000e+01
0.0000000000000000e+00 1.5000000000000000e+01
ITEM: ATOMS id type x y z