LAMMPS (2 Aug 2023 - Update 2)
#13 Butadiene
units           metal
boundary        p p p
atom_style      atomic

neighbor        2.0 bin
neigh_modify    delay 0 every 1 check yes

read_data       restart.lmp
Reading data file ...
  orthogonal box = (0 0 0) to (15 15 15)
  1 by 1 by 3 MPI processor grid
  reading atoms ...
  10 atoms
  reading velocities ...
  10 velocities
  read_data CPU = 0.001 seconds
mass            1 12.0
mass            2 2

variable        sysvol          equal vol
variable        sysmass         equal mass(all)/6.0221367e+23
variable        sysdensity      equal v_sysmass/v_sysvol/1.0e-24
variable	out_freq 	equal 100

pair_style      deepmd ../files/frozen_model_1_compressed.pb ../files/frozen_model_2_compressed.pb ../files/frozen_model_3_compressed.pb ../files/frozen_model_3_compressed.pb out_file md.out out_freq 10 atomic relative 1.0
Summary of lammps deepmd module ...
  >>> Info of deepmd-kit:
  installed to:       /rs1/researchers/w/wjpfaend/rahul/MLP/DeePMD-kit/deepmd_cpu
  source:             v2.2.8-dirty
  source branch:      master
  source commit:      b875ea8
  source commit at:   2024-01-22 22:28:58 -0500
  support model ver.: 1.1 
  build variant:      cpu
  build with tf inc:  /rs1/researchers/w/wjpfaend/rahul/MLP/DeePMD-kit/tensorflow/lib/python3.11/site-packages/tensorflow/include;/rs1/researchers/w/wjpfaend/rahul/MLP/DeePMD-kit/tensorflow/lib/python3.11/site-packages/tensorflow/include
  build with tf lib:  /rs1/researchers/w/wjpfaend/rahul/MLP/DeePMD-kit/tensorflow/lib/python3.11/site-packages/tensorflow/libtensorflow_cc.so.2
  set tf intra_op_parallelism_threads: 0
  set tf inter_op_parallelism_threads: 0
  >>> Info of lammps module:
  use deepmd-kit at:  /rs1/researchers/w/wjpfaend/rahul/MLP/DeePMD-kit/deepmd_cpu
  source:             v2.2.8-dirty
  source branch:      master
  source commit:      b875ea8
  source commit at:   2024-01-22 22:28:58 -0500
  build float prec:   double
  build with tf inc:  /rs1/researchers/w/wjpfaend/rahul/MLP/DeePMD-kit/tensorflow/lib/python3.11/site-packages/tensorflow/include;/rs1/researchers/w/wjpfaend/rahul/MLP/DeePMD-kit/tensorflow/lib/python3.11/site-packages/tensorflow/include
  build with tf lib:  /rs1/researchers/w/wjpfaend/rahul/MLP/DeePMD-kit/tensorflow/lib/python3.11/site-packages/tensorflow/libtensorflow_cc.so.2
pair_coeff	* *

#
velocity        all create 300.0 2345678 rot no dist gaussian
fix             1 all nvt temp 300.0 300.0 0.05
fix             2 all plumed plumedfile plumed.dat outfile PLUMED.log

timestep        0.0005
thermo_style    custom step pe ke etotal v_sysdensity temp press vol
thermo          10

dump            10 all custom 100 btd.dump id type x y z
dump		101 all xyz 20 btd.xyz
dump_modify	101 element C H

fix		extra all print 20 "$(step), $(ke), $(pe), $(etotal), $(temp), $(press), $(vol)" file logfile screen no

restart	        20000 dump.restart

run             50000

CITE-CITE-CITE-CITE-CITE-CITE-CITE-CITE-CITE-CITE-CITE-CITE-CITE

Your simulation uses code contributions which should be cited:

- USER-DEEPMD package:

@article{Wang_ComputPhysCommun_2018_v228_p178,
  author = {Wang, Han and Zhang, Linfeng and Han, Jiequn and E, Weinan},
  doi = {10.1016/j.cpc.2018.03.016},
  url = {https://doi.org/10.1016/j.cpc.2018.03.016},
  year = 2018,
  month = {jul},
  publisher = {Elsevier {BV}},
  volume = 228,
  journal = {Comput. Phys. Commun.},
  title = {{DeePMD-kit: A deep learning package for many-body potential energy representation and molecular dynamics}},
  pages = {178--184}
}
@misc{Zeng_JChemPhys_2023_v159_p054801,
  title  = {{DeePMD-kit v2: A software package for deep potential models}},
  author =   {Jinzhe Zeng and Duo Zhang and Denghui Lu and Pinghui Mo and Zeyu Li
         and Yixiao Chen and Mari{\'a}n Rynik and Li'ang Huang and Ziyao Li and 
         Shaochen Shi and Yingze Wang and Haotian Ye and Ping Tuo and Jiabin
         Yang and Ye Ding and Yifan Li and Davide Tisi and Qiyu Zeng and Han 
         Bao and Yu Xia and Jiameng Huang and Koki Muraoka and Yibo Wang and 
         Junhan Chang and Fengbo Yuan and Sigbj{\o}rn L{\o}land Bore and Chun
         Cai and Yinnian Lin and Bo Wang and Jiayan Xu and Jia-Xin Zhu and 
         Chenxing Luo and Yuzhi Zhang and Rhys E A Goodall and Wenshuo Liang
         and Anurag Kumar Singh and Sikai Yao and Jingchao Zhang and Renata
         Wentzcovitch and Jiequn Han and Jie Liu and Weile Jia and Darrin M
         York and Weinan E and Roberto Car and Linfeng Zhang and Han Wang},
  journal =  {J. Chem. Phys.},
  volume =   159,
  issue =    5,  
  year =    2023,
  pages  =   054801,
  doi =      {10.1063/5.0155600},
}

CITE-CITE-CITE-CITE-CITE-CITE-CITE-CITE-CITE-CITE-CITE-CITE-CITE

Generated 0 of 1 mixed pair_coeff terms from geometric mixing rule
Neighbor list info ...
  update: every = 1 steps, delay = 0 steps, check = yes
  max neighbors/atom: 2000, page size: 100000
  master list distance cutoff = 8
  ghost atom cutoff = 8
  binsize = 4, bins = 4 4 4
  1 neighbor lists, perpetual/occasional/extra = 1 0 0
  (1) pair deepmd, perpetual
      attributes: full, newton on
      pair build: full/bin/atomonly
      stencil: full/bin/3d
      bin: standard
Per MPI rank memory allocation (min/avg/max) = 2.957 | 2.999 | 3.082 Mbytes
   Step         PotEng         KinEng         TotEng      v_sysdensity       Temp          Press          Volume    
         0  -56.23549       0.34900239    -55.886487      0.029520714    300           -2027.6423      3375         
        10  -55.822193      0.43122885    -55.390964      0.029520714    370.68128     -1979.7852      3375         
        20  -56.113419      0.67965366    -55.433765      0.029520714    584.2255       1800.714       3375         
        30  -56.050882      0.60273611    -55.448146      0.029520714    518.10772      1891.9406      3375         
        40  -55.872757      0.39576012    -55.476996      0.029520714    340.19262     -1170.1109      3375         
        50  -56.023015      0.53317324    -55.489842      0.029520714    458.31197     -297.42478      3375         
        60  -56.110675      0.59865402    -55.512021      0.029520714    514.59878      115.16226      3375         
        70  -56.02361       0.47329628    -55.550313      0.029520714    406.84215     -890.45729      3375         
        80  -55.948366      0.36158101    -55.586785      0.029520714    310.81249      574.89141      3375         
        90  -56.14265       0.52693017    -55.61572       0.029520714    452.94546      645.08175      3375         
       100  -56.06641       0.41237391    -55.654036      0.029520714    354.47371      26.875905      3375         
       110  -56.048988      0.35627283    -55.692715      0.029520714    306.24962      125.21574      3375         
       120  -56.072868      0.38035289    -55.692516      0.029520714    326.94866     -1196.0645      3375         
       130  -56.135435      0.41625658    -55.719179      0.029520714    357.81123     -445.23768      3375         
       140  -56.109092      0.36388912    -55.745203      0.029520714    312.79652      1828.5747      3375         
       150  -56.13296       0.36175094    -55.771209      0.029520714    310.95857     -3.4190471      3375         
       160  -56.032167      0.26061668    -55.771551      0.029520714    224.02426     -1555.3375      3375         
       170  -56.170463      0.39697813    -55.773485      0.029520714    341.23961      98.838487      3375         
       180  -56.113387      0.33634701    -55.77704       0.029520714    289.12152      880.83455      3375         
       190  -56.125837      0.33347396    -55.792363      0.029520714    286.65187      1059.9998      3375         
       200  -56.212786      0.40013632    -55.81265       0.029520714    343.95436      123.62737      3375         
       210  -56.074924      0.27585706    -55.799066      0.029520714    237.12479     -1922.194       3375         
       220  -56.074768      0.27552536    -55.799242      0.029520714    236.83966     -512.4694       3375         
       230  -56.28822       0.47463253    -55.813587      0.029520714    407.99078      841.26883      3375         
       240  -56.171943      0.36564903    -55.806293      0.029520714    314.30933     -91.468075      3375         
       250  -56.05744       0.24104634    -55.816393      0.029520714    207.20174      601.61244      3375         
       260  -56.198525      0.36727784    -55.831247      0.029520714    315.70945      934.12919      3375         
       270  -56.126079      0.30966645    -55.816413      0.029520714    266.1871      -682.66121      3375         
       280  -56.107214      0.28673425    -55.820479      0.029520714    246.47474     -1120.7849      3375         
       290  -56.154899      0.34164342    -55.813256      0.029520714    293.67428     -362.08872      3375         
       300  -56.200585      0.38096457    -55.81962       0.029520714    327.47446      841.29032      3375         
       310  -56.117704      0.29482667    -55.822877      0.029520714    253.43093      1243.6169      3375         
       320  -56.132835      0.2925713     -55.840263      0.029520714    251.49223     -825.17856      3375         
       330  -56.112533      0.31440282    -55.79813       0.029520714    270.25845     -1384.6296      3375         
       340  -56.164849      0.35502423    -55.809825      0.029520714    305.17633      714.64371      3375         
       350  -56.092905      0.28124805    -55.811657      0.029520714    241.75885      1097.5973      3375         
       360  -56.148857      0.33777941    -55.811078      0.029520714    290.3528      -409.44595      3375         
       370  -56.189347      0.37790984    -55.811437      0.029520714    324.84864     -747.93459      3375         
       380  -56.160453      0.37120672    -55.789246      0.029520714    319.08669      97.108668      3375         
       390  -56.112945      0.32135852    -55.791586      0.029520714    276.23752      518.5327       3375         
       400  -56.134615      0.34377701    -55.790838      0.029520714    295.50829      185.56649      3375         
       410  -56.157839      0.37850907    -55.77933       0.029520714    325.36374     -577.05233      3375         
       420  -56.128362      0.35541629    -55.772946      0.029520714    305.51334     -228.72774      3375         
       430  -55.998638      0.22864361    -55.769994      0.029520714    196.54044      728.86574      3375         
       440  -56.164798      0.4101463     -55.754652      0.029520714    352.55887     -398.48005      3375         
       450  -56.147468      0.41235373    -55.735114      0.029520714    354.45636     -578.10265      3375         
       460  -56.009097      0.2812521     -55.727845      0.029520714    241.76232      1161.6923      3375         
       470  -56.072928      0.35973709    -55.713191      0.029520714    309.22747      778.00655      3375         
       480  -56.152902      0.44359085    -55.709311      0.029520714    381.30757     -1095.0145      3375         
       490  -55.992458      0.31611909    -55.676339      0.029520714    271.73375     -1314.1155      3375         
       500  -56.128441      0.48532835    -55.643112      0.029520714    417.18484     -35.095603      3375         
       510  -56.148004      0.51905862    -55.628946      0.029520714    446.17914      1670.0882      3375         
       520  -55.945604      0.33162461    -55.61398       0.029520714    285.06218      1215.5507      3375         
       530  -55.951503      0.34848537    -55.603018      0.029520714    299.55557     -1180.0099      3375         
       540  -56.210123      0.65512983    -55.554993      0.029520714    563.145       -1102.6188      3375         
       550  -55.974082      0.43789342    -55.536188      0.029520714    376.4101       468.50517      3375         
       560  -55.915315      0.38825566    -55.527059      0.029520714    333.74183     -318.13971      3375         
       570  -56.054419      0.5452641     -55.509155      0.029520714    468.70518     -270.39436      3375         
       580  -56.04725       0.54867936    -55.49857       0.029520714    471.64092      919.6009       3375         
       590  -55.778413      0.27827834    -55.500134      0.029520714    239.2061       548.59569      3375         
       600  -56.076436      0.58984191    -55.486594      0.029520714    507.02396     -383.59832      3375         
       610  -56.023292      0.54653704    -55.476755      0.029520714    469.7994      -551.03981      3375         
       620  -55.886179      0.40755357    -55.478625      0.029520714    350.33018     -443.0827       3375         
       630  -55.983397      0.4971386     -55.486258      0.029520714    427.33684      816.77253      3375         
       640  -56.104751      0.59928334    -55.505468      0.029520714    515.13974      376.42196      3375         
       650  -55.885539      0.35731612    -55.528223      0.029520714    307.14642     -1470.1363      3375         
       660  -56.09856       0.58119616    -55.517364      0.029520714    499.59213      230.36012      3375         
       670  -56.085703      0.52180143    -55.563902      0.029520714    448.53683      1198.5774      3375         
       680  -55.922563      0.32157446    -55.600988      0.029520714    276.42315     -415.72567      3375         
       690  -56.114369      0.47876273    -55.635606      0.029520714    411.54107     -405.38965      3375         
       700  -56.177779      0.50061923    -55.67716       0.029520714    430.32877     -167.96623      3375         
       710  -55.983985      0.27402924    -55.709956      0.029520714    235.55361      268.11322      3375         
       720  -56.14187       0.39248575    -55.749385      0.029520714    337.37799      845.94115      3375         
       730  -56.190561      0.40821299    -55.782348      0.029520714    350.89701     -689.85548      3375         
       740  -56.052798      0.25714712    -55.795651      0.029520714    221.04186     -514.42688      3375         
       750  -56.157112      0.333547      -55.823565      0.029520714    286.71466      1044.9168      3375         
       760  -56.186137      0.3349426     -55.851194      0.029520714    287.91431     -467.0267       3375         
       770  -56.06703       0.22757554    -55.839454      0.029520714    195.62233     -1233.421       3375         
       780  -56.188758      0.3450742     -55.843684      0.029520714    296.62336      659.66567      3375         
       790  -56.215523      0.35487418    -55.860649      0.029520714    305.04735      1165.5555      3375         
       800  -56.101675      0.23541597    -55.866259      0.029520714    202.36191      571.70629      3375         
       810  -56.195712      0.31722105    -55.878491      0.029520714    272.68099     -851.7193       3375         
       820  -56.222836      0.35605557    -55.866781      0.029520714    306.06287     -1583.613       3375         
       830  -56.083786      0.21545928    -55.868326      0.029520714    185.20728      586.93086      3375         
       840  -56.184032      0.30894725    -55.875084      0.029520714    265.56888      1234.5941      3375         
       850  -56.235772      0.35799271    -55.87778       0.029520714    307.72801     -520.71828      3375         
       860  -56.149936      0.27595784    -55.873979      0.029520714    237.21141     -328.1788       3375         
       870  -56.080997      0.21303594    -55.867961      0.029520714    183.12419      701.48637      3375         
       880  -56.24483       0.37399909    -55.870831      0.029520714    321.48698     -154.78242      3375         
       890  -56.169066      0.29990857    -55.869158      0.029520714    257.7993      -654.6479       3375         
       900  -56.130362      0.28048039    -55.849882      0.029520714    241.09897     -229.02096      3375         
       910  -56.122246      0.26701608    -55.85523       0.029520714    229.52514      452.62457      3375         
       920  -56.185586      0.32818571    -55.8574        0.029520714    282.10613      801.29736      3375         
       930  -56.113025      0.26817547    -55.844849      0.029520714    230.52175     -622.47784      3375         
       940  -56.125481      0.29601       -55.829471      0.029520714    254.44811     -1127.1594      3375         
       950  -56.118256      0.2996337     -55.818622      0.029520714    257.56302      1146.6685      3375         
       960  -56.189884      0.37927593    -55.810608      0.029520714    326.02292      1166.8094      3375         
       970  -56.133426      0.32321475    -55.810211      0.029520714    277.83313     -1317.3754      3375         
       980  -56.055208      0.26797031    -55.787238      0.029520714    230.3454      -1083.1793      3375         
       990  -56.162541      0.40299635    -55.759545      0.029520714    346.41283      722.56021      3375         
      1000  -56.170889      0.41267102    -55.758218      0.029520714    354.7291       894.69988      3375         
      1010  -56.110171      0.36726017    -55.742911      0.029520714    315.69426      81.22882       3375         
      1020  -56.073414      0.35822644    -55.715187      0.029520714    307.92893     -1054.6416      3375         
      1030  -56.104045      0.39634412    -55.707701      0.029520714    340.69462     -254.07487      3375         
      1040  -55.974894      0.28308419    -55.69181       0.029520714    243.33718      1322.3599      3375         
      1050  -56.199142      0.53110884    -55.668033      0.029520714    456.53742     -291.47038      3375         
      1060  -56.051359      0.39778414    -55.653575      0.029520714    341.93245     -863.62259      3375         
      1070  -55.9253        0.29865075    -55.626649      0.029520714    256.71809      1171.425       3375         
      1080  -55.921127      0.30074905    -55.620377      0.029520714    258.52177      566.10268      3375         
      1090  -56.243651      0.61483475    -55.628816      0.029520714    528.50763     -1569.1684      3375         
      1100  -55.932657      0.36772516    -55.564932      0.029520714    316.09396     -1140.3777      3375         
      1110  -56.000606      0.44369484    -55.556912      0.029520714    381.39697      546.56554      3375         
      1120  -56.06246       0.5094268     -55.553033      0.029520714    437.89969      2003.4995      3375         
      1130  -56.10765       0.56848055    -55.53917       0.029520714    488.66188      755.52852      3375         
      1140  -55.875577      0.34880473    -55.526772      0.029520714    299.8301      -1875.6959      3375         
      1150  -56.093815      0.57972029    -55.514094      0.029520714    498.32348     -801.54364      3375         
      1160  -56.004543      0.50446757    -55.500075      0.029520714    433.63677      1664.8597      3375         
      1170  -56.014307      0.50654943    -55.507757      0.029520714    435.42633     -381.50806      3375         
      1180  -55.963978      0.4511502     -55.512828      0.029520714    387.80554     -1418.4143      3375         
      1190  -55.984343      0.48625193    -55.498092      0.029520714    417.97874      622.88152      3375         
      1200  -55.936281      0.41293656    -55.523344      0.029520714    354.95737      951.47406      3375         
      1210  -56.108485      0.55588929    -55.552596      0.029520714    477.83852      74.366668      3375         
      1220  -55.989222      0.43239437    -55.556828      0.029520714    371.68316     -549.59382      3375         
      1230  -56.00813       0.41772824    -55.590402      0.029520714    359.07626     -744.41982      3375         
      1240  -56.051765      0.41885916    -55.632906      0.029520714    360.04838      1192.4955      3375         
      1250  -56.092147      0.41628422    -55.675863      0.029520714    357.83499      388.92279      3375         
      1260  -56.039112      0.31854242    -55.720569      0.029520714    273.81682     -2119.4992      3375         
      1270  -56.144074      0.40912336    -55.734951      0.029520714    351.67956      134.89348      3375         
      1280  -56.150385      0.37121131    -55.779173      0.029520714    319.09063      2020.0747      3375         
      1290  -56.167078      0.34842544    -55.818653      0.029520714    299.50406      66.312173      3375         
      1300  -56.070002      0.22593022    -55.844071      0.029520714    194.20803     -1167.7802      3375         
      1310  -56.185758      0.35075704    -55.835001      0.029520714    301.50828     -1040.4708      3375         
      1320  -56.219818      0.35688415    -55.862934      0.029520714    306.77511      688.77147      3375         
      1330  -56.204806      0.32058246    -55.884223      0.029520714    275.57042      1572.6023      3375         
      1340  -56.086937      0.19142029    -55.895517      0.029520714    164.54353     -686.38324      3375         
      1350  -56.215466      0.31969413    -55.895772      0.029520714    274.80682     -1007.5455      3375         
      1360  -56.171855      0.26529167    -55.906563      0.029520714    228.04285      853.07151      3375         
      1370  -56.235614      0.32117612    -55.914438      0.029520714    276.08073     -158.91768      3375         
      1380  -56.16095       0.24250405    -55.918446      0.029520714    208.45478     -949.23619      3375         
      1390  -56.143953      0.23202919    -55.911924      0.029520714    199.45066      643.3286       3375         
      1400  -56.167751      0.25458573    -55.913165      0.029520714    218.8401       1409.8868      3375         
      1410  -56.305456      0.38148064    -55.923976      0.029520714    327.91807      74.815724      3375         
      1420  -56.102955      0.18011859    -55.922837      0.029520714    154.82867     -1598.5705      3375         
      1430  -56.157906      0.25973109    -55.898175      0.029520714    223.26302     -1283.3346      3375         
      1440  -56.237239      0.32902549    -55.908213      0.029520714    282.828        1280.8763      3375         
      1450  -56.246125      0.33952456    -55.9066        0.029520714    291.85292      1552.6839      3375         
      1460  -56.094481      0.19440019    -55.900081      0.029520714    167.10503     -1028.343       3375         
      1470  -56.178622      0.29146333    -55.887159      0.029520714    250.53983     -960.72766      3375         
      1480  -56.231961      0.36027441    -55.871687      0.029520714    309.68935      1148.2572      3375         
      1490  -56.137655      0.27124574    -55.86641       0.029520714    233.16093      749.56395      3375         
      1500  -56.212086      0.34242056    -55.869665      0.029520714    294.3423      -878.54388      3375         
      1510  -56.149914      0.31745377    -55.83246       0.029520714    272.88102     -944.0134       3375         
      1520  -56.08615       0.26947128    -55.816679      0.029520714    231.63562      254.22718      3375         
      1530  -56.141285      0.32453906    -55.816746      0.029520714    278.97149      908.21443      3375         
      1540  -56.230253      0.43773118    -55.792522      0.029520714    376.27064     -520.86406      3375         
      1550  -56.012037      0.24704306    -55.764994      0.029520714    212.35647     -831.17172      3375         
      1560  -56.140044      0.38741726    -55.752626      0.029520714    333.02115      1372.4383      3375         
      1570  -56.155955      0.41861509    -55.737339      0.029520714    359.83858      1032.804       3375         
      1580  -56.063043      0.34439775    -55.718645      0.029520714    296.04188     -1811.0143      3375         
      1590  -56.018222      0.32796045    -55.690262      0.029520714    281.9125      -1295.9672      3375         
      1600  -56.194016      0.51943157    -55.674585      0.029520714    446.49972      1118.609       3375         
      1610  -56.046         0.38809062    -55.657909      0.029520714    333.59997      1709.5792      3375         
      1620  -56.093178      0.41723249    -55.675945      0.029520714    358.65011     -45.261746      3375         
      1630  -56.007183      0.3837353     -55.623448      0.029520714    329.85616     -2077.4468      3375         
      1640  -56.079078      0.46942265    -55.609655      0.029520714    403.51241     -517.86727      3375         
      1650  -56.064566      0.44781792    -55.616748      0.029520714    384.94114      1768.4208      3375         
      1660  -56.034378      0.41812925    -55.616248      0.029520714    359.42096      92.487406      3375         
      1670  -56.023787      0.41084003    -55.612947      0.029520714    353.1552      -910.08018      3375         
      1680  -56.074113      0.46640991    -55.607703      0.029520714    400.92267      985.59296      3375         
      1690  -56.001606      0.38937744    -55.612228      0.029520714    334.70611      501.5002       3375         
      1700  -56.018473      0.39832764    -55.620145      0.029520714    342.39963     -1275.7857      3375         
      1710  -56.047904      0.42725144    -55.620653      0.029520714    367.26233     -911.1019       3375         
      1720  -56.100168      0.47536304    -55.624805      0.029520714    408.61872      427.19609      3375         
      1730  -56.002142      0.36255554    -55.639586      0.029520714    311.65019      1770.7118      3375         
      1740  -56.115827      0.45027152    -55.665555      0.029520714    387.05023      253.37234      3375         
      1750  -56.03208       0.38639242    -55.645688      0.029520714    332.1402      -1917.5678      3375         
      1760  -56.178859      0.51163075    -55.667229      0.029520714    439.79419     -298.20334      3375         
      1770  -56.021335      0.33129721    -55.690038      0.029520714    284.78075      1886.9038      3375         
      1780  -56.129162      0.41185994    -55.717302      0.029520714    354.03191     -197.81145      3375         
      1790  -56.043903      0.30853392    -55.735369      0.029520714    265.21359     -1691.5033      3375         
      1800  -56.170991      0.44277553    -55.728215      0.029520714    380.60673      23.25439       3375         
      1810  -56.053856      0.29340916    -55.760446      0.029520714    252.21245      1289.2269      3375         
      1820  -56.208531      0.41935586    -55.789176      0.029520714    360.47535      801.40667      3375         
      1830  -56.074482      0.26120129    -55.81328       0.029520714    224.52679     -560.36775      3375         
      1840  -56.14819       0.33236288    -55.815827      0.029520714    285.69679     -1258.1463      3375         
      1850  -56.098116      0.25944694    -55.838669      0.029520714    223.01877      469.04729      3375         
      1860  -56.253095      0.3930471     -55.860048      0.029520714    337.86052      249.33517      3375         
      1870  -56.128505      0.25700134    -55.871504      0.029520714    220.91654     -1063.2514      3375         
      1880  -56.234468      0.34296206    -55.891506      0.029520714    294.80777      531.94722      3375         
      1890  -56.158993      0.24844396    -55.910549      0.029520714    213.56068      1553.5624      3375         
      1900  -56.208672      0.28067127    -55.928         0.029520714    241.26305     -165.24061      3375         
      1910  -56.189392      0.24955209    -55.93984       0.029520714    214.51322     -1358.1904      3375         
      1920  -56.282933      0.35394657    -55.928987      0.029520714    304.24998     -854.5574       3375         
      1930  -56.17323       0.21801159    -55.955218      0.029520714    187.40123      924.40373      3375         
      1940  -56.174491      0.20855144    -55.96594       0.029520714    179.26935      1368.3747      3375         
      1950  -56.238171      0.25791608    -55.980255      0.029520714    221.70285     -672.91964      3375         
      1960  -56.242853      0.27495873    -55.967894      0.029520714    236.35259     -934.16626      3375         
      1970  -56.196391      0.21918357    -55.977207      0.029520714    188.40865      557.47151      3375         
      1980  -56.191655      0.20901646    -55.982639      0.029520714    179.66908      203.67121      3375         
      1990  -56.257938      0.27167219    -55.986265      0.029520714    233.5275      -732.32821      3375         
      2000  -56.174439      0.1896392     -55.9848        0.029520714    163.01252      29.674067      3375         
      2010  -56.221489      0.24206182    -55.979427      0.029520714    208.07464      1048.6041      3375         
      2020  -56.230469      0.24954986    -55.980919      0.029520714    214.5113       684.57286      3375         
      2030  -56.26603       0.29712504    -55.968905      0.029520714    255.40659     -936.23384      3375         
      2040  -56.132498      0.19416949    -55.938329      0.029520714    166.90673     -1306.1604      3375         
      2050  -56.222999      0.30162185    -55.921377      0.029520714    259.27202      529.76168      3375         
      2060  -56.187705      0.29846393    -55.889241      0.029520714    256.5575       1348.0671      3375         
      2070  -56.164891      0.3178759     -55.847015      0.029520714    273.24389     -921.33656      3375         
      2080  -56.133788      0.35354281    -55.780245      0.029520714    303.90292     -792.46407      3375         
      2090  -56.144943      0.39463069    -55.750313      0.029520714    339.22176      1419.1821      3375         
      2100  -56.042949      0.32957961    -55.71337       0.029520714    283.30432      743.33673      3375         
      2110  -56.070139      0.37094617    -55.699193      0.029520714    318.86272     -962.24409      3375         
      2120  -56.12577       0.4613659     -55.664404      0.029520714    396.58688     -1485.0969      3375         
      2130  -56.033426      0.41172201    -55.621704      0.029520714    353.91334      114.16347      3375         
      2140  -56.021488      0.40842776    -55.61306       0.029520714    351.08163      1741.5464      3375         
      2150  -56.062759      0.45754923    -55.605209      0.029520714    393.3061       75.107151      3375         
      2160  -56.004727      0.42606012    -55.578667      0.029520714    366.23828     -1181.4699      3375         
      2170  -55.959756      0.39780848    -55.561947      0.029520714    341.95337      717.3307       3375         
      2180  -56.116377      0.55177066    -55.564607      0.029520714    474.29817      376.44252      3375         
      2190  -56.031341      0.48799932    -55.543341      0.029520714    419.48078     -1662.3718      3375         
      2200  -55.964241      0.4302392     -55.534001      0.029520714    369.83059     -647.50017      3375         
      2210  -55.928238      0.38423643    -55.544002      0.029520714    330.28693      1324.4232      3375         
      2220  -56.076996      0.53576585    -55.541231      0.029520714    460.54055      1795.586       3375         
      2230  -56.19375       0.62151459    -55.572236      0.029520714    534.24957     -196.0321       3375         
      2240  -55.911034      0.35195073    -55.559083      0.029520714    302.53438     -2302.1421      3375         
      2250  -56.058227      0.50742774    -55.550799      0.029520714    436.18132     -570.8082       3375         
      2260  -56.048974      0.45990368    -55.58907       0.029520714    395.32996      1924.1218      3375         
      2270  -56.093672      0.47185309    -55.621819      0.029520714    405.6016       364.59179      3375         
      2280  -55.933233      0.30337621    -55.629856      0.029520714    260.78006     -1032.0185      3375         
      2290  -56.144957      0.50260694    -55.64235       0.029520714    432.03739      232.61714      3375         
      2300  -56.031441      0.36154307    -55.669898      0.029520714    310.77988      389.69798      3375         
      2310  -56.096834      0.40603313    -55.690801      0.029520714    349.02322     -556.23079      3375         
      2320  -55.994007      0.27979722    -55.714209      0.029520714    240.51172     -395.27225      3375         
      2330  -56.180043      0.44450631    -55.735536      0.029520714    382.09449     -93.80587       3375         
      2340  -56.001797      0.25005895    -55.751738      0.029520714    214.94892      1108.0812      3375         
      2350  -56.151487      0.37893894    -55.772549      0.029520714    325.73325      720.86716      3375         
      2360  -56.2037        0.41430238    -55.789397      0.029520714    356.13141     -987.58598      3375         
      2370  -56.135445      0.33298711    -55.802458      0.029520714    286.23338     -310.70269      3375         
      2380  -56.109464      0.28536583    -55.824098      0.029520714    245.29846      755.2089       3375         
      2390  -56.229776      0.37601208    -55.853764      0.029520714    323.21734     -488.71005      3375         
      2400  -56.18288       0.32933882    -55.853541      0.029520714    283.09733     -1247.0117      3375         
      2410  -56.105447      0.25695411    -55.848493      0.029520714    220.87594      163.4225       3375         
      2420  -56.176977      0.30681898    -55.870158      0.029520714    263.73944      1571.8506      3375         
      2430  -56.241425      0.35552091    -55.885904      0.029520714    305.60327      1109.1618      3375         
      2440  -56.175254      0.26862234    -55.906632      0.029520714    230.90588     -1128.8852      3375         
      2450  -56.088044      0.19564811    -55.892396      0.029520714    168.17774     -1528.241       3375         
      2460  -56.194501      0.29434156    -55.900159      0.029520714    253.01393      419.30671      3375         
      2470  -56.194164      0.28424996    -55.909914      0.029520714    244.33926      490.45534      3375         
      2480  -56.151667      0.24046164    -55.911205      0.029520714    206.69913     -283.79241      3375         
      2490  -56.213101      0.30011391    -55.912987      0.029520714    257.9758       502.23405      3375         
      2500  -56.222698      0.30713855    -55.915559      0.029520714    264.01414      688.44699      3375         
      2510  -56.172534      0.25247607    -55.920058      0.029520714    217.02665     -375.1129       3375         
      2520  -56.166109      0.25917811    -55.906931      0.029520714    222.78768     -1360.107       3375         
      2530  -56.22754       0.33383151    -55.893708      0.029520714    286.95922     -502.42053      3375         
      2540  -56.184038      0.282258      -55.90178       0.029520714    242.62699      1654.7923      3375         
      2550  -56.213842      0.31396105    -55.899881      0.029520714    269.87871      1064.9743      3375         
      2560  -56.163757      0.26560871    -55.898148      0.029520714    228.31538     -1252.9708      3375         
      2570  -56.239686      0.36615178    -55.873534      0.029520714    314.74149     -992.65752      3375         
      2580  -56.137248      0.27495304    -55.862295      0.029520714    236.3477       628.60974      3375         
      2590  -56.128456      0.26947214    -55.858984      0.029520714    231.63636      708.13467      3375         
      2600  -56.155533      0.29833482    -55.857198      0.029520714    256.44651     -374.9067       3375         
      2610  -56.150564      0.32856211    -55.822002      0.029520714    282.42968     -725.00494      3375         
      2620  -56.065826      0.26139655    -55.804429      0.029520714    224.69463      833.22725      3375         
      2630  -56.252189      0.46203719    -55.790152      0.029520714    397.16391      807.84926      3375         
      2640  -56.076773      0.32193164    -55.754841      0.029520714    276.73017     -738.16005      3375         
      2650  -55.993249      0.25054615    -55.742703      0.029520714    215.36771     -978.4024       3375         
      2660  -56.132749      0.41464736    -55.718102      0.029520714    356.42795      430.83941      3375         
      2670  -56.183175      0.49724168    -55.685933      0.029520714    427.42545      614.76152      3375         
      2680  -56.084775      0.41586299    -55.668912      0.029520714    357.4729      -614.14445      3375         
      2690  -55.973226      0.34517274    -55.628053      0.029520714    296.70806      11.979772      3375         
      2700  -56.137533      0.51367046    -55.623862      0.029520714    441.54751      1394.677       3375         
      2710  -56.093177      0.48418742    -55.60899       0.029520714    416.2041       401.38131      3375         
      2720  -55.904407      0.28865837    -55.615749      0.029520714    248.12871     -1578.0496      3375         
      2730  -55.966474      0.39324546    -55.573229      0.029520714    338.03103     -1877.6288      3375         
      2740  -56.320766      0.74118238    -55.579584      0.029520714    637.11516      533.37461      3375         
      2750  -55.882555      0.30248044    -55.580074      0.029520714    260.01006      2642.7974      3375         
      2760  -55.937228      0.34915182    -55.588077      0.029520714    300.12844      343.90753      3375         
      2770  -56.098687      0.4876054     -55.611081      0.029520714    419.14217     -1693.0088      3375         
      2780  -56.032052      0.46778625    -55.564266      0.029520714    402.10577     -252.5094       3375         
      2790  -55.849573      0.26133792    -55.588235      0.029520714    224.64423      323.79911      3375         
      2800  -56.2065        0.59873725    -55.607763      0.029520714    514.67032     -408.50774      3375         
      2810  -55.974366      0.37199241    -55.602374      0.029520714    319.76206     -174.01227      3375         
      2820  -55.951959      0.33429339    -55.617666      0.029520714    287.35625      630.47909      3375         
      2830  -56.149894      0.50899345    -55.6409        0.029520714    437.52719      1054.2853      3375         
      2840  -56.201617      0.55776748    -55.64385       0.029520714    479.453       -494.21515      3375         
      2850  -55.883706      0.23514403    -55.648562      0.029520714    202.12816     -1698.741       3375         
      2860  -56.100593      0.43796164    -55.662632      0.029520714    376.46875      198.18377      3375         
      2870  -56.215447      0.53490947    -55.680538      0.029520714    459.80442      1639.3837      3375         
      2880  -56.043779      0.33635439    -55.707425      0.029520714    289.12786     -61.32283       3375         
      2890  -56.066653      0.35222415    -55.714429      0.029520714    302.7694      -1226.4658      3375         
      2900  -56.22452       0.52703622    -55.697484      0.029520714    453.03662      350.37146      3375         
      2910  -56.033789      0.30422785    -55.729561      0.029520714    261.51212      747.11317      3375         
      2920  -55.981524      0.23815221    -55.743372      0.029520714    204.71397      29.436451      3375         
      2930  -56.153432      0.40687517    -55.746557      0.029520714    349.74703     -1141.7206      3375         
      2940  -56.122257      0.37504167    -55.747215      0.029520714    322.38318     -692.34483      3375         
      2950  -56.094041      0.34313471    -55.750906      0.029520714    294.95618      1520.5652      3375         
      2960  -56.149288      0.38734437    -55.761943      0.029520714    332.9585       816.54699      3375         
      2970  -56.01417       0.24963945    -55.764531      0.029520714    214.58832     -866.43404      3375         
      2980  -56.155041      0.38789443    -55.767146      0.029520714    333.43132      19.374853      3375         
      2990  -56.152668      0.37707153    -55.775596      0.029520714    324.12804      116.12037      3375         
      3000  -56.138973      0.35562223    -55.783351      0.029520714    305.69037     -781.89768      3375         
      3010  -56.13779       0.36612416    -55.771665      0.029520714    314.71775     -264.28791      3375         
      3020  -56.206455      0.4356127     -55.770842      0.029520714    374.44961      359.44148      3375         
      3030  -56.074108      0.29147204    -55.782636      0.029520714    250.54732      1409.4105      3375         
      3040  -56.159499      0.36479056    -55.794709      0.029520714    313.5714       701.11577      3375         
      3050  -56.117942      0.3159854     -55.801957      0.029520714    271.61882     -2131.3479      3375         
      3060  -56.132929      0.3577795     -55.775149      0.029520714    307.54474     -1345.181       3375         
      3070  -56.070913      0.2789479     -55.791966      0.029520714    239.78165      1468.112       3375         
      3080  -56.154492      0.35818133    -55.796311      0.029520714    307.89015      825.57561      3375         
      3090  -56.133784      0.33418133    -55.799603      0.029520714    287.25992     -138.95224      3375         
      3100  -56.177123      0.36871034    -55.808412      0.029520714    316.94081     -399.47276      3375         
      3110  -56.094076      0.30998094    -55.784095      0.029520714    266.45744     -194.83647      3375         
      3120  -56.101718      0.3053155     -55.796402      0.029520714    262.44706      575.71838      3375         
      3130  -56.096177      0.29042953    -55.805748      0.029520714    249.65118     -423.5993       3375         
      3140  -56.192905      0.41058186    -55.782323      0.029520714    352.93327     -917.08781      3375         
      3150  -56.135859      0.34350922    -55.792349      0.029520714    295.27811      924.70595      3375         
      3160  -56.144474      0.34178894    -55.802685      0.029520714    293.79937      574.88051      3375         
      3170  -56.201965      0.41858057    -55.783384      0.029520714    359.80891     -947.56075      3375         
      3180  -56.134129      0.34754503    -55.786584      0.029520714    298.74727     -151.11742      3375         
      3190  -56.049014      0.26235303    -55.786661      0.029520714    225.51681      787.96567      3375         
      3200  -56.127373      0.33908585    -55.788287      0.029520714    291.47581      331.1333       3375         
      3210  -56.209334      0.41020225    -55.799132      0.029520714    352.60697     -721.66739      3375         
      3220  -56.037802      0.26006792    -55.777734      0.029520714    223.55255     -798.15041      3375         
      3230  -56.142966      0.36892853    -55.774038      0.029520714    317.12837      819.70554      3375         
      3240  -56.101976      0.31972107    -55.782255      0.029520714    274.82998      1285.5785      3375         
      3250  -56.140145      0.36233552    -55.777809      0.029520714    311.46106     -595.41117      3375         
      3260  -56.056456      0.29673545    -55.75972       0.029520714    255.0717      -1316.0527      3375         
      3270  -56.131402      0.36794624    -55.763456      0.029520714    316.284       -100.01837      3375         
      3280  -56.117777      0.38161584    -55.736162      0.029520714    328.03429      777.81325      3375         
      3290  -56.179913      0.45226138    -55.727651      0.029520714    388.7607       289.59979      3375         
      3300  -56.086761      0.37049372    -55.716267      0.029520714    318.4738       177.86793      3375         
      3310  -56.041203      0.34475975    -55.696443      0.029520714    296.35305      413.7649       3375         
      3320  -56.086716      0.40229975    -55.684416      0.029520714    345.81403     -246.18542      3375         
      3330  -56.092886      0.40952222    -55.683364      0.029520714    352.02242     -1147.7306      3375         
      3340  -56.093787      0.46721075    -55.626576      0.029520714    401.61107     -798.68312      3375         
      3350  -56.118196      0.49586261    -55.622333      0.029520714    426.24001      972.71943      3375         
      3360  -56.076912      0.46331713    -55.613595      0.029520714    398.26414      1619.5565      3375         
      3370  -55.915552      0.31667936    -55.598872      0.029520714    272.21535     -124.86988      3375         
      3380  -56.05522       0.46597125    -55.589249      0.029520714    400.54561     -1505.6331      3375         
      3390  -56.032528      0.46770954    -55.564818      0.029520714    402.03983     -285.20705      3375         
      3400  -55.884801      0.32498478    -55.559816      0.029520714    279.35463      705.3926       3375         
      3410  -56.04521       0.48532012    -55.55989       0.029520714    417.17776     -58.033393      3375         
      3420  -56.164735      0.61648425    -55.548251      0.029520714    529.92553     -360.39214      3375         
      3430  -55.849613      0.30379136    -55.545822      0.029520714    261.13691      121.07045      3375         
      3440  -55.968783      0.42348708    -55.545296      0.029520714    364.02652      622.24475      3375         
      3450  -56.216042      0.66858576    -55.547457      0.029520714    574.71161      354.76815      3375         
      3460  -55.912445      0.35684431    -55.555601      0.029520714    306.74086     -656.58335      3375         
      3470  -55.880304      0.32815279    -55.552151      0.029520714    282.07783     -518.75692      3375         
      3480  -56.134213      0.56539324    -55.56882       0.029520714    486.00805      383.14526      3375         
      3490  -56.157038      0.558655      -55.598383      0.029520714    480.21591     -429.54859      3375         
      3500  -55.994604      0.40058938    -55.594015      0.029520714    344.34381     -355.26698      3375         
      3510  -56.098584      0.47088761    -55.627696      0.029520714    404.77167      1050.9379      3375         
      3520  -56.061629      0.40254824    -55.659081      0.029520714    346.02764      656.85603      3375         
      3530  -56.107345      0.42128521    -55.68606       0.029520714    362.1338      -388.16502      3375         
      3540  -56.094726      0.37088259    -55.723844      0.029520714    318.80806     -1217.8816      3375         
      3550  -56.080112      0.3461781     -55.733934      0.029520714    297.57226     -795.97105      3375         
      3560  -56.076374      0.31108788    -55.765286      0.029520714    267.40895      1527.2966      3375         
      3570  -56.145575      0.35352885    -55.792047      0.029520714    303.89091      1222.3512      3375         
      3580  -56.062593      0.25478241    -55.80781       0.029520714    219.00916     -480.56103      3375         
      3590  -56.075885      0.25683111    -55.819054      0.029520714    220.77021     -577.03691      3375         
      3600  -56.223183      0.37629809    -55.846885      0.029520714    323.46319     -848.22747      3375         
      3610  -56.192319      0.3544342     -55.837885      0.029520714    304.66915     -417.1422       3375         
      3620  -56.110394      0.25312597    -55.857268      0.029520714    217.5853       877.17435      3375         
      3630  -56.19373       0.31782518    -55.875904      0.029520714    273.20029      689.20535      3375         
      3640  -56.208425      0.33914769    -55.869277      0.029520714    291.52897      583.12675      3375         
      3650  -56.148442      0.26580015    -55.882642      0.029520714    228.47994     -95.194996      3375         
      3660  -56.239861      0.34230985    -55.897551      0.029520714    294.24714     -1565.3066      3375         
      3670  -56.200861      0.33129321    -55.869568      0.029520714    284.77731     -281.94012      3375         
      3680  -56.135528      0.2463676     -55.88916       0.029520714    211.77585      933.9846       3375         
      3690  -56.184926      0.28551574    -55.89941       0.029520714    245.42732      124.17852      3375         
      3700  -56.199994      0.31466048    -55.885333      0.029520714    270.47993     -32.161037      3375         
      3710  -56.105342      0.21108593    -55.894256      0.029520714    181.44798     -201.359        3375         
      3720  -56.187069      0.30299685    -55.884073      0.029520714    260.45396     -118.91003      3375         
      3730  -56.131635      0.25158855    -55.880047      0.029520714    216.26375      749.87213      3375         
      3740  -56.115536      0.22840544    -55.887131      0.029520714    196.33571     -347.85815      3375         
      3750  -56.177081      0.30597567    -55.871105      0.029520714    263.01454     -816.28667      3375         
      3760  -56.171928      0.30732924    -55.864599      0.029520714    264.17805      430.44008      3375         
      3770  -56.136401      0.2711754     -55.865226      0.029520714    233.10047      146.81836      3375         
      3780  -56.19          0.34717975    -55.84282       0.029520714    298.43327      10.430608      3375         
      3790  -56.165991      0.32583259    -55.840158      0.029520714    280.0834       560.58527      3375         
      3800  -56.121604      0.29081771    -55.830786      0.029520714    249.98486     -260.50941      3375         
      3810  -56.202727      0.38932166    -55.813406      0.029520714    334.65816     -735.42204      3375         
      3820  -56.210453      0.40430561    -55.806148      0.029520714    347.53826     -488.79395      3375         
      3830  -56.053019      0.26930438    -55.783714      0.029520714    231.49215     -37.007178      3375         
      3840  -56.084194      0.30583426    -55.778359      0.029520714    262.89297      1708.4964      3375         
      3850  -56.260959      0.49200797    -55.768951      0.029520714    422.92659      1159.2325      3375         
      3860  -56.093662      0.34426778    -55.749395      0.029520714    295.93016     -1578.152       3375         
      3870  -56.050583      0.3226503     -55.727933      0.029520714    277.34793     -1559.6001      3375         
      3880  -56.149484      0.43610258    -55.713381      0.029520714    374.87071      75.247035      3375         
      3890  -56.051632      0.36131982    -55.690312      0.029520714    310.58798      842.78844      3375         
      3900  -55.96535       0.28319779    -55.682152      0.029520714    243.43482      1187.0804      3375         
      3910  -56.146626      0.48874295    -55.657883      0.029520714    420.12         335.84882      3375         
      3920  -56.042943      0.42285324    -55.62009       0.029520714    363.48167     -659.92241      3375         
      3930  -56.049067      0.43971303    -55.609354      0.029520714    377.97423     -779.53977      3375         
      3940  -56.074006      0.50496917    -55.569037      0.029520714    434.06795     -988.07883      3375         
      3950  -55.976279      0.43167013    -55.544609      0.029520714    371.06061     -20.445024      3375         
      3960  -56.079187      0.55869034    -55.520496      0.029520714    480.24629      1845.1553      3375         
      3970  -56.036662      0.54686451    -55.489797      0.029520714    470.08089      821.83167      3375         
      3980  -55.857521      0.3948491     -55.462672      0.029520714    339.40951     -1093.6899      3375         
      3990  -56.022294      0.57741491    -55.444879      0.029520714    496.34179     -728.78987      3375         
      4000  -56.076802      0.68777183    -55.38903       0.029520714    591.20383      434.12121      3375         
      4010  -55.857625      0.47984705    -55.377777      0.029520714    412.47315      386.56981      3375         
      4020  -55.95929       0.57311928    -55.386171      0.029520714    492.6493      -773.53302      3375         
      4030  -55.855025      0.58107912    -55.273946      0.029520714    499.49152     -807.08048      3375         
      4040  -55.886621      0.59160185    -55.295019      0.029520714    508.53679      622.14834      3375         
      4050  -55.811516      0.53920823    -55.272308      0.029520714    463.4996       1572.0915      3375         
      4060  -55.864796      0.61979787    -55.244998      0.029520714    532.77389      284.34569      3375         
      4070  -55.867217      0.61501974    -55.252197      0.029520714    528.66664     -1342.8092      3375         
      4080  -55.736131      0.51727987    -55.218851      0.029520714    444.65013     -884.12293      3375         
      4090  -55.78554       0.56379593    -55.221744      0.029520714    484.63501      41.153896      3375         
      4100  -55.94351       0.70298886    -55.240521      0.029520714    604.28428     -24.496993      3375         
      4110  -55.811319      0.55303672    -55.258283      0.029520714    475.38647      1295.9961      3375         
      4120  -55.970015      0.66354568    -55.306469      0.029520714    570.3792       1415.6138      3375         
      4130  -56.102603      0.69728848    -55.405314      0.029520714    599.38428     -1070.5835      3375         
      4140  -55.815154      0.43006044    -55.385094      0.029520714    369.67693     -1744.9612      3375         
      4150  -55.907231      0.44953438    -55.457696      0.029520714    386.41659     -962.74329      3375         
      4160  -56.103329      0.5769518     -55.526377      0.029520714    495.94371      657.89741      3375         
      4170  -56.096484      0.52499237    -55.571492      0.029520714    451.27974      2581.9079      3375         
      4180  -56.054729      0.43037035    -55.624359      0.029520714    369.94333      286.53701      3375         
      4190  -56.068229      0.40449585    -55.663733      0.029520714    347.70179     -1820.4842      3375         
      4200  -56.073369      0.41350637    -55.659863      0.029520714    355.44717     -206.94415      3375         
      4210  -56.061698      0.3579446     -55.703753      0.029520714    307.68666     -167.07822      3375         
      4220  -56.080749      0.35147219    -55.729276      0.029520714    302.12303      4.8329156      3375         
      4230  -56.097313      0.35702868    -55.740284      0.029520714    306.89934      744.23299      3375         
      4240  -56.082721      0.31927048    -55.763451      0.029520714    274.44266      5.7292411      3375         
      4250  -56.124876      0.36231216    -55.762564      0.029520714    311.44098      160.81617      3375         
      4260  -56.150325      0.37037879    -55.779946      0.029520714    318.375        308.80868      3375         
      4270  -56.085696      0.28484689    -55.800849      0.029520714    244.85239     -1027.1513      3375         
      4280  -56.203794      0.39446711    -55.809327      0.029520714    339.08115      13.206188      3375         
      4290  -56.15964       0.3338021     -55.825838      0.029520714    286.93394      940.43615      3375         
      4300  -56.104225      0.26184311    -55.842382      0.029520714    225.0785      -1083.2726      3375         
      4310  -56.224429      0.40264469    -55.821784      0.029520714    346.11054     -233.1449       3375         
      4320  -56.217969      0.36423066    -55.853738      0.029520714    313.09011      1286.8583      3375         
      4330  -56.030204      0.16840003    -55.861804      0.029520714    144.75548      354.58976      3375         
      4340  -56.178723      0.30046174    -55.878261      0.029520714    258.2748      -291.13742      3375         
      4350  -56.196075      0.31315789    -55.882917      0.029520714    269.18832     -1318.7428      3375         
      4360  -56.175205      0.32229084    -55.852914      0.029520714    277.03894     -919.09296      3375         
      4370  -56.147623      0.26540955    -55.882213      0.029520714    228.14418      1803.1792      3375         
      4380  -56.226769      0.33858243    -55.888187      0.029520714    291.04308      1003.2125      3375         
      4390  -56.191641      0.29860291    -55.893038      0.029520714    256.67696     -833.4541       3375         
      4400  -56.109773      0.21238757    -55.897386      0.029520714    182.56686     -136.55227      3375         
      4410  -56.129475      0.24215274    -55.887322      0.029520714    208.15279     -652.55244      3375         
      4420  -56.2595        0.3868454     -55.872654      0.029520714    332.52958     -635.70343      3375         
      4430  -56.136572      0.2513782     -55.885194      0.029520714    216.08293      711.64165      3375         
      4440  -56.171853      0.28889577    -55.882957      0.029520714    248.33277      528.91303      3375         
      4450  -56.240872      0.36195553    -55.878917      0.029520714    311.13443      736.09751      3375         
      4460  -56.219008      0.32450393    -55.894504      0.029520714    278.9413      -24.253811      3375         
      4470  -56.082666      0.23365805    -55.849008      0.029520714    200.85082     -1778.0727      3375         
      4480  -56.166384      0.30618012    -55.860203      0.029520714    263.19028     -269.42776      3375         
      4490  -56.175782      0.32391673    -55.851865      0.029520714    278.43654      1355.711       3375         
      4500  -56.172496      0.32604349    -55.846452      0.029520714    280.26469      93.630657      3375         
      4510  -56.097181      0.25893143    -55.838249      0.029520714    222.57564     -301.7646       3375         
      4520  -56.209372      0.38619522    -55.823177      0.029520714    331.97069      99.280915      3375         
      4530  -56.162964      0.38334749    -55.779617      0.029520714    329.52281      356.24743      3375         
      4540  -56.071507      0.28939523    -55.782112      0.029520714    248.7621       155.94031      3375         
      4550  -56.163478      0.38421592    -55.779262      0.029520714    330.2693      -887.65201      3375         
      4560  -56.138066      0.40818793    -55.729878      0.029520714    350.87547     -955.05049      3375         
      4570  -56.064859      0.33855911    -55.7263        0.029520714    291.02303      772.89516      3375         
      4580  -56.072661      0.37098818    -55.701673      0.029520714    318.89883      982.79938      3375         
      4590  -56.079142      0.40008773    -55.679054      0.029520714    343.9126       220.96828      3375         
      4600  -56.102976      0.44056086    -55.662415      0.029520714    378.70302     -118.35515      3375         
      4610  -56.083359      0.4346194     -55.648739      0.029520714    373.59577     -304.53644      3375         
      4620  -56.021094      0.3928766     -55.628217      0.029520714    337.71396     -832.65585      3375         
      4630  -56.181973      0.5565042     -55.625469      0.029520714    478.3671      -855.81106      3375         
      4640  -56.067399      0.49505942    -55.57234       0.029520714    425.5496       598.82956      3375         
      4650  -55.851145      0.25844607    -55.592699      0.029520714    222.15842      1697.3273      3375         
      4660  -55.997217      0.40026351    -55.596954      0.029520714    344.0637       793.89986      3375         
      4670  -56.123945      0.53835637    -55.585589      0.029520714    462.76734     -1432.6736      3375         
      4680  -55.96127       0.38962375    -55.571646      0.029520714    334.91783     -2123.4201      3375         
      4690  -56.008211      0.44965147    -55.55856       0.029520714    386.51724      559.17676      3375         
      4700  -56.124582      0.54844574    -55.576136      0.029520714    471.4401       1902.6459      3375         
      4710  -55.990108      0.40937004    -55.580738      0.029520714    351.89161      17.716715      3375         
      4720  -56.011673      0.41832299    -55.59335       0.029520714    359.5875      -553.50439      3375         
      4730  -56.051038      0.45314437    -55.597893      0.029520714    389.51971      84.444048      3375         
      4740  -55.976751      0.35494018    -55.62181       0.029520714    305.10408     -387.32353      3375         
      4750  -56.026071      0.40193683    -55.624134      0.029520714    345.50207     -150.92371      3375         
      4760  -56.10022       0.45002988    -55.65019       0.029520714    386.84252     -215.44254      3375         
      4770  -56.07277       0.38802859    -55.684741      0.029520714    333.54664     -62.269404      3375         
      4780  -56.101594      0.39220072    -55.709393      0.029520714    337.13298      1116.3754      3375         
      4790  -56.162002      0.40623207    -55.75577       0.029520714    349.19423      36.724197      3375         
      4800  -56.108743      0.32757943    -55.781164      0.029520714    281.58497     -1013.2957      3375         
      4810  -56.059124      0.2481866     -55.810937      0.029520714    213.33946      654.52619      3375         
      4820  -56.155269      0.31091236    -55.844356      0.029520714    267.25808      294.88444      3375         
      4830  -56.191484      0.3138775     -55.877606      0.029520714    269.80689     -1050.9844      3375         
      4840  -56.097728      0.20794868    -55.88978       0.029520714    178.75122     -152.64533      3375         
      4850  -56.195554      0.2885712     -55.906983      0.029520714    248.05378      495.91212      3375         
      4860  -56.210585      0.29651863    -55.914067      0.029520714    254.88533      1006.4528      3375         
      4870  -56.188162      0.25941471    -55.928747      0.029520714    222.99106      638.19524      3375         
      4880  -56.155113      0.21147846    -55.943635      0.029520714    181.7854      -1558.5295      3375         
      4890  -56.272762      0.3462345     -55.926527      0.029520714    297.62074     -1103.5747      3375         
      4900  -56.197274      0.25998297    -55.937291      0.029520714    223.47953      988.30754      3375         
      4910  -56.152622      0.20874996    -55.943872      0.029520714    179.44         208.84783      3375         
      4920  -56.179138      0.24829346    -55.930844      0.029520714    213.43131      320.32102      3375         
      4930  -56.263835      0.32631882    -55.937516      0.029520714    280.50136      696.18634      3375         
      4940  -56.128092      0.19396257    -55.93413       0.029520714    166.72886     -557.37924      3375         
      4950  -56.227455      0.3010559     -55.926399      0.029520714    258.78554     -639.82977      3375         
      4960  -56.272241      0.34178       -55.930461      0.029520714    293.79168     -695.44712      3375         
      4970  -56.112275      0.21022467    -55.902051      0.029520714    180.70765     -68.727731      3375         
      4980  -56.130261      0.22156401    -55.908697      0.029520714    190.45486      1922.3279      3375         
      4990  -56.268738      0.35548862    -55.913249      0.029520714    305.57551      395.9173       3375         
      5000  -56.152823      0.26444549    -55.888377      0.029520714    227.31548     -1580.0892      3375         
      5010  -56.130877      0.25219974    -55.878677      0.029520714    216.78912     -392.08633      3375         
      5020  -56.196544      0.32285296    -55.873691      0.029520714    277.52213      177.64378      3375         
      5030  -56.197581      0.34693039    -55.85065       0.029520714    298.21892      374.28923      3375         
      5040  -56.179596      0.33673397    -55.842862      0.029520714    289.45415      321.42187      3375         
      5050  -56.145961      0.31948412    -55.826477      0.029520714    274.6263      -521.26027      3375         
      5060  -56.139246      0.33240883    -55.806837      0.029520714    285.73629      582.47334      3375         
      5070  -56.182988      0.38144277    -55.801545      0.029520714    327.88552      602.71675      3375         
      5080  -56.10115       0.31775781    -55.783393      0.029520714    273.14238     -1367.7976      3375         
      5090  -56.034619      0.27437247    -55.760247      0.029520714    235.84865     -386.86771      3375         
      5100  -56.191166      0.43886409    -55.752302      0.029520714    377.24449      794.85573      3375         
      5110  -56.143165      0.40668145    -55.736484      0.029520714    349.58051     -133.55695      3375         
      5120  -55.937398      0.21018999    -55.727208      0.029520714    180.67784      56.421364      3375         
      5130  -56.083133      0.36795545    -55.715177      0.029520714    316.29191      391.13088      3375         
      5140  -56.228416      0.53370522    -55.694711      0.029520714    458.76926      543.66073      3375         
      5150  -56.034282      0.33962606    -55.694655      0.029520714    291.94017      266.70587      3375         
      5160  -55.928418      0.24561895    -55.682799      0.029520714    211.13232     -1438.1354      3375         
      5170  -56.130173      0.47182924    -55.658344      0.029520714    405.58109     -1361.4513      3375         
      5180  -56.10011       0.4365224     -55.663587      0.029520714    375.23159      1348.5272      3375         
      5190  -55.964929      0.31057587    -55.654354      0.029520714    266.96883      1575.9214      3375         
      5200  -56.10302       0.45172904    -55.651291      0.029520714    388.3031      -134.53892      3375         
      5210  -56.223501      0.56909296    -55.654409      0.029520714    489.1883      -668.05641      3375         
      5220  -55.961754      0.33280998    -55.628944      0.029520714    286.08112     -567.34804      3375         
      5230  -56.04683       0.40007509    -55.646755      0.029520714    343.90173     -536.76729      3375         
      5240  -56.135559      0.47396699    -55.661592      0.029520714    407.41869      49.828423      3375         
      5250  -55.975513      0.32953065    -55.645982      0.029520714    283.26223      511.5802       3375         
      5260  -56.000298      0.33875067    -55.661547      0.029520714    291.18769      915.92221      3375         
      5270  -56.186867      0.50665028    -55.680216      0.029520714    435.51302      498.59372      3375         
      5280  -56.010831      0.34334083    -55.66749       0.029520714    295.13336     -1095.6569      3375         
      5290  -56.019879      0.327188      -55.692691      0.029520714    281.2485      -1291.4754      3375         
      5300  -56.100503      0.40012051    -55.700382      0.029520714    343.94078      671.29885      3375         
      5310  -56.122446      0.40845792    -55.713988      0.029520714    351.10755      998.07319      3375         
      5320  -56.107763      0.35454932    -55.753214      0.029520714    304.7681      -397.12726      3375         
      5330  -56.034652      0.28814157    -55.746511      0.029520714    247.68447     -334.54367      3375         
      5340  -56.138132      0.34783722    -55.790295      0.029520714    298.99843      192.4607       3375         
      5350  -56.187837      0.36195899    -55.825878      0.029520714    311.1374       133.91369      3375         
      5360  -56.12521       0.26691006    -55.8583        0.029520714    229.43401     -15.616921      3375         
      5370  -56.156689      0.27651329    -55.880176      0.029520714    237.68888     -593.26197      3375         
      5380  -56.309604      0.3877607     -55.921844      0.029520714    333.31637     -97.696604      3375         
      5390  -56.17729       0.23455819    -55.942732      0.029520714    201.62457      1016.9205      3375         
      5400  -56.21255       0.24484964    -55.9677        0.029520714    210.47103     -11.719548      3375         
      5410  -56.272132      0.27842395    -55.993708      0.029520714    239.33126     -565.07217      3375         
      5420  -56.198789      0.21189227    -55.986897      0.029520714    182.14111      432.56098      3375         
      5430  -56.17091       0.16917218    -56.001738      0.029520714    145.41922     -274.5258       3375         
      5440  -56.278664      0.27452334    -56.004141      0.029520714    235.97833     -806.13444      3375         
      5450  -56.207506      0.21030851    -55.997197      0.029520714    180.77971      152.88448      3375         
      5460  -56.223514      0.21736242    -56.006152      0.029520714    186.84321      409.20817      3375         
      5470  -56.248676      0.24103102    -56.007645      0.029520714    207.18857      1070.5417      3375         
      5480  -56.21961       0.21420648    -56.005403      0.029520714    184.13038      534.61747      3375         
      5490  -56.193198      0.19386098    -55.999337      0.029520714    166.64154     -1627.9662      3375         
      5500  -56.255398      0.26975641    -55.985641      0.029520714    231.88071     -658.00894      3375         
      5510  -56.232595      0.24703897    -55.985556      0.029520714    212.35296      716.9758       3375         
      5520  -56.204005      0.21981968    -55.984185      0.029520714    188.95545     -113.61253      3375         
      5530  -56.209761      0.23716907    -55.972592      0.029520714    203.86886      519.39211      3375         
      5540  -56.269112      0.30951421    -55.959598      0.029520714    266.05624      731.41752      3375         
      5550  -56.223401      0.2835832     -55.939818      0.029520714    243.76612     -587.67872      3375         
      5560  -56.176357      0.24824078    -55.928116      0.029520714    213.38603     -467.21737      3375         
      5570  -56.219753      0.29730509    -55.922448      0.029520714    255.56136     -788.2905       3375         
      5580  -56.207353      0.30533528    -55.902018      0.029520714    262.46406     -100.29127      3375         
      5590  -56.107227      0.21482743    -55.892399      0.029520714    184.66415      1841.5899      3375         
      5600  -56.130624      0.24180945    -55.888815      0.029520714    207.8577       11.74332       3375         
      5610  -56.211948      0.35977867    -55.85217       0.029520714    309.26322     -1224.0532      3375         
      5620  -56.190039      0.34739887    -55.84264       0.029520714    298.62162      364.96726      3375         
      5630  -56.081431      0.24935889    -55.832072      0.029520714    214.34715      153.06804      3375         
      5640  -56.176508      0.35411725    -55.822391      0.029520714    304.3967      -494.54339      3375         
      5650  -56.211535      0.39971493    -55.81182       0.029520714    343.59214     -93.982272      3375         
      5660  -56.06572       0.30155859    -55.764162      0.029520714    259.21764     -97.688021      3375         
      5670  -56.069144      0.29938586    -55.769758      0.029520714    257.34998      797.05326      3375         
      5680  -56.175903      0.41010005    -55.765803      0.029520714    352.51912      683.60594      3375         
      5690  -56.135089      0.38091226    -55.754177      0.029520714    327.42949     -1160.2559      3375         
      5700  -56.153691      0.41063635    -55.743054      0.029520714    352.98012     -652.69555      3375         
      5710  -56.160903      0.42357606    -55.737327      0.029520714    364.103        575.47506      3375         
      5720  -56.097942      0.3815852     -55.716357      0.029520714    328.00795     -138.87209      3375         
      5730  -56.012961      0.29059731    -55.722364      0.029520714    249.7954       287.1484       3375         
      5740  -56.130149      0.41062419    -55.719525      0.029520714    352.96967      790.13105      3375         
      5750  -56.140621      0.42622471    -55.714396      0.029520714    366.37976      84.99651       3375         
      5760  -56.066283      0.33679424    -55.729489      0.029520714    289.50596     -205.12996      3375         
      5770  -56.034463      0.32547507    -55.708988      0.029520714    279.77608     -1291.351       3375         
      5780  -56.100853      0.41800251    -55.68285       0.029520714    359.31201     -1024.9109      3375         
      5790  -56.077388      0.37380512    -55.703583      0.029520714    321.32025      1291.0833      3375         
      5800  -56.054875      0.35030749    -55.704567      0.029520714    301.12185      1613.7112      3375         
      5810  -56.115097      0.40585906    -55.709237      0.029520714    348.87359     -214.78699      3375         
      5820  -56.191548      0.47610109    -55.715447      0.029520714    409.25314     -665.28464      3375         
      5830  -56.095442      0.4149658     -55.680476      0.029520714    356.70168     -483.78158      3375         
      5840  -55.964597      0.25736855    -55.707228      0.029520714    221.2322      -366.6787       3375         
      5850  -56.08749       0.37604029    -55.711449      0.029520714    323.24159      293.64754      3375         
      5860  -56.207868      0.49023492    -55.717633      0.029520714    421.40249      61.49241       3375         
      5870  -56.026431      0.29971966    -55.726712      0.029520714    257.63691      270.18401      3375         
      5880  -56.061408      0.32865623    -55.732751      0.029520714    282.51058      705.06537      3375         
      5890  -56.262146      0.53748528    -55.724661      0.029520714    462.01857     -340.69647      3375         
      5900  -56.019418      0.2722939     -55.747124      0.029520714    234.06192     -857.50354      3375         
      5910  -56.030327      0.27042045    -55.759907      0.029520714    232.45152      228.33062      3375         
      5920  -56.193287      0.4185025     -55.774784      0.029520714    359.74181      208.5353       3375         
      5930  -56.103371      0.30268639    -55.800684      0.029520714    260.18709     -536.8474       3375         
      5940  -55.985414      0.20721299    -55.778201      0.029520714    178.11883      307.70652      3375         
      5950  -56.212769      0.40075967    -55.812009      0.029520714    344.49019      772.52956      3375         
      5960  -56.202691      0.3628209     -55.83987       0.029520714    311.87829      141.35264      3375         
      5970  -56.153135      0.28095653    -55.872178      0.029520714    241.50826     -401.52463      3375         
      5980  -56.143365      0.24970401    -55.893661      0.029520714    214.64381     -1407.4456      3375         
      5990  -56.220545      0.31656932    -55.903975      0.029520714    272.12076     -267.36858      3375         
      6000  -56.198099      0.26426198    -55.933837      0.029520714    227.15774      1914.7864      3375         
      6010  -56.18699       0.22428754    -55.962703      0.029520714    192.79599      550.71095      3375         
      6020  -56.279103      0.29134559    -55.987757      0.029520714    250.43862     -746.25279      3375         
      6030  -56.208936      0.20835307    -56.000583      0.029520714    179.09884     -379.98077      3375         
      6040  -56.17784       0.16159856    -56.016242      0.029520714    138.90899     -813.10794      3375         
      6050  -56.310871      0.29882194    -56.012049      0.029520714    256.86523     -91.567698      3375         
      6060  -56.276626      0.25294702    -56.023679      0.029520714    217.43148      972.15535      3375         
      6070  -56.169824      0.13562988    -56.034194      0.029520714    116.58649      385.52692      3375         
      6080  -56.290116      0.25130367    -56.038812      0.029520714    216.01886      496.86003      3375         
      6090  -56.303066      0.25761288    -56.045453      0.029520714    221.44222     -349.99195      3375         
      6100  -56.167195      0.13192975    -56.035265      0.029520714    113.40588     -1688.8033      3375         
      6110  -56.189564      0.16649391    -56.02307       0.029520714    143.117        277.77429      3375         
      6120  -56.29604       0.26486261    -56.031177      0.029520714    227.67403      1303.9793      3375         
      6130  -56.268375      0.24191857    -56.026456      0.029520714    207.9515      -160.44445      3375         
      6140  -56.216246      0.1955895     -56.020657      0.029520714    168.12736     -363.72164      3375         
      6150  -56.267921      0.2585438     -56.009377      0.029520714    222.24243     -170.71438      3375         
      6160  -56.256513      0.26492529    -55.991588      0.029520714    227.72791      299.1764       3375         
      6170  -56.213469      0.22891311    -55.984556      0.029520714    196.7721       932.55404      3375         
      6180  -56.214106      0.23250232    -55.981604      0.029520714    199.85736     -787.49266      3375         
      6190  -56.195982      0.23140128    -55.96458       0.029520714    198.91091     -1283.2792      3375         
      6200  -56.184706      0.23163341    -55.953073      0.029520714    199.11045      740.08064      3375         
      6210  -56.265009      0.32496858    -55.94004       0.029520714    279.34071      296.86167      3375         
      6220  -56.158954      0.23889739    -55.920057      0.029520714    205.35451      106.12745      3375         
      6230  -56.215942      0.30378637    -55.912156      0.029520714    261.13263      1039.4532      3375         
      6240  -56.144971      0.24314836    -55.901822      0.029520714    209.00862     -571.36837      3375         
      6250  -56.151865      0.25521216    -55.896653      0.029520714    219.37858     -1379.3623      3375         
      6260  -56.1538        0.27047124    -55.883329      0.029520714    232.49518     -327.2081       3375         
      6270  -56.173141      0.31638544    -55.856755      0.029520714    271.9627       319.91199      3375         
      6280  -56.142919      0.28499593    -55.857923      0.029520714    244.9805       1809.0678      3375         
      6290  -56.24703       0.39144156    -55.855589      0.029520714    336.48041      996.43267      3375         
      6300  -56.078492      0.23586998    -55.842622      0.029520714    202.75218     -2172.5829      3375         
      6310  -56.156989      0.32744357    -55.829545      0.029520714    281.46819     -1442.3183      3375         
      6320  -56.225077      0.40729217    -55.817785      0.029520714    350.10548      863.2242       3375         
      6330  -56.11054       0.30206296    -55.808477      0.029520714    259.6512       784.59554      3375         
      6340  -56.200441      0.39248009    -55.807961      0.029520714    337.37312      784.67882      3375         
      6350  -56.128619      0.32792004    -55.800699      0.029520714    281.87776      5.2125546      3375         
      6360  -56.039368      0.24819853    -55.791169      0.029520714    213.34971     -975.81359      3375         
[...]
     48420  -56.19827       0.14791373    -56.050357      0.029520714    127.14561      107.28466      3375         
     48430  -56.320194      0.26221923    -56.057974      0.029520714    225.40181     -1040.8502      3375         
     48440  -56.268032      0.22747706    -56.040555      0.029520714    195.53768     -684.28672      3375         
     48450  -56.225882      0.18700507    -56.038877      0.029520714    160.74824      807.49825      3375         
     48460  -56.296617      0.2599748     -56.036642      0.029520714    223.47251      602.41378      3375         
     48470  -56.220968      0.19135219    -56.029616      0.029520714    164.485       -238.31712      3375         
     48480  -56.161961      0.1349276     -56.027033      0.029520714    115.98281     -370.78209      3375         
     48490  -56.251984      0.24352052    -56.008463      0.029520714    209.32853     -114.25197      3375         
     48500  -56.249854      0.25839789    -55.991456      0.029520714    222.11701      306.29008      3375         
     48510  -56.227986      0.25186892    -55.976117      0.029520714    216.50475     -6.5054901      3375         
     48520  -56.222584      0.28034261    -55.942242      0.029520714    240.98054     -265.3688       3375         
     48530  -56.128455      0.1960569     -55.932398      0.029520714    168.52913      209.62311      3375         
     48540  -56.199361      0.27567374    -55.923687      0.029520714    236.9672       21.501348      3375         
     48550  -56.273051      0.39252104    -55.88053       0.029520714    337.40832     -444.29174      3375         
     48560  -56.145637      0.28411005    -55.861527      0.029520714    244.219        200.81572      3375         
     48570  -56.129894      0.28617123    -55.843723      0.029520714    245.99078      699.98551      3375         
     48580  -56.178993      0.35812909    -55.820864      0.029520714    307.84524      131.93577      3375         
     48590  -56.119591      0.30314471    -55.816446      0.029520714    260.58106     -938.81321      3375         
     48600  -56.133817      0.33573177    -55.798085      0.029520714    288.59266     -737.60167      3375         
     48610  -56.163204      0.3907208     -55.772483      0.029520714    335.86085      844.22653      3375         
     48620  -56.157032      0.38380847    -55.773224      0.029520714    329.91906      877.55253      3375         
     48630  -56.068424      0.31108045    -55.757344      0.029520714    267.40256     -397.25193      3375         
     48640  -55.991081      0.24630839    -55.744772      0.029520714    211.72496     -714.55616      3375         
     48650  -56.129058      0.38380853    -55.745249      0.029520714    329.91911     -253.24649      3375         
     48660  -56.166524      0.43793515    -55.728589      0.029520714    376.44597      867.94238      3375         
     48670  -56.066485      0.34606156    -55.720424      0.029520714    297.47208      637.05869      3375         
     48680  -56.079581      0.35713357    -55.722447      0.029520714    306.9895      -484.69329      3375         
     48690  -56.134137      0.4447747     -55.689362      0.029520714    382.3252       47.391555      3375         
     48700  -56.086804      0.38946785    -55.697336      0.029520714    334.78382     -97.564568      3375         
     48710  -56.146292      0.44045515    -55.705837      0.029520714    378.61215     -1095.119       3375         
     48720  -56.099393      0.41961086    -55.679783      0.029520714    360.69455     -239.96602      3375         
     48730  -56.046665      0.36032105    -55.686344      0.029520714    309.72944      913.45473      3375         
     48740  -56.013927      0.32613144    -55.687795      0.029520714    280.34029      967.36042      3375         
     48750  -56.095606      0.41266741    -55.682938      0.029520714    354.726        288.25498      3375         
     48760  -56.134242      0.44395651    -55.690285      0.029520714    381.62189     -1244.2997      3375         
     48770  -56.089282      0.40599806    -55.683284      0.029520714    348.99308     -851.54949      3375         
     48780  -56.009138      0.32215853    -55.686979      0.029520714    276.92521      1303.365       3375         
     48790  -56.175232      0.46490622    -55.710326      0.029520714    399.63012      291.68225      3375         
     48800  -56.041175      0.34555014    -55.695625      0.029520714    297.03247     -1185.0714      3375         
     48810  -56.004476      0.31309271    -55.691383      0.029520714    269.13229     -12.328873      3375         
     48820  -56.103738      0.39342163    -55.710317      0.029520714    338.18246      666.40791      3375         
     48830  -56.150467      0.42966744    -55.720799      0.029520714    369.33911      248.06514      3375         
     48840  -56.016748      0.28266561    -55.734082      0.029520714    242.97737     -505.14774      3375         
     48850  -56.157887      0.43051185    -55.727375      0.029520714    370.06496     -514.6251       3375         
     48860  -56.183187      0.42699785    -55.756189      0.029520714    367.04435      1096.2804      3375         
     48870  -56.101355      0.33045939    -55.770895      0.029520714    284.06057      439.29334      3375         
     48880  -56.074536      0.28325301    -55.791283      0.029520714    243.4823      -1394.2577      3375         
     48890  -56.204492      0.40229136    -55.802201      0.029520714    345.80682     -459.49973      3375         
     48900  -56.185572      0.35400493    -55.831567      0.029520714    304.30015      1148.7296      3375         
     48910  -56.139123      0.28963916    -55.849483      0.029520714    248.97179      707.07851      3375         
     48920  -56.117704      0.24377275    -55.873931      0.029520714    209.54534     -872.78143      3375         
     48930  -56.149848      0.27052171    -55.879326      0.029520714    232.53856     -1086.3491      3375         
     48940  -56.19868       0.30884664    -55.889833      0.029520714    265.4824       800.19552      3375         
     48950  -56.199874      0.28229844    -55.917576      0.029520714    242.66175      1162.8064      3375         
     48960  -56.206068      0.26381863    -55.942249      0.029520714    226.77663     -682.45664      3375         
     48970  -56.183262      0.24590462    -55.937357      0.029520714    211.37788     -648.66323      3375         
     48980  -56.167258      0.21104524    -55.956213      0.029520714    181.41301      451.53549      3375         
     48990  -56.203071      0.23742133    -55.96565       0.029520714    204.08571      234.30856      3375         
     49000  -56.238974      0.26799086    -55.970983      0.029520714    230.36306     -333.84881      3375         
     49010  -56.256243      0.27471186    -55.981531      0.029520714    236.14038     -206.95256      3375         
     49020  -56.229988      0.25459012    -55.975398      0.029520714    218.84387      825.21641      3375         
     49030  -56.191602      0.20572212    -55.98588       0.029520714    176.83729      561.25969      3375         
     49040  -56.230525      0.2280489     -56.002476      0.029520714    196.02923     -1465.61        3375         
     49050  -56.272969      0.30614263    -55.966827      0.029520714    263.15805     -1007.1642      3375         
     49060  -56.257411      0.27498878    -55.982422      0.029520714    236.37842      1254.8615      3375         
     49070  -56.188268      0.19847185    -55.989796      0.029520714    170.60501      1092.0266      3375         
     49080  -56.154122      0.17477762    -55.979345      0.029520714    150.23761     -438.30062      3375         
     49090  -56.177689      0.20410184    -55.973587      0.029520714    175.4445      -935.54056      3375         
     49100  -56.266956      0.31174046    -55.955216      0.029520714    267.9699      -44.576815      3375         
     49110  -56.284312      0.34100841    -55.943304      0.029520714    293.12843      1016.8569      3375         
     49120  -56.175986      0.23625545    -55.939731      0.029520714    203.08352     -174.7655       3375         
     49130  -56.05956       0.13883721    -55.920723      0.029520714    119.34349     -1082.5897      3375         
     49140  -56.119818      0.2296549     -55.890163      0.029520714    197.40974      579.84237      3375         
     49150  -56.268803      0.39019647    -55.878607      0.029520714    335.41014      454.91459      3375         
     49160  -56.275537      0.4508996     -55.824637      0.029520714    387.59012     -733.61706      3375         
     49170  -56.040857      0.25289022    -55.787967      0.029520714    217.38265     -33.01128       3375         
     49180  -56.057991      0.28875991    -55.769231      0.029520714    248.21599      541.81148      3375         
     49190  -56.092913      0.34763583    -55.745277      0.029520714    298.82531      835.0913       3375         
     49200  -56.220233      0.49428982    -55.725943      0.029520714    424.88805     -590.76196      3375         
     49210  -56.10007       0.41288688    -55.687183      0.029520714    354.91465     -1768.2911      3375         
     49220  -56.210455      0.53421934    -55.676236      0.029520714    459.21119      773.49099      3375         
     49230  -55.980517      0.30845727    -55.67206       0.029520714    265.1477       2072.1255      3375         
     49240  -56.001418      0.30403527    -55.697382      0.029520714    261.34658     -816.44079      3375         
     49250  -55.922751      0.26556447    -55.657187      0.029520714    228.27735     -1879.6881      3375         
     49260  -56.191897      0.54367892    -55.648218      0.029520714    467.34257      166.24518      3375         
     49270  -56.049224      0.38893777    -55.660286      0.029520714    334.32817      1558.8705      3375         
     49280  -56.031788      0.37546948    -55.656318      0.029520714    322.75092      648.43242      3375         
     49290  -56.042263      0.36554397    -55.676719      0.029520714    314.21902     -1102.969       3375         
     49300  -56.110169      0.45856486    -55.651604      0.029520714    394.17912     -513.12212      3375         
     49310  -55.995161      0.3317915     -55.663369      0.029520714    285.20564      1206.5391      3375         
     49320  -56.256052      0.5781216     -55.67793       0.029520714    496.94926     -355.56304      3375         
     49330  -56.042221      0.37437835    -55.667843      0.029520714    321.813       -1133.4017      3375         
     49340  -56.066762      0.38022807    -55.686534      0.029520714    326.84138      511.84059      3375         
     49350  -56.017231      0.3139154     -55.703316      0.029520714    269.83947      1446.4986      3375         
     49360  -56.226641      0.51475158    -55.711889      0.029520714    442.47684     -580.07046      3375         
     49370  -56.129834      0.41805256    -55.711782      0.029520714    359.35504     -1671.86        3375         
     49380  -56.104569      0.38311085    -55.721458      0.029520714    329.31939      411.99918      3375         
     49390  -55.943206      0.19503557    -55.748171      0.029520714    167.6512       1773.4517      3375         
     49400  -56.209842      0.43740983    -55.772432      0.029520714    375.99441     -77.066523      3375         
     49410  -56.06811       0.29179642    -55.776314      0.029520714    250.82615     -1964.4537      3375         
     49420  -56.157747      0.39973237    -55.758014      0.029520714    343.60713     -422.12324      3375         
     49430  -56.123052      0.32940942    -55.793643      0.029520714    283.15802      1604.5612      3375         
     49440  -56.062528      0.2584526     -55.804075      0.029520714    222.16404      1162.9401      3375         
     49450  -56.050017      0.22651795    -55.823499      0.029520714    194.71324     -993.50182      3375         
     49460  -56.208278      0.37774705    -55.83053       0.029520714    324.70871     -1230.3862      3375         
     49470  -56.169348      0.35623528    -55.813113      0.029520714    306.21734      591.35374      3375         
     49480  -56.259383      0.41577674    -55.843607      0.029520714    357.39876     -24.116531      3375         
     49490  -56.101476      0.25438325    -55.847093      0.029520714    218.66606     -350.65692      3375         
     49500  -56.132409      0.2692563     -55.863153      0.029520714    231.45082      647.27828      3375         
     49510  -56.185544      0.31326846    -55.872275      0.029520714    269.28337      412.80852      3375         
     49520  -56.234782      0.34820561    -55.886577      0.029520714    299.31509     -183.95486      3375         
     49530  -56.184185      0.30382843    -55.880357      0.029520714    261.16878     -589.46585      3375         
     49540  -56.190161      0.30025599    -55.889905      0.029520714    258.09794     -481.10994      3375         
     49550  -56.16732       0.26880156    -55.898518      0.029520714    231.05993      1263.2647      3375         
     49560  -56.169483      0.26177801    -55.907705      0.029520714    225.02253      665.6802       3375         
     49570  -56.187167      0.24660295    -55.940564      0.029520714    211.97816     -1864.7837      3375         
     49580  -56.17584       0.2853754     -55.890464      0.029520714    245.30669     -697.89735      3375         
     49590  -56.141223      0.22858439    -55.912639      0.029520714    196.48953      1346.6928      3375         
     49600  -56.112362      0.19338256    -55.91898       0.029520714    166.23028      825.57517      3375         
     49610  -56.199048      0.28134656    -55.917702      0.029520714    241.84352      16.301575      3375         
     49620  -56.256652      0.33366618    -55.922986      0.029520714    286.8171      -1028.2419      3375         
     49630  -56.187647      0.28061212    -55.907034      0.029520714    241.21221     -354.86554      3375         
     49640  -56.167566      0.26240258    -55.905163      0.029520714    225.55941      1227.2553      3375         
     49650  -56.199275      0.2928863     -55.906389      0.029520714    251.763       -306.72482      3375         
     49660  -56.207319      0.32204769    -55.885272      0.029520714    276.82993     -619.31437      3375         
     49670  -56.189647      0.31326957    -55.876377      0.029520714    269.28432      710.62428      3375         
     49680  -56.169565      0.29311932    -55.876446      0.029520714    251.96331     -282.39701      3375         
     49690  -56.232729      0.3984183     -55.834311      0.029520714    342.47756     -854.56037      3375         
     49700  -56.069576      0.25551155    -55.814065      0.029520714    219.63593      347.31203      3375         
     49710  -56.0893        0.29792134    -55.791379      0.029520714    256.09108      884.87708      3375         
     49720  -56.187625      0.41917403    -55.768451      0.029520714    360.31905      981.63704      3375         
     49730  -56.127076      0.36660512    -55.760471      0.029520714    315.13119     -1258.4387      3375         
     49740  -55.973642      0.26944758    -55.704194      0.029520714    231.61525     -2365.6136      3375         
     49750  -56.078227      0.40022898    -55.677998      0.029520714    344.03402      1261.6486      3375         
     49760  -56.058413      0.38995782    -55.668455      0.029520714    335.205        2210.8767      3375         
     49770  -56.086285      0.43974397    -55.646541      0.029520714    378.00083     -329.62946      3375         
     49780  -55.910924      0.29001563    -55.620908      0.029520714    249.29539     -1060.7104      3375         
     49790  -55.947076      0.34421082    -55.602866      0.029520714    295.8812      -735.30596      3375         
     49800  -56.016853      0.43723157    -55.579621      0.029520714    375.84118      500.54509      3375         
     49810  -56.063545      0.48724674    -55.576298      0.029520714    418.83387      584.3873       3375         
     49820  -56.044939      0.48283968    -55.562099      0.029520714    415.04559     -676.63637      3375         
     49830  -56.108498      0.5659656     -55.542533      0.029520714    486.50004      524.57799      3375         
     49840  -55.938065      0.38017024    -55.557895      0.029520714    326.79166      612.35755      3375         
     49850  -55.956017      0.40554892    -55.550468      0.029520714    348.607       -1529.4813      3375         
     49860  -55.988096      0.45106416    -55.537032      0.029520714    387.73158     -532.07942      3375         
     49870  -56.145479      0.58937145    -55.556108      0.029520714    506.61955      1496.336       3375         
     49880  -56.150317      0.5854898     -55.564827      0.029520714    503.28291      1189.8187      3375         
     49890  -56.010485      0.42022722    -55.590258      0.029520714    361.22436     -828.75964      3375         
     49900  -55.977915      0.38130924    -55.596605      0.029520714    327.77074     -2001.725       3375         
     49910  -56.164602      0.557681      -55.606921      0.029520714    479.37866      128.35102      3375         
     49920  -55.97016       0.33982967    -55.63033       0.029520714    292.1152       2036.0814      3375         
     49930  -56.088014      0.4130344     -55.67498       0.029520714    355.04147      167.24683      3375         
     49940  -56.095972      0.42452611    -55.671446      0.029520714    364.91966     -1313.1955      3375         
     49950  -56.041076      0.344925      -55.696151      0.029520714    296.4951      -238.19608      3375         
     49960  -56.008481      0.29947453    -55.709006      0.029520714    257.4262       665.56533      3375         
     49970  -56.185443      0.45164795    -55.733795      0.029520714    388.2334       612.43649      3375         
     49980  -56.165241      0.39558639    -55.769654      0.029520714    340.04327     -117.27545      3375         
     49990  -56.07414       0.31592855    -55.758212      0.029520714    271.56996     -302.40217      3375         
     50000  -56.060476      0.28404023    -55.776436      0.029520714    244.15898      44.763281      3375         
Loop time of 82.3695 on 3 procs for 50000 steps with 10 atoms

Performance: 26.223 ns/day, 0.915 hours/ns, 607.021 timesteps/s, 6.070 katom-step/s
168.4% CPU use with 3 MPI tasks x no OpenMP threads

MPI task timing breakdown:
Section |  min time  |  avg time  |  max time  |%varavg| %total
---------------------------------------------------------------
Pair    | 27.134     | 44.432     | 78.606     | 362.5 | 53.94
Neigh   | 0.00086561 | 0.0010795  | 0.0015013  |   0.9 |  0.00
Comm    | 1.0382     | 35.133     | 52.423     | 406.8 | 42.65
Output  | 0.5162     | 0.53867    | 0.57974    |   4.0 |  0.65
Modify  | 1.9167     | 2.0049     | 2.1119     |   5.7 |  2.43
Other   |            | 0.2599     |            |       |  0.32

Nlocal:        3.33333 ave          10 max           0 min
Histogram: 2 0 0 0 0 0 0 0 0 1
Nghost:        75.3333 ave          90 max          46 min
Histogram: 1 0 0 0 0 0 0 0 0 2
Neighs:              0 ave           0 max           0 min
Histogram: 3 0 0 0 0 0 0 0 0 0
FullNghs:           30 ave          90 max           0 min
Histogram: 2 0 0 0 0 0 0 0 0 1

Total # of neighbors = 90
Ave neighs/atom = 9
Neighbor list builds = 167
Dangerous builds = 0

write_data	restart.data
System init for write_data ...
Generated 0 of 1 mixed pair_coeff terms from geometric mixing rule
#
Total wall time: 0:01:24
