LAMMPS data file via write_data, version 2 Aug 2023, timestep = 50000, units = metal

10 atoms
2 atom types

0 15 xlo xhi
0 15 ylo yhi
0 15 zlo zhi

Masses

1 12
2 2

Atoms # atomic

10 2 7.496332459022273 5.091347460918238 6.729250082014821 0 0 0
4 1 7.250544016226888 6.118576015783681 7.11463730854275 0 0 0
7 2 8.205389969762399 9.213478970122436 6.857048972004117 0 0 0
8 2 9.054727614493878 6.904248452270246 6.213122353740681 0 0 0
9 2 6.360633747622973 6.209558906592273 7.614392090164934 0 0 0
1 1 6.960610691957755 8.469273951139597 8.519314257054273 0 0 0
3 1 8.125016545006751 7.107971618018625 6.862865064216949 0 0 0
2 1 7.805937442813753 8.406765587034839 7.439478977985279 0 0 0
6 2 6.546309087247565 7.713427694958062 9.081969788698492 0 0 0
5 2 6.607954946531849 9.472415484743268 8.775443065091993 0 0 0

Velocities

10 -6.337982650879259 9.853531902964203 12.262527730253396
4 1.1346869940015853 3.3777082893603274 -2.2759083181709214
7 11.2195990210349 18.051603227601685 -11.507160762255943
8 -8.734764104768683 -3.799204481875693 9.264789417065934
9 2.4665667848451296 -15.877562965859818 5.515615391534337
1 -2.6080866228848825 -0.8741185363464774 -0.8636533247604076
3 1.7114782208100214 3.347632642871622 -0.5845568651028595
2 0.14592038317857903 -5.049511014078775 1.4657076614971538
6 -0.13146793227300532 -4.27020124263033 7.125130775120234
5 -0.78594496858879 -8.768434731041152 -9.110437472493823
